Title
82252
    1SAPS     N    1   2.284   2.149  11.051 -0.2505 -0.8840 -0.0900
    1SAPS   HN1    2   2.388   2.147  11.054 -0.1930 -0.2514 -1.3928
    1SAPS   HN2    3   2.246   2.179  10.960  0.0182  2.1497  0.6935
    1SAPS   HN3    4   2.250   2.219  11.120  0.9364 -0.5762  0.2028
    1SAPS   C12    5   2.229   2.019  11.106  0.2846  0.2419 -0.4681
    1SAPS  H12A    6   2.257   1.940  11.039 -1.6526 -0.8203 -0.0883
    1SAPS   C13    7   2.277   1.987  11.253  0.7466 -0.8271  0.0980
    1SAPS  O13A    8   2.351   2.063  11.316  0.1013  0.1997  0.2068
    1SAPS  O13B    9   2.256   1.874  11.299  0.6922  0.3438 -0.4323
    1SAPS   C11   10   2.076   2.027  11.110 -0.2474 -0.1329  0.0662
    1SAPS  H11A   11   2.047   2.102  11.187 -0.2527  0.9531 -0.9711
    1SAPS  H11B   12   2.038   1.932  11.153 -1.0230  0.3303  0.4278
    1SAPS     P   13   1.915   2.178  10.976 -0.1282  0.0656  0.2941
    1SAPS   O13   14   1.833   2.187  11.099 -0.5019 -0.1121  0.2642
    1SAPS   O14   15   1.985   2.301  10.930  0.4972  0.6281 -0.2994
    1SAPS   O12   16   2.019   2.062  10.979  0.0583  0.2129 -0.0291
    1SAPS   O11   17   1.815   2.141  10.865 -1.1792  0.5447  0.3772
    1SAPS    C1   18   1.872   2.113  10.733  0.4237 -0.4792  0.4663
    1SAPS    HA   19   1.938   2.194  10.696  2.9084 -2.1750  0.8857
    1SAPS    HB   20   1.936   2.022  10.732 -1.4422 -1.8710 -0.7053
    1SAPS    C2   21   1.764   2.076  10.632 -0.0256 -0.6181  0.3263
    1SAPS    HS   22   1.819   2.037  10.544 -0.9789  1.6170 -1.3525
    1SAPS   O21   23   1.702   2.207  10.597 -0.3063 -0.2039 -0.2243
    1SAPS   C21   24   1.698   2.233  10.470 -0.8177  0.9514 -0.9983
    1SAPS   O22   25   1.729   2.157  10.380 -0.1248  0.2296 -0.2055
    1SAPS   C22   26   1.657   2.379  10.453 -0.6039 -0.1688 -0.3987
    1SAPS   H2R   27   1.551   2.387  10.483 -0.3008 -1.8573  1.3036
    1SAPS   H2S   28   1.723   2.441  10.519  0.1489 -0.4815 -0.8399
    1SAPS    C3   29   1.656   1.980  10.689 -0.5078 -0.5896  0.1789
    1SAPS    HX   30   1.613   2.035  10.776 -1.8770  1.1034 -1.4964
    1SAPS    HY   31   1.706   1.887  10.725 -1.1717 -1.3645 -0.8583
    1SAPS   O31   32   1.548   1.946  10.602 -0.5867 -0.3076  0.5211
    1SAPS   C31   33   1.587   1.850  10.511  0.0339  0.0138 -0.3828
    1SAPS   O32   34   1.695   1.798  10.515 -0.2857 -0.0299  0.5643
    1SAPS   C32   35   1.469   1.828  10.421  0.4464  0.9133  0.8233
    1SAPS   H2X   36   1.435   1.925  10.379  0.5240  0.8133  0.5233
    1SAPS   H2Y   37   1.382   1.813  10.488 -0.5640 -1.1625 -0.8199
    1SAPS   C23   38   1.643   2.429  10.303 -1.0404 -0.8481  0.3005
    1SAPS   H3R   39   1.741   2.410  10.254 -0.4250 -2.4075  2.0215
    1SAPS   H3S   40   1.619   2.538  10.307 -1.1191 -0.8784  0.8304
    1SAPS   C24   41   1.515   2.383  10.222 -0.2546  0.5585  0.7569
    1SAPS   H4R   42   1.493   2.464  10.150  1.7788  1.9302  1.6001
    1SAPS   H4S   43   1.440   2.384  10.303  0.5724  1.8079  1.5397
    1SAPS   C25   44   1.534   2.247  10.159 -0.5834  0.0087 -0.4087
    1SAPS   H5R   45   1.537   2.162  10.229 -0.4305  0.7573  0.5153
    1SAPS   C26   46   1.548   2.226  10.028  0.1209  0.1934 -0.6257
    1SAPS   H6R   47   1.569   2.125   9.990 -0.6013 -1.1778  2.3543
    1SAPS   C27   48   1.552   2.333   9.918  0.3718 -0.1288 -0.5227
    1SAPS   H7R   49   1.618   2.319   9.830  0.7119  0.3529 -0.3494
    1SAPS   H7S   50   1.576   2.434   9.956  1.8160 -0.2388 -1.1011
    1SAPS   C28   51   1.406   2.334   9.875  0.3196  0.0291 -0.5724
    1SAPS   H8R   52   1.342   2.378   9.954  1.0942  0.4004 -0.1460
    1SAPS   C29   53   1.351   2.287   9.769  0.0639  0.4827 -0.0192
    1SAPS   H9R   54   1.251   2.324   9.741  0.0276  1.9510  1.8766
    1SAPS  C210   55   1.436   2.210   9.662 -0.2198 -0.9796 -0.1200
    1SAPS  H10R   56   1.531   2.168   9.701  0.6478  0.2149 -0.8760
    1SAPS  H10S   57   1.478   2.287   9.594  1.7238 -2.2341 -0.4293
    1SAPS  C211   58   1.382   2.087   9.587 -0.2791  0.3066  0.1590
    1SAPS  H11R   59   1.406   1.991   9.635  1.2154 -0.1774 -1.4597
    1SAPS  C212   60   1.325   2.088   9.465 -0.0860 -0.5080  0.2061
    1SAPS  H12R   61   1.294   1.994   9.418 -2.6435 -0.1360  0.9878
    1SAPS  C213   62   1.309   2.212   9.376  1.2517  0.7666 -0.3211
    1SAPS  H13R   63   1.324   2.307   9.431  1.1947  1.2988 -1.1969
    1SAPS  H13S   64   1.202   2.221   9.345  0.0850  0.7627  3.3102
    1SAPS  C214   65   1.407   2.211   9.259  0.4645  0.5021 -0.7510
    1SAPS  H14R   66   1.508   2.170   9.276 -0.0885 -1.5257 -2.0459
    1SAPS  C215   67   1.378   2.267   9.139 -0.0404  0.2815 -0.2206
    1SAPS  H15R   68   1.455   2.246   9.064 -1.5812 -0.4269 -1.6653
    1SAPS  C216   69   1.254   2.337   9.096  0.3117  0.1979 -0.3352
    1SAPS  H16R   70   1.295   2.433   9.058 -1.4839  0.8203 -0.8075
    1SAPS  H16S   71   1.185   2.361   9.180  2.4041 -0.9596  1.8334
    1SAPS  C217   72   1.175   2.263   8.987 -0.9770  0.7404  0.7161
    1SAPS  H17R   73   1.068   2.293   8.986 -0.8483  1.2017  0.1027
    1SAPS  H17S   74   1.168   2.158   9.023 -1.9222 -0.2859 -2.1539
    1SAPS  C218   75   1.231   2.265   8.838 -0.1833  0.8763 -0.4734
    1SAPS  H18R   76   1.320   2.198   8.831 -0.6969 -0.1027  1.5780
    1SAPS  H18S   77   1.260   2.372   8.832 -0.0770  1.0705  2.2154
    1SAPS  C219   78   1.124   2.218   8.739 -0.4935 -0.6633 -0.2826
    1SAPS  H19R   79   1.158   2.234   8.634 -1.6861  0.6438 -0.4890
    1SAPS  H19S   80   1.034   2.277   8.766  0.9569  1.8084 -0.4825
    1SAPS  C220   81   1.094   2.079   8.756  0.8684  0.4839 -0.2139
    1SAPS  H20R   82   1.191   2.026   8.764  1.0940  1.0237  0.8492
    1SAPS  H20S   83   1.041   2.025   8.675  0.1024 -3.3723  2.5353
    1SAPS  H20T   84   1.043   2.064   8.854  3.3244 -0.0571  1.0659
    1SAPS   C33   85   1.459   1.710  10.310  0.4663 -0.1644 -0.2702
    1SAPS   H3X   86   1.351   1.685  10.303  0.0341  1.2548  0.9325
    1SAPS   H3Y   87   1.520   1.623  10.344 -0.5915 -0.2436  1.5506
    1SAPS   C34   88   1.511   1.751  10.174 -0.4939  0.3472 -0.0732
    1SAPS   H4X   89   1.473   1.854  10.155 -0.8123 -0.0773 -1.8726
    1SAPS   H4Y   90   1.452   1.694  10.099  0.1183 -0.2001 -0.1475
    1SAPS   C35   91   1.662   1.736  10.143  0.4562  0.3061  0.4204
    1SAPS   H5X   92   1.690   1.628  10.139  0.5819  0.3633 -0.3686
    1SAPS   H5Y   93   1.712   1.783  10.230 -0.4958 -0.2831  1.3131
    1SAPS   C36   94   1.715   1.806  10.016  0.2492  0.4487 -0.1438
    1SAPS   H6X   95   1.826   1.807  10.021  0.3602 -3.0346  3.7677
    1SAPS   H6Y   96   1.687   1.913  10.007  1.2663  0.6408 -1.4349
    1SAPS   C37   97   1.657   1.743   9.885  0.1218 -0.3294  0.6658
    1SAPS   H7X   98   1.546   1.738   9.878 -0.0069  2.0365 -0.0168
    1SAPS   H7Y   99   1.688   1.637   9.876 -1.9243 -0.8399 -1.4531
    1SAPS   C38  100   1.702   1.820   9.755  0.3370  1.0103 -0.5600
    1SAPS   H8X  101   1.812   1.832   9.751  0.4427  0.8918  1.1222
    1SAPS   H8Y  102   1.666   1.926   9.752  1.1145  1.5076  3.0554
    1SAPS   C39  103   1.636   1.751   9.632 -1.0662  0.6159  0.6756
    1SAPS   H9X  104   1.529   1.721   9.643 -0.6119 -2.2088 -1.6177
    1SAPS   H9Y  105   1.691   1.658   9.609  0.9691  1.0465  3.3247
    1SAPS  C310  106   1.650   1.836   9.508  0.3852 -0.1734  0.3475
    1SAPS  H10X  107   1.749   1.887   9.498 -0.3099  1.0123 -0.7482
    1SAPS  H10Y  108   1.585   1.923   9.528 -0.9137 -0.9774 -0.2987
    1SAPS  C311  109   1.590   1.756   9.390  0.0670  0.5359 -0.5810
    1SAPS  H11X  110   1.482   1.738   9.407  0.1389 -2.2312 -2.4358
    1SAPS  H11Y  111   1.635   1.655   9.380 -0.4021  0.1879  0.6682
    1SAPS  C312  112   1.595   1.816   9.252 -0.2015  0.1358  0.0294
    1SAPS  H12X  113   1.700   1.834   9.220 -0.7051  2.2349 -0.5337
    1SAPS  H12Y  114   1.534   1.908   9.246 -0.4375 -0.0638 -0.6809
    1SAPS  C313  115   1.528   1.719   9.152  0.6607  0.7668  0.1575
    1SAPS  H13X  116   1.429   1.700   9.199  0.2323  0.4885 -0.8535
    1SAPS  H13Y  117   1.586   1.624   9.153  0.2378  0.5023 -0.0357
    1SAPS  C314  118   1.520   1.769   9.011  0.5644  0.6392  0.6930
    1SAPS  H14X  119   1.619   1.807   8.979  1.2188 -0.6919  1.0875
    1SAPS  H14Y  120   1.451   1.856   9.009  0.3771  0.4827 -0.9457
    1SAPS  C315  121   1.465   1.664   8.906  0.1056  1.2445 -0.7631
    1SAPS  H15X  122   1.521   1.569   8.918 -0.8825  0.9428  2.6435
    1SAPS  H15Y  123   1.490   1.706   8.806  1.3473  1.2632 -0.4566
    1SAPS  C316  124   1.319   1.619   8.914 -0.3641 -0.3290  0.1545
    1SAPS  H16X  125   1.293   1.583   9.016 -0.8402 -4.7938 -1.3062
    1SAPS  H16Y  126   1.308   1.527   8.853 -0.5518 -0.7031  0.7448
    1SAPS  C317  127   1.219   1.728   8.874 -0.5633  0.8535  0.5887
    1SAPS  H17X  128   1.216   1.745   8.764  0.5622  1.0968  0.5922
    1SAPS  H17Y  129   1.255   1.822   8.921  0.7543  0.1426  1.0340
    1SAPS  C318  130   1.077   1.718   8.914  0.4266  0.0087  0.0267
    1SAPS  H18X  131   1.073   1.702   9.024  0.8562 -0.2197  0.0122
    1SAPS  H18Y  132   1.030   1.636   8.857 -0.8806  0.3725  0.5500
    1SAPS  H18Z  133   1.037   1.819   8.890  0.5405 -0.0466 -0.3971
    2SAPS     N  134   5.482   1.985  10.959 -0.0189 -0.2709 -0.6737
    2SAPS   HN1  135   5.564   1.928  10.989 -1.1037 -1.2800  0.5071
    2SAPS   HN2  136   5.445   1.962  10.865 -1.3879  1.1900 -0.5343
    2SAPS   HN3  137   5.512   2.085  10.958 -2.5486  0.7330  2.9729
    2SAPS   C12  138   5.380   1.959  11.065 -0.0699 -0.0202 -0.2342
    2SAPS  H12A  139   5.404   1.864  11.110 -2.2802 -2.2625 -3.3324
    2SAPS   C13  140   5.368   2.059  11.187  0.0429  0.1341  0.1566
    2SAPS  O13A  141   5.436   2.166  11.189  0.7997  0.1782  0.3324
    2SAPS  O13B  142   5.294   2.028  11.288  0.2002  0.0839  0.0172
    2SAPS   C11  143   5.249   1.937  10.991  0.2965  0.4816 -0.7715
    2SAPS  H11A  144   5.204   2.030  10.949  0.1243  0.6556 -0.2132
    2SAPS  H11B  145   5.176   1.910  11.070  2.4476  1.4090  1.6849
    2SAPS     P  146   5.240   1.843  10.742  0.4277 -0.0638  0.4297
    2SAPS   O13  147   5.283   1.715  10.672  0.2020 -0.3430 -0.1731
    2SAPS   O14  148   5.104   1.904  10.716  0.6716 -0.0031 -0.1259
    2SAPS   O12  149   5.257   1.829  10.899 -0.4864  0.0181 -0.0150
    2SAPS   O11  150   5.350   1.952  10.720  0.0800  0.3235 -0.7287
    2SAPS    C1  151   5.342   2.070  10.650 -0.5635 -0.2987  0.1404
    2SAPS    HA  152   5.252   2.134  10.668  1.8433  3.0098  1.4991
    2SAPS    HB  153   5.428   2.133  10.682 -1.7597  1.6942 -0.3433
    2SAPS    C2  154   5.358   2.046  10.498  0.2406  0.0283  0.1160
    2SAPS    HS  155   5.372   2.138  10.437  2.4169 -1.3054 -1.5482
    2SAPS   O21  156   5.247   1.965  10.448 -0.5415  0.1458 -0.2102
    2SAPS   C21  157   5.137   2.043  10.432 -0.0446  0.3332 -0.3570
    2SAPS   O22  158   5.132   2.164  10.438 -0.0363  0.4739 -0.1410
    2SAPS   C22  159   5.011   1.961  10.410  0.6063  0.3391  0.4301
    2SAPS   H2R  160   4.979   1.923  10.509  2.1262  1.8935  1.5606
    2SAPS   H2S  161   4.942   2.030  10.357  1.1649 -0.1773 -1.0346
    2SAPS    C3  162   5.494   1.971  10.466  0.0458 -0.1525 -0.1123
    2SAPS    HX  163   5.488   1.881  10.531  1.2731 -0.9062 -1.0024
    2SAPS    HY  164   5.583   2.034  10.490  1.9771 -1.8978 -2.2985
    2SAPS   O31  165   5.517   1.932  10.328  0.3354  0.7567 -0.1781
    2SAPS   C31  166   5.491   1.797  10.299 -0.0836 -0.0133 -0.5706
    2SAPS   O32  167   5.436   1.718  10.376  0.1442  0.2304 -0.1772
    2SAPS   C32  168   5.530   1.769  10.153  0.2488  0.3977  0.1937
    2SAPS   H2X  169   5.551   1.660  10.151  1.9146  0.6495  1.3254
    2SAPS   H2Y  170   5.627   1.812  10.121  0.2544 -0.8270 -1.6136
    2SAPS   C23  171   5.031   1.836  10.323  0.5753  0.3708  0.1976
    2SAPS   H3R  172   4.954   1.760  10.349  3.2411 -2.3334  0.7560
    2SAPS   H3S  173   5.131   1.789  10.334  0.2670 -0.7790 -1.4781
    2SAPS   C24  174   5.019   1.861  10.169  0.7774 -0.1297 -0.4420
    2SAPS   H4R  175   5.099   1.937  10.156  0.3846  0.5486  0.8947
    2SAPS   H4S  176   4.918   1.906  10.155 -0.9279 -2.9691  1.5692
    2SAPS   C25  177   5.041   1.740  10.093  0.1199  0.7299  0.2102
    2SAPS   H5R  178   5.098   1.661  10.144 -1.9433 -0.6246  0.5433
    2SAPS   C26  179   4.996   1.718   9.964  0.6130 -0.3663 -0.0240
    2SAPS   H6R  180   5.022   1.622   9.916  1.0963 -0.1338 -0.2372
    2SAPS   C27  181   4.897   1.802   9.886  0.5900  0.2683  0.3840
    2SAPS   H7R  182   4.829   1.854   9.956 -0.6597  0.3867 -0.8795
    2SAPS   H7S  183   4.838   1.745   9.811  0.3014  1.2462 -0.1412
    2SAPS   C28  184   4.971   1.919   9.819 -0.2962 -1.0436  0.8182
    2SAPS   H8R  185   5.037   1.974   9.887  0.8017 -0.4288 -0.6892
    2SAPS   C29  186   4.952   1.970   9.696  0.2824  0.2650  0.6371
    2SAPS   H9R  187   5.017   2.051   9.661  0.0606 -0.8422 -2.5902
    2SAPS  C210  188   4.856   1.904   9.599 -0.1230  0.4764  0.4946
    2SAPS  H10R  189   4.820   1.989   9.537  0.1897  1.6566  1.8811
    2SAPS  H10S  190   4.768   1.851   9.641 -0.6225 -0.8383 -2.0043
    2SAPS  C211  191   4.939   1.819   9.506  0.4276  0.6029  0.3928
    2SAPS  H11R  192   5.013   1.755   9.555  2.6760  1.2424 -1.9449
    2SAPS  C212  193   4.953   1.826   9.371 -0.7155 -1.3486  0.2727
    2SAPS  H12R  194   5.017   1.750   9.326  4.1043  1.3673  1.8167
    2SAPS  C213  195   4.881   1.927   9.279 -0.0011 -0.2788  0.0532
    2SAPS  H13R  196   4.778   1.930   9.321  0.0344  0.9036  0.0877
    2SAPS  H13S  197   4.872   1.887   9.176  0.6734  2.0284 -0.9652
    2SAPS  C214  198   4.951   2.060   9.276 -0.1935  0.4945  0.5069
    2SAPS  H14R  199   4.994   2.082   9.375  0.2673 -0.5290  0.5497
    2SAPS  C215  200   4.959   2.153   9.178 -0.6603  0.2428 -0.5145
    2SAPS  H15R  201   5.024   2.241   9.194  0.9572 -1.2658  1.9439
    2SAPS  C216  202   4.884   2.137   9.050  0.0646  0.1976 -0.0403
    2SAPS  H16R  203   4.805   2.059   9.052 -1.8910  2.0428 -1.2837
    2SAPS  H16S  204   4.953   2.112   8.967 -1.1388 -0.8317 -0.7775
    2SAPS  C217  205   4.818   2.268   9.006 -1.3801 -0.6019 -0.4366
    2SAPS  H17R  206   4.753   2.314   9.084 -1.2101  0.1958 -0.7636
    2SAPS  H17S  207   4.735   2.243   8.936 -0.2274 -2.8410 -1.0877
    2SAPS  C218  208   4.934   2.363   8.947  0.1651  0.2301  0.2679
    2SAPS  H18R  209   5.025   2.305   8.920 -1.2165 -0.8132 -2.5543
    2SAPS  H18S  210   4.948   2.435   9.030 -0.5650  1.8168 -0.9186
    2SAPS  C219  211   4.891   2.436   8.820  0.9424  0.2090 -1.1671
    2SAPS  H19R  212   4.973   2.506   8.792 -1.8786  3.5186 -1.7941
    2SAPS  H19S  213   4.802   2.496   8.848  1.3335  0.6912 -0.9474
    2SAPS  C220  214   4.841   2.341   8.710 -0.3914 -0.2765 -0.3682
    2SAPS  H20R  215   4.743   2.297   8.738 -0.2327 -0.9658 -0.8638
    2SAPS  H20S  216   4.911   2.258   8.685 -1.9511 -2.1097  1.0565
    2SAPS  H20T  217   4.816   2.402   8.620 -0.5403  1.8278  1.0322
    2SAPS   C33  218   5.427   1.818  10.049  0.2390 -0.4210  0.6940
    2SAPS   H3X  219   5.391   1.918  10.080  1.2634 -0.0872  0.8494
    2SAPS   H3Y  220   5.343   1.748  10.069 -0.2949  0.3541  1.1872
    2SAPS   C34  221   5.477   1.792   9.896  0.0259 -0.5882 -0.4249
    2SAPS   H4X  222   5.391   1.783   9.827 -0.6634 -1.4784  0.5170
    2SAPS   H4Y  223   5.529   1.694   9.896  0.4823 -0.3524  0.2399
    2SAPS   C35  224   5.560   1.909   9.839 -0.0763 -0.5923  0.2328
    2SAPS   H5X  225   5.631   1.941   9.919 -1.6964  0.6586  1.2565
    2SAPS   H5Y  226   5.493   1.998   9.839 -0.3602 -0.7905  1.1628
    2SAPS   C36  227   5.623   1.885   9.700  0.0521  0.3674  0.0448
    2SAPS   H6X  228   5.673   1.785   9.698 -3.0572 -1.3080  0.3250
    2SAPS   H6Y  229   5.709   1.956   9.700  2.9765 -2.8701  0.8001
    2SAPS   C37  230   5.525   1.899   9.582  1.1921 -0.7408 -0.7149
    2SAPS   H7X  231   5.460   1.989   9.597  1.2349 -0.5272 -1.7126
    2SAPS   H7Y  232   5.468   1.804   9.585 -0.6701  0.2582 -2.1309
    2SAPS   C38  233   5.599   1.900   9.452  0.5770 -0.7186 -0.2833
    2SAPS   H8X  234   5.629   1.795   9.430 -1.1754 -1.8124  2.0564
    2SAPS   H8Y  235   5.692   1.958   9.465 -0.7579  0.9644  2.7499
    2SAPS   C39  236   5.511   1.943   9.332 -0.0230  0.9136 -0.5061
    2SAPS   H9X  237   5.486   2.052   9.332  3.6944  1.9141  0.7805
    2SAPS   H9Y  238   5.413   1.891   9.340 -0.2475  1.3397 -0.4256
    2SAPS  C310  239   5.585   1.916   9.197 -0.4812  0.2750  0.0108
    2SAPS  H10X  240   5.591   1.808   9.175  2.8898  0.3967 -0.0686
    2SAPS  H10Y  241   5.689   1.954   9.201 -0.0322 -0.8806 -0.3231
    2SAPS  C311  242   5.530   2.007   9.087 -0.0030  0.8013 -0.1610
    2SAPS  H11X  243   5.530   2.113   9.123  0.4337  1.5218 -2.1711
    2SAPS  H11Y  244   5.422   1.986   9.074  0.0921  0.7474 -0.9133
    2SAPS  C312  245   5.613   1.992   8.955 -0.1710 -0.0613  0.3634
    2SAPS  H12X  246   5.615   1.883   8.932  1.1358  0.0076  0.0461
    2SAPS  H12Y  247   5.718   2.026   8.966 -0.4815  1.1827 -0.4139
    2SAPS  C313  248   5.547   2.087   8.854 -0.1701 -0.2119 -1.0084
    2SAPS  H13X  249   5.552   2.188   8.900  2.9261 -1.0511  0.7842
    2SAPS  H13Y  250   5.439   2.070   8.832 -0.3886 -0.0374 -0.0902
    2SAPS  C314  251   5.627   2.086   8.720  1.2973  0.6178  0.0800
    2SAPS  H14X  252   5.630   1.976   8.703 -1.5366  0.3944  0.5873
    2SAPS  H14Y  253   5.725   2.137   8.718  1.1600  0.8640 -0.9789
    2SAPS  C315  254   5.542   2.150   8.620 -0.2595 -0.0267  0.3671
    2SAPS  H15X  255   5.473   2.226   8.663  1.9117  1.1709  1.8910
    2SAPS  H15Y  256   5.487   2.069   8.567  0.5188  0.1950 -0.8181
    2SAPS  C316  257   5.626   2.222   8.502 -0.2057  0.2874  0.0287
    2SAPS  H16X  258   5.675   2.311   8.547 -1.1518  1.6175 -1.4779
    2SAPS  H16Y  259   5.551   2.262   8.431  0.1820  0.4507 -0.2950
    2SAPS  C317  260   5.727   2.141   8.421 -0.2304  0.2025  0.0963
    2SAPS  H17X  261   5.678   2.062   8.361  0.2010  0.1412 -0.1767
    2SAPS  H17Y  262   5.806   2.099   8.488 -1.0022 -0.5618  0.5494
    2SAPS  C318  263   5.794   2.237   8.315  0.1613  0.4975  0.3835
    2SAPS  H18X  264   5.867   2.181   8.252 -1.4641  0.2284 -1.3591
    2SAPS  H18Y  265   5.827   2.333   8.360  0.3780  0.7511 -0.2990
    2SAPS  H18Z  266   5.709   2.252   8.244 -0.3089 -2.2969  0.2178
    3SAPS     N  267   6.382   3.756  11.031  0.0272 -0.3738  0.1431
    3SAPS   HN1  268   6.372   3.653  11.039 -0.3839 -0.1920  3.8667
    3SAPS   HN2  269   6.469   3.786  10.983 -0.6322  0.4346 -0.6064
    3SAPS   HN3  270   6.391   3.789  11.129 -0.5643 -1.5692  0.6204
    3SAPS   C12  271   6.268   3.825  10.957 -0.3470 -0.1552 -0.1553
    3SAPS  H12A  272   6.198   3.825  11.038 -0.5635  1.3049 -0.3222
    3SAPS   C13  273   6.298   3.978  10.927 -0.6085  0.6513 -0.0854
    3SAPS  O13A  274   6.407   4.024  10.970  0.0827 -0.3082  0.4265
    3SAPS  O13B  275   6.204   4.051  10.886 -0.0970 -0.0392 -0.3899
    3SAPS   C11  276   6.228   3.757  10.816 -0.2354 -0.2265 -0.4152
    3SAPS  H11A  277   6.310   3.760  10.741  0.3778 -1.0189  0.2143
    3SAPS  H11B  278   6.140   3.811  10.774 -2.3756 -2.7133  0.5875
    3SAPS     P  279   6.195   3.503  10.751  0.0279 -0.1777 -0.1299
    3SAPS   O13  280   6.337   3.462  10.732 -0.2608  0.1196 -0.2121
    3SAPS   O14  281   6.094   3.407  10.794 -0.1109 -0.0281 -0.0374
    3SAPS   O12  282   6.184   3.624  10.856 -0.3777  0.3253  0.0167
    3SAPS   O11  283   6.151   3.580  10.617 -0.3689 -0.5855 -0.5090
    3SAPS    C1  284   6.015   3.605  10.595 -0.0482  0.5582 -0.6882
    3SAPS    HA  285   5.951   3.524  10.637  0.4041  0.4236 -0.2481
    3SAPS    HB  286   5.990   3.698  10.650  0.0654  0.9185 -1.2302
    3SAPS    C2  287   5.967   3.639  10.444  0.2863 -0.1628 -0.0564
    3SAPS    HS  288   5.865   3.685  10.445  0.0854 -0.5779 -0.9039
    3SAPS   O21  289   5.969   3.525  10.361 -0.8989  0.0946 -0.6451
    3SAPS   C21  290   5.868   3.449  10.369 -0.1289 -0.4619 -0.1990
    3SAPS   O22  291   5.773   3.462  10.444  0.3750  0.0513  0.3428
    3SAPS   C22  292   5.868   3.344  10.257 -0.3211 -0.3190 -0.5065
    3SAPS   H2R  293   5.970   3.301  10.247 -0.0707  0.4572 -1.4846
    3SAPS   H2S  294   5.789   3.271  10.283  0.3599 -1.0190 -0.3365
    3SAPS    C3  295   6.057   3.755  10.387  0.2005  0.0106  0.2816
    3SAPS    HX  296   6.164   3.732  10.404  0.2305 -0.2080 -0.1858
    3SAPS    HY  297   6.038   3.848  10.445  2.1295  0.1491  0.7522
    3SAPS   O31  298   6.022   3.780  10.250 -0.4321  0.1239  0.0754
    3SAPS   C31  299   6.132   3.816  10.184  0.1411  0.4005  0.6704
    3SAPS   O32  300   6.237   3.854  10.236 -0.5541 -0.2927 -0.1201
    3SAPS   C32  301   6.103   3.819  10.028 -0.3567 -0.2315 -0.0827
    3SAPS   H2X  302   6.061   3.919  10.002 -1.2997 -0.2306  1.2981
    3SAPS   H2Y  303   6.022   3.748  10.000 -1.0253 -0.2243  1.6694
    3SAPS   C23  304   5.822   3.394  10.120 -0.0207 -0.1298 -0.4865
    3SAPS   H3R  305   5.719   3.434  10.132 -1.0995 -1.9209 -2.8570
    3SAPS   H3S  306   5.799   3.309  10.052 -2.1367 -0.6343  0.7508
    3SAPS   C24  307   5.930   3.487  10.053 -0.0338 -0.2811  0.8118
    3SAPS   H4R  308   5.946   3.565  10.130 -2.5265  1.7035 -0.5675
    3SAPS   H4S  309   5.870   3.537   9.975  0.1486 -0.4933  0.5312
    3SAPS   C25  310   6.064   3.431  10.001  0.3199 -0.4666 -0.4852
    3SAPS   H5R  311   6.147   3.445  10.073  0.1665  1.1700 -0.5701
    3SAPS   C26  312   6.090   3.390   9.875  0.9424  0.5502 -0.8988
    3SAPS   H6R  313   6.190   3.350   9.853  0.2819 -0.9795 -1.2054
    3SAPS   C27  314   5.978   3.370   9.768 -0.1451 -0.2434 -0.7723
    3SAPS   H7R  315   6.014   3.403   9.668  0.4743  1.4414 -0.0438
    3SAPS   H7S  316   5.901   3.450   9.779  1.1154  1.0879 -1.2709
    3SAPS   C28  317   5.909   3.235   9.761 -0.1123  0.4779  0.4094
    3SAPS   H8R  318   5.885   3.187   9.858  1.2526 -0.3262  0.3685
    3SAPS   C29  319   5.894   3.169   9.640 -0.4305  0.7992 -0.0942
    3SAPS   H9R  320   5.852   3.068   9.653  0.1680  0.4283 -0.9025
    3SAPS  C210  321   5.935   3.192   9.498 -0.2190 -0.4786  1.1073
    3SAPS  H10R  322   5.994   3.107   9.457  0.7945  0.0422  1.4563
    3SAPS  H10S  323   6.013   3.271   9.499  0.2995 -0.9811  0.9121
    3SAPS  C211  324   5.818   3.225   9.416  0.1961 -0.5642 -0.9684
    3SAPS  H11R  325   5.758   3.140   9.383 -0.3427 -1.2074  1.5005
    3SAPS  C212  326   5.779   3.348   9.387  0.5521 -1.4690  0.5791
    3SAPS  H12R  327   5.691   3.366   9.324  1.2432 -0.1767 -0.0577
    3SAPS  C213  328   5.832   3.482   9.438 -0.2272 -0.3105 -0.6998
    3SAPS  H13R  329   5.935   3.466   9.477 -1.5886 -2.8433  2.3130
    3SAPS  H13S  330   5.792   3.512   9.537  3.6137 -0.5043  1.0979
    3SAPS  C214  331   5.833   3.595   9.336  0.3766 -0.7625  0.5234
    3SAPS  H14R  332   5.735   3.642   9.315  0.8457  0.9320  1.8623
    3SAPS  C215  333   5.939   3.659   9.285 -0.2611 -0.3910  0.0521
    3SAPS  H15R  334   5.922   3.732   9.205 -0.2054 -0.6436 -0.1896
    3SAPS  C216  335   6.085   3.625   9.318  0.8382 -0.2256 -0.0118
    3SAPS  H16R  336   6.105   3.559   9.404  4.0928 -1.1612 -1.3156
    3SAPS  H16S  337   6.137   3.721   9.337 -3.5154  2.1584  1.2699
    3SAPS  C217  338   6.163   3.557   9.192 -0.2509 -0.4891 -0.1546
    3SAPS  H17R  339   6.090   3.483   9.152  0.8563 -1.0327 -1.2125
    3SAPS  H17S  340   6.252   3.496   9.218 -0.0868 -0.1309  0.1218
    3SAPS  C218  341   6.188   3.649   9.066  0.4813 -0.4632  0.1609
    3SAPS  H18R  342   6.248   3.737   9.099 -1.0529  0.3784  0.7676
    3SAPS  H18S  343   6.087   3.673   9.026 -0.1693 -1.8063  0.9365
    3SAPS  C219  344   6.262   3.584   8.945 -0.3106 -0.5700  0.0183
    3SAPS  H19R  345   6.216   3.488   8.914  1.0360 -1.1197 -0.3292
    3SAPS  H19S  346   6.366   3.572   8.984 -0.0079  1.6110  0.0493
    3SAPS  C220  347   6.295   3.678   8.827  0.8502 -0.3689  0.0916
    3SAPS  H20R  348   6.366   3.641   8.751  1.2641 -1.4391  0.9632
    3SAPS  H20S  349   6.322   3.775   8.874 -1.8323  0.4156  0.1594
    3SAPS  H20T  350   6.198   3.700   8.777  0.8335  1.0586  0.7007
    3SAPS   C33  351   6.238   3.782   9.964  0.3539 -0.2367  0.0492
    3SAPS   H3X  352   6.286   3.699  10.021  0.3653  0.1370  0.5923
    3SAPS   H3Y  353   6.303   3.871   9.958  0.0410  0.0464  0.8020
    3SAPS   C34  354   6.235   3.740   9.819 -0.7249  0.8219  0.5070
    3SAPS   H4X  355   6.189   3.822   9.760 -0.4175  0.9023  0.3761
    3SAPS   H4Y  356   6.182   3.642   9.809  2.5426 -1.1094  0.4698
    3SAPS   C35  357   6.376   3.715   9.755  0.4967  0.0400  0.1635
    3SAPS   H5X  358   6.442   3.654   9.819  1.1208  0.6503  0.1103
    3SAPS   H5Y  359   6.424   3.816   9.756  2.0723 -0.6790 -0.4794
    3SAPS   C36  360   6.362   3.685   9.605  0.2969  0.5084  0.0934
    3SAPS   H6X  361   6.340   3.782   9.556  0.5525  1.0962  1.1297
    3SAPS   H6Y  362   6.276   3.614   9.602 -1.2537  1.8782  4.3413
    3SAPS   C37  363   6.488   3.627   9.541 -0.2462 -0.0450  0.3717
    3SAPS   H7X  364   6.493   3.523   9.579 -1.2975 -0.1039  0.3768
    3SAPS   H7Y  365   6.578   3.685   9.573  1.1466 -1.8019 -0.2240
    3SAPS   C38  366   6.498   3.636   9.387  0.1892 -0.6118 -0.4898
    3SAPS   H8X  367   6.410   3.574   9.363 -0.5227 -0.6420  1.9242
    3SAPS   H8Y  368   6.593   3.584   9.365  0.8769  0.3162  0.1776
    3SAPS   C39  369   6.494   3.778   9.326 -0.7710  0.2840 -0.0194
    3SAPS   H9X  370   6.549   3.856   9.383 -1.7746  2.3696 -1.7416
    3SAPS   H9Y  371   6.385   3.796   9.319 -1.0340 -0.9552  0.6368
    3SAPS  C310  372   6.561   3.776   9.178 -0.1703 -0.2734 -0.1659
    3SAPS  H10X  373   6.501   3.692   9.135 -0.5150 -0.6466  1.0104
    3SAPS  H10Y  374   6.667   3.744   9.172 -0.0051  0.5078 -3.0326
    3SAPS  C311  375   6.537   3.913   9.108  0.7986  0.4993 -0.2637
    3SAPS  H11X  376   6.578   3.988   9.179 -1.1424  0.4238  1.0289
    3SAPS  H11Y  377   6.430   3.940   9.096  0.6620  0.1308  0.0755
    3SAPS  C312  378   6.604   3.894   8.968  0.0243 -0.8023  0.1571
    3SAPS  H12X  379   6.563   3.802   8.922 -2.0421 -0.3795  1.0115
    3SAPS  H12Y  380   6.714   3.890   8.982 -0.1192  2.2230  3.5399
    3SAPS  C313  381   6.559   4.008   8.880  0.3571 -0.1738  0.1454
    3SAPS  H13X  382   6.573   4.099   8.943  2.1617 -1.0470  1.0875
    3SAPS  H13Y  383   6.451   4.010   8.856  0.2654 -1.1939  0.4349
    3SAPS  C314  384   6.630   4.010   8.743  0.5052 -0.2918 -0.6378
    3SAPS  H14X  385   6.610   3.917   8.685 -0.2389 -0.2509 -0.4583
    3SAPS  H14Y  386   6.740   4.007   8.755  0.6362  0.5045 -1.5517
    3SAPS  C315  387   6.597   4.134   8.665 -0.2584 -0.4533 -0.4409
    3SAPS  H15X  388   6.628   4.223   8.723 -1.0735 -1.7657  2.1705
    3SAPS  H15Y  389   6.487   4.122   8.654 -0.0671 -0.3979 -3.0174
    3SAPS  C316  390   6.669   4.139   8.529 -0.2532  0.4512 -0.2178
    3SAPS  H16X  391   6.639   4.060   8.457  1.6435  0.2238 -0.8009
    3SAPS  H16Y  392   6.779   4.127   8.542 -0.4882 -1.6178  0.2264
    3SAPS  C317  393   6.637   4.272   8.459  0.0454  0.2680  0.1888
    3SAPS  H17X  394   6.555   4.329   8.509  0.3934  1.2380 -0.3156
    3SAPS  H17Y  395   6.589   4.257   8.360  1.8322  0.5257 -0.7582
    3SAPS  C318  396   6.758   4.353   8.438 -0.1336 -0.2098 -0.2573
    3SAPS  H18X  397   6.747   4.450   8.385 -1.5044  0.8221  1.7984
    3SAPS  H18Y  398   6.843   4.306   8.384  1.3278  0.9526  0.9449
    3SAPS  H18Z  399   6.799   4.384   8.536  0.0497 -1.5553  0.1118
    4SAPS     N  400   2.166   4.586  10.945 -0.1047 -0.2706  0.4530
    4SAPS   HN1  401   2.184   4.596  10.843  1.5220  0.1786  0.7613
    4SAPS   HN2  402   2.231   4.643  11.002 -0.6761 -1.4271  2.3513
    4SAPS   HN3  403   2.194   4.490  10.971 -1.0494 -0.5000  0.6679
    4SAPS   C12  404   2.025   4.629  10.991 -0.3470  1.2163  0.7692
    4SAPS  H12A  405   1.995   4.550  11.060  2.5722 -2.3893 -1.7039
    4SAPS   C13  406   2.021   4.757  11.073  0.5591  0.2369 -0.0113
    4SAPS  O13A  407   2.129   4.820  11.089 -0.3897 -0.2538  0.6834
    4SAPS  O13B  408   1.906   4.790  11.122 -0.6486  0.1887  0.1973
    4SAPS   C11  409   1.937   4.622  10.861  0.3256  0.3166  0.1845
    4SAPS  H11A  410   1.975   4.699  10.790  3.0303 -0.0014  1.1886
    4SAPS  H11B  411   1.834   4.656  10.884  0.1812  1.5311 -1.9306
    4SAPS     P  412   1.830   4.384  10.797 -0.1658 -0.1806  0.5026
    4SAPS   O13  413   1.882   4.277  10.714 -0.0461 -0.1850  0.1958
    4SAPS   O14  414   1.783   4.362  10.934  0.4697  0.1367 -0.3250
    4SAPS   O12  415   1.939   4.497  10.789 -0.3334  0.1591 -0.8362
    4SAPS   O11  416   1.709   4.459  10.727 -0.0340 -0.1629  0.0482
    4SAPS    C1  417   1.739   4.519  10.602 -0.2602  0.0862 -0.0583
    4SAPS    HA  418   1.675   4.607  10.581 -1.2340 -0.7259 -0.5914
    4SAPS    HB  419   1.834   4.576  10.608  0.4142 -1.1089  1.1935
    4SAPS    C2  420   1.718   4.428  10.479  0.0624  0.5265 -0.5827
    4SAPS    HS  421   1.681   4.336  10.529 -2.8449  2.4993  1.1619
    4SAPS   O21  422   1.842   4.413  10.414  0.5992  0.3970 -0.1026
    4SAPS   C21  423   1.867   4.287  10.370  0.0523  0.4823 -0.0942
    4SAPS   O22  424   1.796   4.192  10.387  0.1905 -0.2283  0.3509
    4SAPS   C22  425   2.007   4.280  10.300 -0.0582 -0.1999  0.4407
    4SAPS   H2R  426   2.032   4.383  10.268 -1.1215  0.0722  0.4553
    4SAPS   H2S  427   2.082   4.249  10.375  0.5284 -1.5565 -0.6538
    4SAPS    C3  428   1.611   4.487  10.376  0.5117 -0.2773  0.0349
    4SAPS    HX  429   1.630   4.593  10.348 -0.5797  0.7301  2.7925
    4SAPS    HY  430   1.517   4.507  10.432 -0.1655  1.5361 -1.6128
    4SAPS   O31  431   1.596   4.417  10.249  0.2955  0.0478 -0.2397
    4SAPS   C31  432   1.511   4.310  10.260  0.0720 -0.4088  0.0340
    4SAPS   O32  433   1.453   4.281  10.358  0.1931  0.0317  0.1785
    4SAPS   C32  434   1.504   4.239  10.131 -0.2897 -0.3054  0.0344
    4SAPS   H2X  435   1.433   4.157  10.154 -0.6284  0.0765  0.3765
    4SAPS   H2Y  436   1.603   4.199  10.103  1.4329  3.2175  0.5134
    4SAPS   C23  437   2.001   4.187  10.178 -0.2068  0.6872 -0.3052
    4SAPS   H3R  438   1.940   4.233  10.096 -0.3399 -1.3409 -1.4091
    4SAPS   H3S  439   1.958   4.090  10.209  0.8391  0.4229  0.3292
    4SAPS   C24  440   2.144   4.180  10.111  0.4259 -0.5027 -0.6406
    4SAPS   H4R  441   2.215   4.168  10.196  0.5582 -0.0848 -0.6880
    4SAPS   H4S  442   2.175   4.277  10.068  2.1868 -0.1127  1.3154
    4SAPS   C25  443   2.153   4.071  10.014 -0.8625 -0.2042 -0.2730
    4SAPS   H5R  444   2.177   3.975  10.061 -1.0532  0.6570  1.6929
    4SAPS   C26  445   2.134   4.080   9.884  0.1299 -0.1733 -0.5996
    4SAPS   H6R  446   2.157   3.988   9.828  0.7187 -1.3203  1.4272
    4SAPS   C27  447   2.095   4.201   9.803 -0.3002  0.3338 -0.9412
    4SAPS   H7R  448   2.181   4.224   9.737  1.1066 -2.6198 -0.3247
    4SAPS   H7S  449   2.081   4.285   9.874 -2.9697 -0.5381 -0.3339
    4SAPS   C28  450   1.969   4.184   9.721  0.2983 -0.3102 -0.0799
    4SAPS   H8R  451   1.872   4.162   9.767 -0.3662 -1.9477 -2.1248
    4SAPS   C29  452   1.969   4.193   9.586  0.1656  0.4662 -0.3287
    4SAPS   H9R  453   1.869   4.186   9.541 -0.3203  0.5970  0.7016
    4SAPS  C210  454   2.087   4.219   9.491 -0.0550 -0.0468 -0.0435
    4SAPS  H10R  455   2.114   4.118   9.453 -1.6631 -0.4250 -0.2372
    4SAPS  H10S  456   2.179   4.268   9.529 -0.7810  0.5234  1.0308
    4SAPS  C211  457   2.032   4.309   9.384 -0.1657 -0.2563 -0.1842
    4SAPS  H11R  458   1.987   4.402   9.420  0.6305 -0.1153  0.4665
    4SAPS  C212  459   2.045   4.297   9.250  0.2762 -0.1139 -0.2920
    4SAPS  H12R  460   2.003   4.368   9.178  0.1638 -2.4846 -2.7413
    4SAPS  C213  461   2.111   4.181   9.174  0.2507  0.5022  0.3516
    4SAPS  H13R  462   2.219   4.173   9.198  0.3233  1.1383  0.2704
    4SAPS  H13S  463   2.120   4.211   9.067 -0.0062  2.5429  0.8541
    4SAPS  C214  464   2.057   4.045   9.205 -0.1591 -0.7094 -0.8132
    4SAPS  H14R  465   2.108   3.991   9.287  1.2320 -0.8252 -1.7134
    4SAPS  C215  466   1.958   3.996   9.132  0.4232  0.3698  0.1897
    4SAPS  H15R  467   1.912   3.906   9.175 -0.9582 -1.1663 -3.9316
    4SAPS  C216  468   1.879   4.049   9.012  0.0563  0.1863 -0.0813
    4SAPS  H16R  469   1.918   4.144   8.969  0.7501  0.2036  0.5718
    4SAPS  H16S  470   1.774   4.079   9.031 -0.2852 -0.2880 -1.1479
    4SAPS  C217  471   1.879   3.943   8.901 -0.2392 -0.3093 -0.5058
    4SAPS  H17R  472   1.848   3.848   8.951  0.7680  0.1386  1.0617
    4SAPS  H17S  473   1.985   3.929   8.872  0.3589  2.0130  0.3306
    4SAPS  C218  474   1.773   3.966   8.790  0.2071  0.0703 -0.4267
    4SAPS  H18R  475   1.778   4.075   8.768 -0.6164  0.1256 -0.3942
    4SAPS  H18S  476   1.674   3.966   8.841  1.3968  0.3456  2.0426
    4SAPS  C219  477   1.789   3.891   8.667 -0.1690  0.5373  0.8687
    4SAPS  H19R  478   1.785   3.784   8.697 -0.8617  0.3419  0.1068
    4SAPS  H19S  479   1.889   3.913   8.625 -0.7311  0.4872 -0.5429
    4SAPS  C220  480   1.686   3.918   8.564 -0.1325  0.3539 -0.1237
    4SAPS  H20R  481   1.715   3.890   8.461 -1.6061  2.4349 -1.1831
    4SAPS  H20S  482   1.653   4.024   8.559  0.2694  1.1674  6.2793
    4SAPS  H20T  483   1.592   3.862   8.584  1.1359 -1.8795 -0.1023
    4SAPS   C33  484   1.451   4.324  10.018 -0.2391 -0.3843  0.0990
    4SAPS   H3X  485   1.506   4.420  10.009  2.5156 -1.9873 -1.0856
    4SAPS   H3Y  486   1.348   4.363  10.034 -1.1702 -1.6043 -2.4147
    4SAPS   C34  487   1.471   4.265   9.879 -0.1452  0.4239 -0.2912
    4SAPS   H4X  488   1.581   4.246   9.879 -0.3322 -0.8521  0.6560
    4SAPS   H4Y  489   1.454   4.326   9.788 -0.7856 -1.4270 -1.4719
    4SAPS   C35  490   1.413   4.117   9.864  0.7793  0.0008 -0.1383
    4SAPS   H5X  491   1.303   4.116   9.879  0.5365  1.4270 -1.5044
    4SAPS   H5Y  492   1.462   4.062   9.947  1.0174 -0.2477 -0.4394
    4SAPS   C36  493   1.435   4.056   9.727 -0.9782 -0.0894 -0.6072
    4SAPS   H6X  494   1.374   4.109   9.651 -0.6313 -2.0031 -2.3225
    4SAPS   H6Y  495   1.402   3.950   9.737  0.8484 -0.6060  0.4454
    4SAPS   C37  496   1.582   4.058   9.678 -0.2515  0.0432  0.0350
    4SAPS   H7X  497   1.646   4.012   9.756  0.0445 -1.6075 -1.1305
    4SAPS   H7Y  498   1.618   4.163   9.676 -1.5277  0.5883  2.1591
    4SAPS   C38  499   1.605   3.984   9.553  0.0393  0.0373 -0.4563
    4SAPS   H8X  500   1.561   3.883   9.563 -1.6192  0.7937  0.3632
    4SAPS   H8Y  501   1.716   3.980   9.545  0.1297  2.0887 -0.9487
    4SAPS   C39  502   1.547   4.058   9.424 -0.6321 -0.1069  0.4075
    4SAPS   H9X  503   1.444   4.020   9.413 -0.4338 -0.6039  0.2127
    4SAPS   H9Y  504   1.590   4.015   9.331 -1.1306  0.4814 -0.1006
    4SAPS  C310  505   1.556   4.208   9.421 -0.2254  0.6941  0.4128
    4SAPS  H10X  506   1.660   4.243   9.404  0.4134 -0.6545  1.3609
    4SAPS  H10Y  507   1.514   4.251   9.514 -1.4184  0.2167  0.1148
    4SAPS  C311  508   1.464   4.276   9.316 -0.0134  0.3096 -0.1018
    4SAPS  H11X  509   1.488   4.385   9.315 -1.7265  0.7342  0.8013
    4SAPS  H11Y  510   1.357   4.277   9.345  0.1223  0.6493  0.4151
    4SAPS  C312  511   1.471   4.202   9.184  0.0195  0.1479  0.0205
    4SAPS  H12X  512   1.442   4.095   9.191  1.1077 -0.3258 -1.9075
    4SAPS  H12Y  513   1.576   4.194   9.148 -0.0233 -2.3947  0.2336
    4SAPS  C313  514   1.388   4.272   9.076 -0.1733 -0.4053 -0.1426
    4SAPS  H13X  515   1.431   4.367   9.039  0.4391 -1.0528 -1.1363
    4SAPS  H13Y  516   1.285   4.298   9.109 -0.1618 -0.2946 -0.1939
    4SAPS  C314  517   1.406   4.195   8.944  0.4648  0.1084  0.7383
    4SAPS  H14X  518   1.365   4.092   8.955 -0.1822  0.4333  1.4552
    4SAPS  H14Y  519   1.515   4.178   8.927  0.2284  0.6836 -1.7909
    4SAPS  C315  520   1.347   4.266   8.824  0.1414  0.0807 -0.1131
    4SAPS  H15X  521   1.405   4.357   8.799  3.2251 -1.8116 -0.3419
    4SAPS  H15Y  522   1.246   4.303   8.855  0.1457  0.0180 -0.0222
    4SAPS  C316  523   1.329   4.188   8.693  0.3109  0.7287 -1.0675
    4SAPS  H16X  524   1.430   4.152   8.663 -0.3142 -2.4005  0.1746
    4SAPS  H16Y  525   1.298   4.261   8.615  0.5394  1.9685 -0.0411
    4SAPS  C317  526   1.237   4.065   8.713  0.4027 -0.1527 -0.6566
    4SAPS  H17X  527   1.132   4.102   8.717  0.9914  1.5712 -0.1542
    4SAPS  H17Y  528   1.254   4.014   8.810 -0.6135  1.4068  0.3920
    4SAPS  C318  529   1.253   3.959   8.596 -0.3670  0.4614 -0.5719
    4SAPS  H18X  530   1.359   3.935   8.575 -0.8532 -1.4879 -0.9805
    4SAPS  H18Y  531   1.225   4.005   8.499  1.2147 -1.7535 -2.1752
    4SAPS  H18Z  532   1.199   3.862   8.607  2.9174 -1.2835  2.6005
    5SAPS     N  533   5.402   2.669  10.914 -0.8478  0.2371  0.2763
    5SAPS   HN1  534   5.401   2.566  10.899  0.5040  0.0576  1.2718
    5SAPS   HN2  535   5.315   2.707  10.957 -1.3702  0.5951 -1.0376
    5SAPS   HN3  536   5.423   2.725  10.829 -0.0355  2.4182  1.8238
    5SAPS   C12  537   5.510   2.693  11.012  0.4240 -0.2952  0.0724
    5SAPS  H12A  538   5.524   2.800  11.012 -0.6794 -0.1304  1.6528
    5SAPS   C13  539   5.473   2.660  11.158 -0.8495  0.3556  1.0500
    5SAPS  O13A  540   5.380   2.574  11.178 -0.1507  0.0584  0.1058
    5SAPS  O13B  541   5.551   2.685  11.249 -1.1401 -0.0055  0.8363
    5SAPS   C11  542   5.631   2.611  10.971  0.3541 -0.1589 -0.4833
    5SAPS  H11A  543   5.708   2.630  11.049 -0.3890  0.7225  0.0536
    5SAPS  H11B  544   5.667   2.649  10.872  1.3270  0.5588  0.1234
    5SAPS     P  545   5.555   2.367  10.873  0.1903 -0.0942  0.0470
    5SAPS   O13  546   5.599   2.234  10.919  0.1298 -0.5379 -0.3829
    5SAPS   O14  547   5.411   2.395  10.859  0.5093 -0.4043  0.7778
    5SAPS   O12  548   5.612   2.469  10.977 -0.1219  0.0907  0.2078
    5SAPS   O11  549   5.633   2.419  10.744 -0.1838  0.8362 -0.6047
    5SAPS    C1  550   5.565   2.494  10.642  0.5123  0.1021  0.0865
    5SAPS    HA  551   5.459   2.519  10.664  0.7706  1.2609  0.0902
    5SAPS    HB  552   5.613   2.593  10.625  0.2512  0.8980  3.3190
    5SAPS    C2  553   5.568   2.429  10.504 -0.5429 -0.4530 -0.2030
    5SAPS    HS  554   5.515   2.333  10.518  0.3717 -0.9105  0.2194
    5SAPS   O21  555   5.705   2.426  10.457  0.1443 -0.6918 -0.0064
    5SAPS   C21  556   5.766   2.308  10.494 -0.0450  0.0366 -1.1954
    5SAPS   O22  557   5.717   2.224  10.566 -0.1512  0.7128  0.5444
    5SAPS   C22  558   5.909   2.310  10.458 -0.7862 -0.2341 -0.1396
    5SAPS   H2R  559   5.939   2.409  10.498 -1.4961  0.4090 -1.1534
    5SAPS   H2S  560   5.964   2.230  10.512 -1.0272 -1.1754 -1.2438
    5SAPS    C3  561   5.488   2.513  10.406  0.3426 -0.1126  0.0613
    5SAPS    HX  562   5.543   2.606  10.383 -2.4603  1.7722  0.4611
    5SAPS    HY  563   5.396   2.551  10.456 -1.9546 -1.3350 -2.9279
    5SAPS   O31  564   5.449   2.435  10.290  0.0473 -0.2818 -0.5743
    5SAPS   C31  565   5.323   2.386  10.285 -0.6387 -0.4845 -0.3479
    5SAPS   O32  566   5.237   2.416  10.366 -0.2490 -0.3406 -0.3562
    5SAPS   C32  567   5.313   2.281  10.176  0.5804  0.2496  0.5473
    5SAPS   H2X  568   5.239   2.203  10.202 -0.4017  0.8156 -0.4938
    5SAPS   H2Y  569   5.413   2.234  10.170  0.3387 -0.2694  0.5939
    5SAPS   C23  570   5.932   2.316  10.308 -0.5012  0.0384  0.1710
    5SAPS   H3R  571   6.033   2.361  10.300  0.0602 -1.3081 -0.6183
    5SAPS   H3S  572   5.863   2.387  10.259  0.2375  0.1697 -0.6946
    5SAPS   C24  573   5.933   2.170  10.250 -0.3210 -0.1804 -0.2706
    5SAPS   H4R  574   5.999   2.103  10.309  0.5747  1.0483  0.1584
    5SAPS   H4S  575   5.978   2.179  10.149  0.2867 -0.6020 -0.0407
    5SAPS   C25  576   5.793   2.118  10.241  0.3371  0.1957  0.1959
    5SAPS   H5R  577   5.759   2.065  10.330 -0.3060 -1.1769 -0.8321
    5SAPS   C26  578   5.713   2.127  10.133  0.9209  0.2073 -0.7814
    5SAPS   H6R  579   5.613   2.083  10.143  1.4421 -0.4275  4.8618
    5SAPS   C27  580   5.738   2.196  10.003  0.4289  0.3314  0.0375
    5SAPS   H7R  581   5.672   2.155   9.923 -0.6019  0.6078  0.7292
    5SAPS   H7S  582   5.838   2.160   9.971  0.5923  1.1390 -0.3818
    5SAPS   C28  583   5.724   2.344   9.999 -0.3796  0.4613 -0.1332
    5SAPS   H8R  584   5.696   2.388  10.095 -1.0991 -0.7801  0.2446
    5SAPS   C29  585   5.757   2.416   9.888  0.1041  0.0723 -0.1654
    5SAPS   H9R  586   5.725   2.521   9.902  0.4197 -0.0772  2.0930
    5SAPS  C210  587   5.802   2.361   9.757  0.5076 -0.8823 -0.1420
    5SAPS  H10R  588   5.863   2.268   9.766 -0.3721 -1.2568  3.0351
    5SAPS  H10S  589   5.853   2.436   9.693 -1.7157  2.3712  1.6370
    5SAPS  C211  590   5.677   2.326   9.675 -0.2150 -1.0714 -0.6838
    5SAPS  H11R  591   5.584   2.335   9.732  0.3030  1.3928 -0.1001
    5SAPS  C212  592   5.671   2.282   9.551  0.1485  0.5097 -0.2310
    5SAPS  H12R  593   5.575   2.254   9.504  0.1838 -1.9250  0.9967
    5SAPS  C213  594   5.779   2.271   9.449 -0.0230 -0.4745  0.5948
    5SAPS  H13R  595   5.805   2.163   9.451 -0.0230 -0.4752  2.3773
    5SAPS  H13S  596   5.869   2.325   9.483 -1.1499  1.8951 -0.0158
    5SAPS  C214  597   5.748   2.301   9.307  0.3630  0.7008  0.5823
    5SAPS  H14R  598   5.655   2.355   9.284  0.1443 -0.0991 -0.4751
    5SAPS  C215  599   5.822   2.262   9.200  0.9793 -0.2608 -0.6831
    5SAPS  H15R  600   5.780   2.272   9.099 -0.9078  0.5627  0.1287
    5SAPS  C216  601   5.945   2.183   9.204 -0.1637  0.7209 -0.2884
    5SAPS  H16R  602   5.908   2.082   9.230  0.9986  0.6867  1.3711
    5SAPS  H16S  603   5.999   2.214   9.296  0.9938  0.3459 -0.8335
    5SAPS  C217  604   6.018   2.173   9.077  0.1472  0.9188  0.2206
    5SAPS  H17R  605   6.063   2.272   9.053 -1.0034  1.6454  0.9999
    5SAPS  H17S  606   5.944   2.134   9.005  0.3417 -0.4031  0.7137
    5SAPS  C218  607   6.135   2.078   9.111 -0.4276  0.2527 -0.0794
    5SAPS  H18R  608   6.192   2.099   9.203 -0.5950  1.0772 -0.1573
    5SAPS  H18S  609   6.082   1.982   9.129 -1.0863  0.1646 -2.1715
    5SAPS  C219  610   6.239   2.056   9.006  0.6332 -0.4748  0.1042
    5SAPS  H19R  611   6.330   2.015   9.055  0.5183  1.2529  1.9378
    5SAPS  H19S  612   6.265   2.149   8.950  0.7169 -2.0035 -2.5257
    5SAPS  C220  613   6.186   1.975   8.891  0.5068  0.6359  0.5382
    5SAPS  H20R  614   6.119   2.040   8.831  2.2714  0.1033 -2.2138
    5SAPS  H20S  615   6.139   1.885   8.936 -1.9509  1.8768  0.6142
    5SAPS  H20T  616   6.273   1.956   8.824  0.6838  0.6042  0.7763
    5SAPS   C33  617   5.281   2.322  10.029  0.2364 -0.0653  0.6262
    5SAPS   H3X  618   5.356   2.392   9.988 -1.0785  0.6569 -0.6448
    5SAPS   H3Y  619   5.181   2.369  10.036  0.2197 -0.0940  0.5817
    5SAPS   C34  620   5.261   2.195   9.934  0.2897 -0.4526  0.3772
    5SAPS   H4X  621   5.169   2.143   9.968 -1.1699  0.6521 -1.6140
    5SAPS   H4Y  622   5.357   2.140   9.942 -0.7906 -2.3876  0.6242
    5SAPS   C35  623   5.252   2.243   9.789 -0.1777  0.0116  0.0157
    5SAPS   H5X  624   5.252   2.159   9.715  3.3605  0.2417 -0.4294
    5SAPS   H5Y  625   5.349   2.291   9.764  0.0400 -0.5627 -0.2885
    5SAPS   C36  626   5.134   2.329   9.757  0.0776 -0.5175 -0.0647
    5SAPS   H6X  627   5.145   2.425   9.810 -0.8747  0.0434 -0.8399
    5SAPS   H6Y  628   5.042   2.281   9.798  1.0889 -0.5861  2.3048
    5SAPS   C37  629   5.106   2.354   9.613  0.1266 -0.0967 -0.1036
    5SAPS   H7X  630   4.999   2.384   9.610 -0.0993 -0.9344 -0.8482
    5SAPS   H7Y  631   5.102   2.266   9.546 -0.4243  0.5302 -0.9094
    5SAPS   C38  632   5.190   2.471   9.558 -0.0116  0.6514 -0.6571
    5SAPS   H8X  633   5.286   2.469   9.614  0.4364 -0.6998 -1.4262
    5SAPS   H8Y  634   5.135   2.561   9.592 -1.2776 -0.7266  1.1857
    5SAPS   C39  635   5.217   2.440   9.413  1.0710 -0.0880  0.1090
    5SAPS   H9X  636   5.123   2.444   9.353  0.2944  0.7033  1.3456
    5SAPS   H9Y  637   5.260   2.339   9.396 -0.0247 -0.8445  1.6471
    5SAPS  C310  638   5.321   2.535   9.349  0.0920  0.1274  0.3227
    5SAPS  H10X  639   5.418   2.534   9.402 -0.8436  0.3451  2.1009
    5SAPS  H10Y  640   5.272   2.634   9.359 -1.6844 -0.6717 -0.0834
    5SAPS  C311  641   5.355   2.493   9.204  0.0068  0.0068  0.6472
    5SAPS  H11X  642   5.268   2.505   9.136  2.0009  1.5483 -1.7697
    5SAPS  H11Y  643   5.368   2.383   9.199  1.8009  0.2112  0.1285
    5SAPS  C312  644   5.462   2.582   9.137  0.8874 -0.1664  0.0946
    5SAPS  H12X  645   5.543   2.615   9.205 -2.0234  1.5265  3.0820
    5SAPS  H12Y  646   5.406   2.678   9.126  1.9582  0.5170  0.5043
    5SAPS  C313  647   5.508   2.516   9.011  0.4126  0.1545 -0.3609
    5SAPS  H13X  648   5.452   2.544   8.919 -0.2701  2.3757  0.6519
    5SAPS  H13Y  649   5.503   2.408   9.034  1.1958  0.7737  3.2474
    5SAPS  C314  650   5.663   2.546   8.982  0.4687  0.0661 -0.3322
    5SAPS  H14X  651   5.731   2.514   9.065  1.6013  1.8188 -0.5233
    5SAPS  H14Y  652   5.676   2.654   8.962  0.0096  0.4719  1.3851
    5SAPS  C315  653   5.718   2.462   8.862  0.7361 -0.0837  0.4188
    5SAPS  H15X  654   5.677   2.496   8.764  0.4184  0.2578  0.6660
    5SAPS  H15Y  655   5.704   2.354   8.883 -1.5074 -0.3509 -1.9899
    5SAPS  C316  656   5.863   2.494   8.848 -0.0150 -0.2893  0.5136
    5SAPS  H16X  657   5.930   2.460   8.930  2.1572  1.8007 -0.2661
    5SAPS  H16Y  658   5.876   2.604   8.848 -1.2233 -0.1282  0.1884
    5SAPS  C317  659   5.927   2.445   8.716 -0.4672 -0.4363  0.0139
    5SAPS  H17X  660   5.990   2.518   8.660 -1.1814  1.0429  1.0533
    5SAPS  H17Y  661   5.842   2.429   8.646  0.2968 -1.2581 -0.7445
    5SAPS  C318  662   6.001   2.314   8.738  0.2762  0.0494  0.8373
    5SAPS  H18X  663   6.097   2.347   8.784 -0.6990  2.3930  1.3778
    5SAPS  H18Y  664   6.024   2.252   8.649 -1.9535 -0.6641  0.6818
    5SAPS  H18Z  665   5.933   2.247   8.796 -1.0163  0.0199 -0.6475
    6SAPS     N  666   4.968   2.679  10.847  0.0468  0.0231 -0.0787
    6SAPS   HN1  667   4.877   2.646  10.809 -1.8315 -0.7750  4.3891
    6SAPS   HN2  668   5.037   2.688  10.770  0.1309 -0.3736 -0.0506
    6SAPS   HN3  669   4.990   2.610  10.922 -3.1276  1.0924  2.0898
    6SAPS   C12  670   4.944   2.806  10.914 -0.2788  0.2168  0.0833
    6SAPS  H12A  671   4.881   2.784  10.999  0.0702  1.0577  0.5798
    6SAPS   C13  672   5.068   2.879  10.976  0.1404  0.2900  0.3471
    6SAPS  O13A  673   5.183   2.827  10.964  0.1053 -0.8100  0.0747
    6SAPS  O13B  674   5.052   2.989  11.033  0.5120 -1.0549 -0.4876
    6SAPS   C11  675   4.867   2.909  10.814  0.1448 -0.0531  0.5808
    6SAPS  H11A  676   4.929   2.924  10.723 -0.5016 -1.0394 -0.0340
    6SAPS  H11B  677   4.853   3.007  10.864  1.3213 -0.2180  1.2912
    6SAPS     P  678   4.706   2.803  10.640  0.0618 -0.1084  0.1898
    6SAPS   O13  679   4.810   2.700  10.609 -0.1544 -0.4484  0.0429
    6SAPS   O14  680   4.570   2.757  10.622 -0.0456  0.0672  0.2731
    6SAPS   O12  681   4.741   2.842  10.791  0.3193  0.3762  0.8465
    6SAPS   O11  682   4.724   2.936  10.555 -0.0944 -0.5195  0.4559
    6SAPS    C1  683   4.660   3.057  10.601  0.3617  0.4778 -0.0495
    6SAPS    HA  684   4.602   3.051  10.695  0.3288  0.4177 -0.0733
    6SAPS    HB  685   4.739   3.134  10.614  0.3426  0.1294  2.6222
    6SAPS    C2  686   4.561   3.115  10.495 -0.1909  0.3236 -0.1295
    6SAPS    HS  687   4.486   3.033  10.494  0.0605  0.0504  1.2163
    6SAPS   O21  688   4.626   3.146  10.372 -0.1404  0.4960 -0.1797
    6SAPS   C21  689   4.631   3.050  10.281 -0.1629 -0.2246 -0.0897
    6SAPS   O22  690   4.565   2.949  10.282  0.1113  0.0944  0.4868
    6SAPS   C22  691   4.733   3.080  10.183 -0.5893 -0.3372 -0.3188
    6SAPS   H2R  692   4.703   3.172  10.128 -0.0323 -0.1333 -0.2969
    6SAPS   H2S  693   4.833   3.102  10.228 -0.2364  1.6584 -1.8996
    6SAPS    C3  694   4.486   3.238  10.541  0.2229 -0.3937  0.9002
    6SAPS    HX  695   4.547   3.329  10.554  0.5898 -0.7177  1.4861
    6SAPS    HY  696   4.445   3.209  10.640 -0.5791 -1.6751  0.2170
    6SAPS   O31  697   4.381   3.281  10.443  0.1629 -0.5260 -0.2649
    6SAPS   C31  698   4.275   3.206  10.432  0.2897  0.3085  0.3793
    6SAPS   O32  699   4.248   3.115  10.509 -0.3214 -0.1918 -0.2509
    6SAPS   C32  700   4.189   3.252  10.315  0.1947 -0.2013 -0.1877
    6SAPS   H2X  701   4.184   3.362  10.320 -0.1064 -0.1350 -1.5454
    6SAPS   H2Y  702   4.083   3.232  10.339 -0.0304 -1.0399 -1.7764
    6SAPS   C23  703   4.745   2.979  10.064  0.5509 -0.2775 -0.3598
    6SAPS   H3R  704   4.638   2.967  10.038  0.9806  1.5298 -3.3157
    6SAPS   H3S  705   4.792   2.885  10.101  0.8939  0.3629  0.9090
    6SAPS   C24  706   4.813   3.032   9.942 -0.3290  0.1596  0.8517
    6SAPS   H4R  707   4.787   3.135   9.912  1.4263 -0.4161 -3.2541
    6SAPS   H4S  708   4.793   2.979   9.847  0.3410  2.5447 -0.6970
    6SAPS   C25  709   4.960   3.050   9.968 -0.1463  0.3775 -0.4153
    6SAPS   H5R  710   4.995   3.027  10.070  0.6561 -0.3157 -0.8306
    6SAPS   C26  711   5.049   3.076   9.874 -0.2623  0.1298  0.1027
    6SAPS   H6R  712   5.154   3.100   9.897  0.6238 -2.1400 -1.2653
    6SAPS   C27  713   5.010   3.104   9.730  0.4692  0.5369  0.0267
    6SAPS   H7R  714   5.010   3.213   9.711  1.7175  0.2103 -2.1134
    6SAPS   H7S  715   4.907   3.072   9.702  0.4820  0.0087  0.5570
    6SAPS   C28  716   5.103   3.038   9.634  0.6640  0.7844  0.2114
    6SAPS   H8R  717   5.140   2.941   9.670 -0.9925 -0.1859 -0.6233
    6SAPS   C29  718   5.146   3.084   9.516  0.0979  0.2332  0.1032
    6SAPS   H9R  719   5.208   3.019   9.453  0.9825 -0.0786  1.2600
    6SAPS  C210  720   5.108   3.218   9.451  0.5669  0.2617  0.5201
    6SAPS  H10R  721   5.181   3.248   9.374  0.9026 -2.3109 -0.2789
    6SAPS  H10S  722   5.105   3.291   9.535 -0.4487 -0.0497  0.7792
    6SAPS  C211  723   4.965   3.225   9.396 -0.2672 -0.6166  0.1679
    6SAPS  H11R  724   4.885   3.173   9.451  0.0501 -1.1548  0.1265
    6SAPS  C212  725   4.928   3.285   9.278 -0.2523 -0.3253  0.0852
    6SAPS  H12R  726   4.826   3.275   9.238 -0.5046  2.5534 -0.2432
    6SAPS  C213  727   5.014   3.356   9.175  0.1003 -0.7850  0.5360
    6SAPS  H13R  728   5.120   3.323   9.183  0.7329  1.3426  1.9940
    6SAPS  H13S  729   5.016   3.464   9.203 -1.4872 -0.3784 -0.8185
    6SAPS  C214  730   4.972   3.350   9.030 -0.0032 -0.2837  0.2347
    6SAPS  H14R  731   4.872   3.308   9.011  0.6445 -1.3365 -1.0003
    6SAPS  C215  732   5.055   3.381   8.928  0.8587  0.0951 -0.6945
    6SAPS  H15R  733   5.015   3.373   8.826 -1.1664 -1.0262  0.1309
    6SAPS  C216  734   5.195   3.429   8.931 -0.2915 -0.8516 -0.2340
    6SAPS  H16R  735   5.244   3.400   9.026  0.5047 -1.5334 -0.8378
    6SAPS  H16S  736   5.199   3.540   8.921  1.1064 -0.5005  2.8838
    6SAPS  C217  737   5.288   3.360   8.819  0.0112 -0.2258 -0.4033
    6SAPS  H17R  738   5.314   3.254   8.841  2.2557  0.0075 -1.6724
    6SAPS  H17S  739   5.378   3.425   8.819 -0.0785 -0.0668 -1.6448
    6SAPS  C218  740   5.238   3.374   8.679  0.4245 -0.5444  0.2040
    6SAPS  H18R  741   5.193   3.475   8.678  0.9308 -0.3157  0.3316
    6SAPS  H18S  742   5.155   3.302   8.658 -0.5894  0.7097 -0.1845
    6SAPS  C219  743   5.335   3.354   8.574  0.6428 -0.6643  0.3580
    6SAPS  H19R  744   5.370   3.255   8.611 -0.1000 -1.8348 -1.9115
    6SAPS  H19S  745   5.420   3.425   8.584 -1.3219  2.8788 -4.4039
    6SAPS  C220  746   5.270   3.371   8.437 -0.3884 -0.4304  0.2211
    6SAPS  H20R  747   5.346   3.339   8.362  0.1195 -0.1264  0.5988
    6SAPS  H20S  748   5.236   3.474   8.416  0.5382 -0.4097 -1.3011
    6SAPS  H20T  749   5.184   3.302   8.428 -0.7167 -0.1039  0.8114
    6SAPS   C33  750   4.234   3.212  10.170  0.4383 -0.2638  0.6255
    6SAPS   H3X  751   4.145   3.227  10.105  1.0535  0.6580 -0.0344
    6SAPS   H3Y  752   4.253   3.103  10.166  2.6244 -0.0508  3.0043
    6SAPS   C34  753   4.358   3.282  10.109  0.5245  0.0043  0.2191
    6SAPS   H4X  754   4.448   3.271  10.174  0.2037 -0.3208  0.6177
    6SAPS   H4Y  755   4.337   3.390  10.094 -1.7264 -0.4805 -0.5086
    6SAPS   C35  756   4.394   3.230   9.973 -0.4304 -0.1172  0.1400
    6SAPS   H5X  757   4.312   3.240   9.899 -0.9749  0.8372  0.8450
    6SAPS   H5Y  758   4.420   3.122   9.985 -1.1409 -0.1692  1.4390
    6SAPS   C36  759   4.520   3.297   9.916  0.4529  0.5741  0.4163
    6SAPS   H6X  760   4.607   3.263   9.975  0.2117  1.7228  1.4922
    6SAPS   H6Y  761   4.520   3.407   9.935 -1.3328  0.7623 -0.3804
    6SAPS   C37  762   4.514   3.269   9.768  0.4648 -0.2452 -0.1097
    6SAPS   H7X  763   4.421   3.314   9.727  2.0972  0.5450 -3.2891
    6SAPS   H7Y  764   4.515   3.161   9.739 -1.0438 -0.3461  0.1257
    6SAPS   C38  765   4.633   3.332   9.687 -0.9347  0.1724 -0.3683
    6SAPS   H8X  766   4.723   3.294   9.740 -0.0707  0.9973 -1.1999
    6SAPS   H8Y  767   4.620   3.442   9.690 -1.0711  0.1766 -0.9567
    6SAPS   C39  768   4.640   3.289   9.542 -0.6526 -0.9472 -0.5175
    6SAPS   H9X  769   4.659   3.180   9.534  1.5589 -0.6568  0.0912
    6SAPS   H9Y  770   4.728   3.337   9.494 -0.5229 -2.6260 -2.0421
    6SAPS  C310  771   4.518   3.328   9.453 -0.3382 -0.5698  0.1713
    6SAPS  H10X  772   4.489   3.426   9.495 -2.0039 -0.9548 -0.0144
    6SAPS  H10Y  773   4.429   3.264   9.472 -1.8650  1.6274  0.7748
    6SAPS  C311  774   4.541   3.340   9.303  0.0237  0.1028 -0.2298
    6SAPS  H11X  775   4.555   3.239   9.258 -0.3329 -0.2678  0.4747
    6SAPS  H11Y  776   4.635   3.397   9.286  1.4626 -1.6598  1.3675
    6SAPS  C312  777   4.424   3.404   9.227  0.1530  0.2712 -0.0802
    6SAPS  H12X  778   4.397   3.503   9.269 -0.2120 -0.5916  1.8447
    6SAPS  H12Y  779   4.338   3.334   9.236  0.4497 -0.0935 -0.0577
    6SAPS  C313  780   4.456   3.419   9.078 -0.6823  0.0832 -0.9277
    6SAPS  H13X  781   4.458   3.320   9.028  1.8547 -0.3487 -0.1100
    6SAPS  H13Y  782   4.561   3.454   9.081  0.2828 -2.6595  0.1343
    6SAPS  C314  783   4.362   3.502   9.004 -0.4300 -0.4873 -0.1488
    6SAPS  H14X  784   4.373   3.607   9.040 -1.3010 -1.1338  2.1735
    6SAPS  H14Y  785   4.259   3.463   9.012 -1.1513  1.0538 -1.3581
    6SAPS  C315  786   4.385   3.501   8.847  0.3335  0.0832 -0.0078
    6SAPS  H15X  787   4.311   3.560   8.790 -0.3756 -0.0447  0.7642
    6SAPS  H15Y  788   4.369   3.395   8.817  0.9610 -0.6539  2.0758
    6SAPS  C316  789   4.530   3.530   8.803 -0.1387 -0.4546 -0.8547
    6SAPS  H16X  790   4.590   3.440   8.830 -1.2119 -1.3617 -1.4082
    6SAPS  H16Y  791   4.569   3.618   8.857  2.0417  0.4131 -3.5935
    6SAPS  C317  792   4.550   3.555   8.655  0.4612  0.5148 -0.1849
    6SAPS  H17X  793   4.657   3.541   8.629  0.1740  0.4330 -1.3641
    6SAPS  H17Y  794   4.519   3.655   8.618  0.0864  1.1157  1.6737
    6SAPS  C318  795   4.470   3.451   8.565  0.6423  0.1642 -0.5167
    6SAPS  H18X  796   4.497   3.345   8.582  0.4117  0.0742 -0.7103
    6SAPS  H18Y  797   4.497   3.487   8.464  3.5386 -0.1742  0.0314
    6SAPS  H18Z  798   4.363   3.457   8.593  0.5218  0.9604 -1.1196
    7SAPS     N  799   0.881   3.785  10.734  0.1633  0.0696 -0.4825
    7SAPS   HN1  800   0.893   3.815  10.635 -3.6481  2.2073 -0.4884
    7SAPS   HN2  801   0.956   3.716  10.757 -0.1748  0.0261  0.5356
    7SAPS   HN3  802   0.796   3.726  10.729 -0.1920  0.6926 -3.3468
    7SAPS   C12  803   0.872   3.901  10.835 -0.4517 -0.3974 -0.0669
    7SAPS  H12A  804   0.782   3.960  10.829  0.7747  1.5248 -0.4575
    7SAPS   C13  805   0.888   3.856  10.987  0.6695  0.3350 -0.3463
    7SAPS  O13A  806   0.862   3.741  11.024 -0.2399 -0.1087 -0.2470
    7SAPS  O13B  807   0.885   3.944  11.074 -0.0067  0.3295  0.3141
    7SAPS   C11  808   0.992   4.001  10.805  0.1399  0.6548 -0.9535
    7SAPS  H11A  809   1.082   3.958  10.854 -1.2638  1.0299  2.2491
    7SAPS  H11B  810   0.975   4.100  10.853 -1.0247 -0.6853  1.6160
    7SAPS     P  811   1.146   4.106  10.616 -0.0571 -0.4071 -0.2490
    7SAPS   O13  812   1.123   4.253  10.641 -0.3562 -0.1247 -0.5908
    7SAPS   O14  813   1.269   4.047  10.674  0.1792 -0.1352 -0.2729
    7SAPS   O12  814   1.014   4.024  10.666  0.3750 -0.1817 -0.1661
    7SAPS   O11  815   1.153   4.089  10.465  0.5155  0.3534 -0.2227
    7SAPS    C1  816   1.037   4.065  10.394 -0.5095  0.2753 -0.0811
    7SAPS    HA  817   1.004   3.960  10.410 -3.7481  1.4661  1.8340
    7SAPS    HB  818   0.958   4.139  10.419  1.1349  1.7469  1.0324
    7SAPS    C2  819   1.068   4.094  10.243  0.7135 -0.2050 -0.5848
    7SAPS    HS  820   0.971   4.083  10.190  0.1371 -0.6993  0.5425
    7SAPS   O21  821   1.178   4.010  10.199  0.4078  0.5218  0.5963
    7SAPS   C21  822   1.142   3.881  10.180  0.0463 -0.1823 -0.2187
    7SAPS   O22  823   1.030   3.838  10.198  0.6453  0.1937  0.0984
    7SAPS   C22  824   1.258   3.795  10.133 -0.3172  1.4757 -0.2562
    7SAPS   H2R  825   1.354   3.850  10.123  1.1375 -1.0537 -1.1979
    7SAPS   H2S  826   1.289   3.716  10.206  0.6924  0.3071 -1.8902
    7SAPS    C3  827   1.104   4.243  10.218 -0.6804 -0.3166 -0.0495
    7SAPS    HX  828   1.198   4.261  10.273 -0.5424  1.1121 -0.7106
    7SAPS    HY  829   1.032   4.318  10.258  1.1770  0.9890  0.9757
    7SAPS   O31  830   1.124   4.254  10.074  0.2153 -0.1075 -0.0514
    7SAPS   C31  831   1.017   4.262  10.000 -0.4910 -0.7877 -0.0993
    7SAPS   O32  832   0.904   4.282  10.041  0.9750 -0.2065 -0.7829
    7SAPS   C32  833   1.046   4.237   9.856 -0.3763 -0.4739  0.0351
    7SAPS   H2X  834   1.056   4.129   9.834 -0.2760 -0.6834  1.0524
    7SAPS   H2Y  835   1.140   4.295   9.840 -0.8703  0.4353  0.3817
    7SAPS   C23  836   1.218   3.710  10.011 -0.5789  0.2358 -0.1991
    7SAPS   H3R  837   1.188   3.765   9.919  1.0890 -0.4172 -1.1918
    7SAPS   H3S  838   1.142   3.641  10.054 -3.2714  1.9224 -1.9655
    7SAPS   C24  839   1.333   3.623   9.954 -0.0031 -0.4153 -0.9208
    7SAPS   H4R  840   1.401   3.587  10.034  1.4024 -1.9695 -2.7326
    7SAPS   H4S  841   1.395   3.693   9.893  1.2078  0.6753  1.4037
    7SAPS   C25  842   1.293   3.512   9.869  0.3710 -0.7381 -0.7937
    7SAPS   H5R  843   1.215   3.452   9.917 -1.1023  1.2380 -0.6025
    7SAPS   C26  844   1.329   3.487   9.743 -0.6420 -0.2764  0.2777
    7SAPS   H6R  845   1.308   3.393   9.690  2.0615 -0.7602 -0.0884
    7SAPS   C27  846   1.444   3.559   9.679 -0.0654 -0.4580  0.1428
    7SAPS   H7R  847   1.490   3.501   9.596 -0.4726 -0.1708 -0.2916
    7SAPS   H7S  848   1.527   3.589   9.746 -0.1072 -0.6203  0.2680
    7SAPS   C28  849   1.386   3.682   9.610  0.4617 -0.2387  0.1076
    7SAPS   H8R  850   1.323   3.747   9.672  0.5743 -0.4366  0.4376
    7SAPS   C29  851   1.390   3.717   9.482  0.1905  0.4592  0.5238
    7SAPS   H9R  852   1.332   3.806   9.453  1.9469  1.1438 -1.0791
    7SAPS  C210  853   1.465   3.643   9.369 -1.0616  0.2726  0.7750
    7SAPS  H10R  854   1.385   3.582   9.322  0.9125 -1.4615 -0.5006
    7SAPS  H10S  855   1.535   3.570   9.415 -0.5237  0.2338 -0.0954
    7SAPS  C211  856   1.531   3.731   9.260 -0.3409  0.0041 -0.0385
    7SAPS  H11R  857   1.630   3.765   9.295 -1.1758  1.5749  0.9040
    7SAPS  C212  858   1.483   3.755   9.132 -1.0837 -0.4712 -0.6146
    7SAPS  H12R  859   1.541   3.811   9.057  1.8796 -2.3115  0.1113
    7SAPS  C213  860   1.358   3.694   9.074 -0.1998 -0.3657 -0.2375
    7SAPS  H13R  861   1.271   3.747   9.118  0.1330  0.3535 -0.4363
    7SAPS  H13S  862   1.340   3.592   9.116 -2.6998  0.1239  0.0543
    7SAPS  C214  863   1.350   3.681   8.922 -0.5115  0.6553 -0.4643
    7SAPS  H14R  864   1.446   3.648   8.879  0.4023  2.3927  0.1619
    7SAPS  C215  865   1.245   3.712   8.849  0.3730  0.0203  0.2213
    7SAPS  H15R  866   1.252   3.694   8.740 -2.1998 -0.7548  0.1134
    7SAPS  C216  867   1.106   3.765   8.892  0.5001  0.0149  0.4687
    7SAPS  H16R  868   1.069   3.861   8.850  1.3953  0.1677  0.0051
    7SAPS  H16S  869   1.087   3.784   9.000 -2.3080 -0.0019  0.0578
    7SAPS  C217  870   1.009   3.657   8.847 -0.0054 -0.5391  0.5933
    7SAPS  H17R  871   1.026   3.558   8.895 -1.5364 -0.7600  0.7303
    7SAPS  H17S  872   1.014   3.636   8.738  0.4826  0.8223  0.3412
    7SAPS  C218  873   0.857   3.695   8.862 -0.2304  0.5406  1.0851
    7SAPS  H18R  874   0.832   3.696   8.970  0.5086  2.7805  1.2953
    7SAPS  H18S  875   0.808   3.605   8.820 -0.7098  0.1771  2.3792
    7SAPS  C219  876   0.812   3.816   8.785  0.1040  0.7201 -0.2417
    7SAPS  H19R  877   0.863   3.829   8.688 -1.1123 -2.4624 -1.4760
    7SAPS  H19S  878   0.826   3.904   8.851 -0.2973  1.5933 -1.3016
    7SAPS  C220  879   0.661   3.808   8.746  0.5764 -0.3370 -0.2443
    7SAPS  H20R  880   0.608   3.747   8.822  1.7030 -0.1181  0.7500
    7SAPS  H20S  881   0.647   3.770   8.643 -2.9193 -0.1955  0.0536
    7SAPS  H20T  882   0.613   3.908   8.748  1.7051  0.2124  1.1084
    7SAPS   C33  883   0.930   4.281   9.762  0.2426  0.1606 -0.2170
    7SAPS   H3X  884   0.889   4.380   9.792  1.1537  0.1357  1.1830
    7SAPS   H3Y  885   0.851   4.203   9.772 -0.0822  0.5808  0.5730
    7SAPS   C34  886   0.974   4.302   9.619 -0.4803  0.2788 -0.2210
    7SAPS   H4X  887   1.064   4.367   9.612  0.1471 -0.5938 -0.4709
    7SAPS   H4Y  888   0.897   4.345   9.551  1.2155  2.5398 -0.8420
    7SAPS   C35  889   1.004   4.166   9.546 -0.7086  0.2721  0.2425
    7SAPS   H5X  890   0.911   4.104   9.542 -0.1272 -0.6081  0.0334
    7SAPS   H5Y  891   1.076   4.108   9.608  1.3315  2.0592 -0.3246
    7SAPS   C36  892   1.060   4.176   9.403  0.4505 -0.0158  0.3967
    7SAPS   H6X  893   1.167   4.195   9.426 -0.1171  2.6163  1.1766
    7SAPS   H6Y  894   1.015   4.267   9.358 -0.6685  0.1264  1.7088
    7SAPS   C37  895   1.033   4.048   9.324  0.0137  0.8850  1.0483
    7SAPS   H7X  896   0.922   4.045   9.328 -0.1088  3.3086  0.6930
    7SAPS   H7Y  897   1.071   3.959   9.378 -0.6035  0.1910  0.3604
    7SAPS   C38  898   1.081   4.056   9.177  0.7187 -0.4917  1.1917
    7SAPS   H8X  899   1.054   3.962   9.124  1.1736 -0.4423  0.8710
    7SAPS   H8Y  900   1.189   4.078   9.188  0.8839 -0.2483 -0.6482
    7SAPS   C39  901   1.022   4.163   9.089  0.0780 -0.2953 -0.4545
    7SAPS   H9X  902   1.088   4.188   9.003 -0.7851  1.2709 -0.7058
    7SAPS   H9Y  903   1.027   4.257   9.150  1.4481  1.1804 -2.6841
    7SAPS  C310  904   0.879   4.140   9.040 -0.6520 -0.0793 -0.6028
    7SAPS  H10X  905   0.808   4.112   9.121  0.8721  0.8549  1.1379
    7SAPS  H10Y  906   0.873   4.055   8.969  0.1689  0.6372 -1.5599
    7SAPS  C311  907   0.826   4.256   8.955  0.6355  0.3171  0.3210
    7SAPS  H11X  908   0.825   4.352   9.010 -0.2970  1.2189 -1.1990
    7SAPS  H11Y  909   0.718   4.244   8.933  0.0072  2.1711  2.1339
    7SAPS  C312  910   0.903   4.277   8.819  0.4983 -0.3954  0.3930
    7SAPS  H12X  911   1.012   4.289   8.836  0.7939 -0.9539 -0.9683
    7SAPS  H12Y  912   0.870   4.376   8.780  0.2660 -0.2420  0.9642
    7SAPS  C313  913   0.866   4.176   8.713  0.0308 -0.0757  0.2434
    7SAPS  H13X  914   0.756   4.166   8.703  0.2766 -0.9615 -2.1941
    7SAPS  H13Y  915   0.918   4.088   8.757 -0.8652  0.1748  1.9302
    7SAPS  C314  916   0.918   4.202   8.569  0.5222 -0.0260  0.3194
    7SAPS  H14X  917   1.028   4.218   8.570  0.3326  1.3491  0.4935
    7SAPS  H14Y  918   0.869   4.295   8.534 -2.2655 -1.6212 -0.3328
    7SAPS  C315  919   0.896   4.086   8.474  0.2685  0.5146  0.3233
    7SAPS  H15X  920   0.790   4.063   8.449  0.5822 -2.8373  1.6048
    7SAPS  H15Y  921   0.946   3.992   8.507  1.8145  0.9308 -0.7327
    7SAPS  C316  922   0.970   4.111   8.343  0.6259  0.3170 -0.2000
    7SAPS  H16X  923   1.074   4.142   8.368 -0.1791  2.2395  1.0304
    7SAPS  H16Y  924   0.917   4.190   8.285  1.8284 -0.3064 -2.2691
    7SAPS  C317  925   0.960   3.986   8.254  0.4366  0.5099 -0.1037
    7SAPS  H17X  926   0.852   3.958   8.256 -0.3518  3.0164 -2.1817
    7SAPS  H17Y  927   1.013   3.902   8.304  1.5946  0.3303 -1.5628
    7SAPS  C318  928   1.001   4.012   8.106 -0.1946 -0.8313  0.0797
    7SAPS  H18X  929   0.935   4.086   8.056  1.1073 -0.7747 -1.6811
    7SAPS  H18Y  930   0.982   3.922   8.043 -1.9440  0.3729 -1.2021
    7SAPS  H18Z  931   1.107   4.046   8.097 -0.4294 -0.3049 -0.8561
    8SAPS     N  932   4.951   6.335  10.771  0.1342 -0.0721 -0.0965
    8SAPS   HN1  933   4.964   6.233  10.762 -0.1157 -0.2220  1.0146
    8SAPS   HN2  934   4.900   6.352  10.860 -0.0562  1.3898 -0.4648
    8SAPS   HN3  935   4.887   6.373  10.699 -0.9816 -0.3609  0.7072
    8SAPS   C12  936   5.083   6.409  10.770 -0.4130 -0.1622  0.2253
    8SAPS  H12A  937   5.135   6.397  10.676 -1.2551 -0.4633 -0.2149
    8SAPS   C13  938   5.072   6.561  10.799 -0.5111  0.5591  0.0351
    8SAPS  O13A  939   4.964   6.611  10.829  0.1989  0.0981  0.0298
    8SAPS  O13B  940   5.172   6.633  10.791 -0.0906 -0.1891 -0.1320
    8SAPS   C11  941   5.173   6.356  10.899  0.0071 -0.2670  0.3692
    8SAPS  H11A  942   5.133   6.390  10.998  0.8572 -0.7920  0.9040
    8SAPS  H11B  943   5.271   6.405  10.881 -0.2118  0.0754  0.0777
    8SAPS     P  944   5.296   6.135  10.967 -0.1719 -0.0775 -0.1453
    8SAPS   O13  945   5.312   6.185  11.106  0.2598  0.5098  0.2883
    8SAPS   O14  946   5.269   5.991  10.943 -0.0213  0.3143  0.0379
    8SAPS   O12  947   5.176   6.218  10.888  0.6653 -0.2245 -0.3769
    8SAPS   O11  948   5.420   6.169  10.896 -0.5872 -0.3819  0.4223
    8SAPS    C1  949   5.429   6.226  10.764 -0.4582 -0.7589 -0.0250
    8SAPS    HA  950   5.330   6.266  10.734 -0.3644 -0.1511  0.4551
    8SAPS    HB  951   5.508   6.304  10.766  2.5960 -3.5853  0.9987
    8SAPS    C2  952   5.481   6.122  10.660  0.1759 -0.1022  0.2855
    8SAPS    HS  953   5.436   6.023  10.686  1.3728 -0.5647  0.6697
    8SAPS   O21  954   5.630   6.104  10.657 -0.3677 -0.2433 -0.9018
    8SAPS   C21  955   5.668   5.981  10.657 -0.1685 -0.8132 -0.0084
    8SAPS   O22  956   5.606   5.881  10.690 -0.2955  0.3629  0.1593
    8SAPS   C22  957   5.818   5.984  10.634  0.7209  0.0171 -0.4985
    8SAPS   H2R  958   5.832   6.034  10.535 -0.7030 -0.9032 -1.2094
    8SAPS   H2S  959   5.877   6.048  10.702  2.6010 -1.3260 -0.7861
    8SAPS    C3  960   5.441   6.166  10.513  0.6847  0.1609  0.0461
    8SAPS    HX  961   5.490   6.260  10.480 -0.6479  0.1658 -2.1478
    8SAPS    HY  962   5.339   6.207  10.499  0.5297 -1.0495 -3.0248
    8SAPS   O31  963   5.461   6.062  10.414  1.1195 -0.9573  0.7646
    8SAPS   C31  964   5.358   5.980  10.410  0.2996 -0.3207 -0.4222
    8SAPS   O32  965   5.254   5.985  10.475  0.2463 -0.1189 -0.1656
    8SAPS   C32  966   5.388   5.884  10.292 -0.2243 -0.0135 -0.3245
    8SAPS   H2X  967   5.303   5.812  10.286  0.0510 -0.4563  0.8301
    8SAPS   H2Y  968   5.484   5.835  10.318  1.5693  2.5247 -1.7312
    8SAPS   C23  969   5.884   5.849  10.649  0.1756  0.0021 -0.0656
    8SAPS   H3R  970   5.845   5.767  10.584 -0.9208 -2.1669  3.0581
    8SAPS   H3S  971   5.869   5.812  10.752 -2.4101  2.1978  0.4371
    8SAPS   C24  972   6.039   5.858  10.640  0.6793 -0.4349  0.1018
    8SAPS   H4R  973   6.080   5.919  10.723  3.6270  0.9832 -2.2058
    8SAPS   H4S  974   6.068   5.921  10.553  0.0978 -1.4022 -0.8188
    8SAPS   C25  975   6.111   5.723  10.640  0.3704 -0.2808 -0.0813
    8SAPS   H5R  976   6.120   5.664  10.733 -2.9516  0.3509  0.7866
    8SAPS   C26  977   6.169   5.667  10.539 -0.2574  0.4400  0.6314
    8SAPS   H6R  978   6.215   5.569  10.557  1.1929  0.9051 -0.3939
    8SAPS   C27  979   6.173   5.707  10.395 -1.4223 -0.0777  1.1474
    8SAPS   H7R  980   6.067   5.712  10.362 -0.7076 -0.7642 -1.5159
    8SAPS   H7S  981   6.228   5.631  10.336 -0.7618 -0.0004  1.6605
    8SAPS   C28  982   6.243   5.835  10.365  0.2866  0.3324 -0.1241
    8SAPS   H8R  983   6.326   5.849  10.435 -0.0815 -3.1802  1.2382
    8SAPS   C29  984   6.217   5.920  10.268  0.4711 -0.5172  0.0586
    8SAPS   H9R  985   6.288   6.004  10.262  2.1285 -1.8105  0.8165
    8SAPS  C210  986   6.113   5.898  10.158 -0.0961  0.4823 -0.2058
    8SAPS  H10R  987   6.114   5.997  10.106  0.6420 -0.5710 -2.3093
    8SAPS  H10S  988   6.011   5.892  10.201 -0.3940 -1.2568 -1.0576
    8SAPS  C211  989   6.137   5.793  10.051  0.2187 -0.4331  0.1923
    8SAPS  H11R  990   6.169   5.693  10.083  2.2385 -0.3591 -1.3754
    8SAPS  C212  991   6.125   5.803   9.918  0.6378  0.3905 -0.1325
    8SAPS  H12R  992   6.154   5.719   9.853 -1.4692  1.4963 -2.7184
    8SAPS  C213  993   6.078   5.920   9.835  0.9635 -0.7256 -0.1011
    8SAPS  H13R  994   6.101   6.019   9.880 -4.0575  1.4418 -1.6776
    8SAPS  H13S  995   5.968   5.912   9.833  0.8950  0.2480 -0.8731
    8SAPS  C214  996   6.140   5.924   9.697 -0.5788  0.3179 -0.0168
    8SAPS  H14R  997   6.206   6.011   9.683  1.5860 -1.0227  1.3108
    8SAPS  C215  998   6.123   5.841   9.598 -0.6251  0.1958  0.5288
    8SAPS  H15R  999   6.181   5.856   9.506  0.8826  2.8624  1.7911
    8SAPS  C216 1000   6.030   5.726   9.598 -0.3448  0.2685  0.4064
    8SAPS  H16R 1001   5.931   5.749   9.554 -0.0972 -0.7222 -0.7310
    8SAPS  H16S 1002   6.006   5.679   9.696 -1.1982 -2.8294 -1.1404
    8SAPS  C217 1003   6.082   5.604   9.513 -0.2432  0.2595 -0.0083
    8SAPS  H17R 1004   6.003   5.527   9.509  1.1855 -1.2280 -0.8553
    8SAPS  H17S 1005   6.172   5.559   9.561 -1.4380 -1.6400  0.5353
    8SAPS  C218 1006   6.114   5.616   9.363  0.0123  0.0488  0.6002
    8SAPS  H18R 1007   6.142   5.513   9.334 -2.3361 -0.5427  0.2252
    8SAPS  H18S 1008   6.198   5.684   9.337  0.0784  0.3106  1.4677
    8SAPS  C219 1009   5.991   5.665   9.285 -0.2252 -0.1887 -0.1436
    8SAPS  H19R 1010   5.958   5.759   9.333 -3.0997 -1.5236  0.6779
    8SAPS  H19S 1011   5.906   5.594   9.283 -0.9025  0.3543  3.4358
    8SAPS  C220 1012   6.032   5.703   9.142 -1.1073  0.1816  0.7025
    8SAPS  H20R 1013   6.092   5.796   9.148 -3.1209  1.4898  2.0062
    8SAPS  H20S 1014   5.934   5.716   9.091 -0.2404 -1.9826 -1.7299
    8SAPS  H20T 1015   6.084   5.621   9.088 -0.1589  1.3763 -0.2447
    8SAPS   C33 1016   5.403   5.942  10.158 -0.1317 -0.4433  0.1613
    8SAPS   H3X 1017   5.512   5.964  10.152 -0.0597 -0.1848  1.8946
    8SAPS   H3Y 1018   5.345   6.036  10.141  1.5757  0.6354  0.0308
    8SAPS   C34 1019   5.363   5.843  10.052 -0.0303 -0.3136  0.0944
    8SAPS   H4X 1020   5.415   5.744  10.052 -0.5545 -0.6613 -2.1971
    8SAPS   H4Y 1021   5.392   5.889   9.955  1.7664  0.6850  1.0503
    8SAPS   C35 1022   5.211   5.844  10.022  0.6482  0.1616  0.6013
    8SAPS   H5X 1023   5.175   5.935   9.970 -2.4978 -0.9446  0.5832
    8SAPS   H5Y 1024   5.168   5.844  10.125 -0.3483  0.4977  0.1910
    8SAPS   C36 1025   5.180   5.721   9.941 -0.2065 -0.0846 -0.1796
    8SAPS   H6X 1026   5.072   5.696   9.953 -0.1036  0.2545  1.8908
    8SAPS   H6Y 1027   5.226   5.637   9.997  2.8668  2.0366  0.7568
    8SAPS   C37 1028   5.209   5.728   9.787  0.0871 -0.2485  0.4678
    8SAPS   H7X 1029   5.315   5.696   9.777 -0.2626 -0.8944 -1.6403
    8SAPS   H7Y 1030   5.203   5.834   9.754 -0.3261 -0.9588 -1.9010
    8SAPS   C38 1031   5.110   5.649   9.700 -0.3733  0.2455  0.5695
    8SAPS   H8X 1032   5.010   5.688   9.728 -1.7442 -1.7306 -1.2403
    8SAPS   H8Y 1033   5.119   5.544   9.737  2.2641 -0.2629 -1.2699
    8SAPS   C39 1034   5.136   5.662   9.551  0.2644  0.3917  0.2219
    8SAPS   H9X 1035   5.245   5.643   9.538 -0.0091 -0.7776 -0.5259
    8SAPS   H9Y 1036   5.114   5.767   9.524 -0.5365  0.2893  0.4667
    8SAPS  C310 1037   5.052   5.568   9.455 -0.3693 -0.2140  0.0127
    8SAPS  H10X 1038   4.946   5.595   9.478  0.0800 -0.0524  2.0525
    8SAPS  H10Y 1039   5.052   5.462   9.488 -1.5083  0.3307  1.9367
    8SAPS  C311 1040   5.083   5.569   9.305 -0.9033  0.0038 -0.2048
    8SAPS  H11X 1041   5.187   5.529   9.303 -0.3104  1.4683 -2.4682
    8SAPS  H11Y 1042   5.086   5.669   9.257 -1.6108  0.2680  0.2870
    8SAPS  C312 1043   5.003   5.469   9.230 -0.7294  0.5088  0.1482
    8SAPS  H12X 1044   4.900   5.503   9.252 -0.1465  0.9845  2.4068
    8SAPS  H12Y 1045   5.011   5.361   9.255 -0.6733 -0.4134 -3.2667
    8SAPS  C313 1046   5.023   5.475   9.077 -0.6978 -0.1520 -0.3333
    8SAPS  H13X 1047   4.954   5.396   9.041 -1.0884  1.1363 -2.6074
    8SAPS  H13Y 1048   5.128   5.458   9.046 -1.1006 -0.0083 -1.8990
    8SAPS  C314 1049   4.975   5.603   9.011 -0.1609 -0.4840  0.4450
    8SAPS  H14X 1050   5.008   5.697   9.061 -0.6313 -0.8292  1.4332
    8SAPS  H14Y 1051   4.864   5.598   9.017 -0.1134 -0.2618  1.8317
    8SAPS  C315 1052   5.003   5.603   8.857  0.1966  0.2900  0.2552
    8SAPS  H15X 1053   4.956   5.515   8.808  2.2719 -0.3719 -0.6752
    8SAPS  H15Y 1054   5.111   5.592   8.834 -0.0264  1.0070 -1.2867
    8SAPS  C316 1055   4.951   5.738   8.803 -0.2191  0.0939  0.1486
    8SAPS  H16X 1056   5.031   5.772   8.734  3.9802 -0.2523  4.3959
    8SAPS  H16Y 1057   4.949   5.819   8.880  1.1395  0.7872 -0.5107
    8SAPS  C317 1058   4.807   5.740   8.743  0.2387  0.2717 -0.0165
    8SAPS  H17X 1059   4.779   5.846   8.727 -0.0680  0.3763  1.0776
    8SAPS  H17Y 1060   4.734   5.700   8.817 -3.8301  1.1705 -3.1986
    8SAPS  C318 1061   4.782   5.668   8.606  0.4569 -0.2627 -0.1191
    8SAPS  H18X 1062   4.681   5.683   8.563 -0.0006 -2.7492 -0.0575
    8SAPS  H18Y 1063   4.786   5.559   8.626 -0.9346 -0.3312 -0.1367
    8SAPS  H18Z 1064   4.864   5.699   8.537  0.0808  0.0515 -0.4280
    9SAPS     N 1065   0.131   0.627   6.443 -0.4341  0.2064 -0.6278
    9SAPS   HN1 1066   0.211   0.671   6.393  0.8413 -0.6224  0.5951
    9SAPS   HN2 1067   0.061   0.703   6.457  0.7440  1.1931  0.1203
    9SAPS   HN3 1068   0.169   0.581   6.528 -0.1563 -2.7893 -2.2184
    9SAPS   C12 1069   0.065   0.523   6.358 -0.5941 -0.2267 -0.3053
    9SAPS  H12A 1070   0.016   0.447   6.417 -1.5480  1.2604  0.8750
    9SAPS   C13 1071  -0.040   0.588   6.269  0.3395  0.3711  0.8654
    9SAPS  O13A 1072  -0.072   0.712   6.283  0.4945  0.3259  0.3441
    9SAPS  O13B 1073  -0.095   0.525   6.174  0.1134 -0.4832  0.7362
    9SAPS   C11 1074   0.177   0.457   6.276 -0.3630  0.1321  0.5663
    9SAPS  H11A 1075   0.216   0.536   6.209 -0.2086  0.1425  0.6687
    9SAPS  H11B 1076   0.138   0.382   6.205  1.3569 -0.1295 -0.1452
    9SAPS     P 1077   0.405   0.344   6.291  0.0244  0.0399  0.1537
    9SAPS   O13 1078   0.399   0.198   6.302  0.7658  0.4139 -0.2051
    9SAPS   O14 1079   0.420   0.398   6.149  0.0042 -1.1830 -0.7938
    9SAPS   O12 1080   0.278   0.400   6.355  0.4673 -0.3211  0.3743
    9SAPS   O11 1081   0.518   0.395   6.386  0.1112 -0.0797  0.1917
    9SAPS    C1 1082   0.533   0.533   6.427  0.7595 -0.2460 -0.1311
    9SAPS    HA 1083   0.643   0.548   6.416  0.3904  1.8509 -1.4757
    9SAPS    HB 1084   0.472   0.594   6.358 -0.4309  0.1018  1.1748
    9SAPS    C2 1085   0.495   0.562   6.580  0.0617 -0.9699 -0.1346
    9SAPS    HS 1086   0.577   0.519   6.641 -1.2070 -0.8328  1.7508
    9SAPS   O21 1087   0.372   0.504   6.628 -0.3757 -0.5190  0.1075
    9SAPS   C21 1088   0.375   0.376   6.644  1.0395  0.4491  0.2560
    9SAPS   O22 1089   0.465   0.296   6.640  0.0336 -0.4205 -0.0540
    9SAPS   C22 1090   0.227   0.342   6.691 -0.2206 -0.2834  0.2237
    9SAPS   H2R 1091   0.155   0.393   6.624 -2.1788 -1.2593  1.4667
    9SAPS   H2S 1092   0.201   0.235   6.676  0.1545 -0.3691  0.1752
    9SAPS    C3 1093   0.491   0.716   6.606 -0.0641  0.1491  0.2959
    9SAPS    HX 1094   0.411   0.766   6.547 -0.2983 -2.2703 -1.6145
    9SAPS    HY 1095   0.587   0.754   6.565  0.5460 -1.1628  0.4645
    9SAPS   O31 1096   0.487   0.745   6.744 -0.0188  0.3317  0.2006
    9SAPS   C31 1097   0.439   0.875   6.769 -1.1944  1.1217 -1.0474
    9SAPS   O32 1098   0.432   0.965   6.687 -0.4863  0.2965  0.1917
    9SAPS   C32 1099   0.404   0.878   6.919 -0.6621  0.2330 -0.4481
    9SAPS   H2X 1100   0.493   0.913   6.976 -1.0746 -2.4722  2.0878
    9SAPS   H2Y 1101   0.382   0.781   6.969  1.9715  0.1452  0.7076
    9SAPS   C23 1102   0.195   0.377   6.841 -0.8540  0.0455 -0.5416
    9SAPS   H3R 1103   0.090   0.359   6.872 -0.7499  2.4933  1.5771
    9SAPS   H3S 1104   0.207   0.488   6.845 -0.1357 -0.0618  0.7417
    9SAPS   C24 1105   0.301   0.332   6.945 -0.1509 -0.4593  0.2859
    9SAPS   H4R 1106   0.270   0.373   7.044  0.5532  0.0644  0.3001
    9SAPS   H4S 1107   0.399   0.369   6.909 -0.6828  1.2001  0.4404
    9SAPS   C25 1108   0.303   0.183   6.950 -0.4863  0.2981  0.6989
    9SAPS   H5R 1109   0.314   0.133   6.852 -1.5654 -2.3312  1.8319
    9SAPS   C26 1110   0.284   0.107   7.053 -0.0342  0.1741  0.0456
    9SAPS   H6R 1111   0.292  -0.002   7.043 -3.3860 -0.3078  1.1922
    9SAPS   C27 1112   0.245   0.151   7.198 -0.7401 -0.0180 -0.1538
    9SAPS   H7R 1113   0.186   0.245   7.203  0.6203  0.9385 -1.2507
    9SAPS   H7S 1114   0.343   0.171   7.247 -0.4039  0.1605 -0.8866
    9SAPS   C28 1115   0.173   0.053   7.285 -0.4970  0.8951 -0.1089
    9SAPS   H8R 1116   0.063   0.058   7.288 -0.7604 -1.8158 -1.7806
    9SAPS   C29 1117   0.228  -0.049   7.359  0.3886 -0.9260  0.3387
    9SAPS   H9R 1118   0.161  -0.105   7.425 -1.7130 -1.1680 -1.8351
    9SAPS  C210 1119   0.374  -0.077   7.363  0.2292  0.5760  0.0100
    9SAPS  H10R 1120   0.417  -0.018   7.447  0.6573  1.0741 -0.5525
    9SAPS  H10S 1121   0.423  -0.045   7.268  0.8765  0.7937  0.4106
    9SAPS  C211 1122   0.398  -0.221   7.389 -0.3546  0.0232 -0.1512
    9SAPS  H11R 1123   0.445  -0.270   7.303  1.2113  4.8035 -2.3850
    9SAPS  C212 1124   0.378  -0.284   7.513 -0.6344 -0.0855  0.0193
    9SAPS  H12R 1125   0.412  -0.389   7.512 -0.2667 -0.0067 -2.7269
    9SAPS  C213 1126   0.334  -0.216   7.647  0.4359  0.3983 -0.8615
    9SAPS  H13R 1127   0.242  -0.271   7.677  0.5123  1.1953  0.9468
    9SAPS  H13S 1128   0.305  -0.110   7.630 -0.1742  0.5609  0.9492
    9SAPS  C214 1129   0.432  -0.230   7.763  0.5214 -0.0158 -0.9008
    9SAPS  H14R 1130   0.528  -0.182   7.739 -0.7162  2.2313 -1.6690
    9SAPS  C215 1131   0.413  -0.279   7.889 -0.0966  0.4820 -0.2387
    9SAPS  H15R 1132   0.499  -0.273   7.958 -0.8659 -1.1612  0.9360
    9SAPS  C216 1133   0.290  -0.337   7.948 -0.3001  0.4076 -0.5189
    9SAPS  H16R 1134   0.199  -0.345   7.886 -1.5335  0.2917  1.2203
    9SAPS  H16S 1135   0.265  -0.272   8.035 -2.9431  1.8393 -2.2263
    9SAPS  C217 1136   0.310  -0.483   8.005  0.3552 -0.2586 -0.2262
    9SAPS  H17R 1137   0.383  -0.462   8.086 -1.0315 -1.3252  1.3623
    9SAPS  H17S 1138   0.346  -0.550   7.925 -0.5577 -0.3402 -0.5779
    9SAPS  C218 1139   0.179  -0.546   8.051  0.0198  0.6910  0.0488
    9SAPS  H18R 1140   0.109  -0.569   7.968  0.1285  0.2382  0.0803
    9SAPS  H18S 1141   0.125  -0.468   8.110 -0.7569  1.0779 -1.1501
    9SAPS  C219 1142   0.195  -0.680   8.131  0.4957 -0.7064 -0.0829
    9SAPS  H19R 1143   0.252  -0.745   8.062  1.8678  1.0375 -0.6945
    9SAPS  H19S 1144   0.097  -0.724   8.157  0.9249 -0.1981  2.6900
    9SAPS  C220 1145   0.270  -0.658   8.261  0.2132 -0.3576 -0.0822
    9SAPS  H20R 1146   0.364  -0.600   8.246 -0.0558 -0.1097 -0.8700
    9SAPS  H20S 1147   0.297  -0.763   8.287  0.2939 -0.3993 -0.3278
    9SAPS  H20T 1148   0.206  -0.603   8.334 -0.0544  0.3608 -0.8396
    9SAPS   C33 1149   0.282   0.971   6.943 -0.0816 -0.8253 -0.0932
    9SAPS   H3X 1150   0.199   0.953   6.870 -1.0215  0.4874  0.6177
    9SAPS   H3Y 1151   0.322   1.071   6.920 -0.3991 -0.7689 -0.4284
    9SAPS   C34 1152   0.222   0.972   7.084 -0.5815 -0.5231 -0.8114
    9SAPS   H4X 1153   0.168   0.879   7.112  0.9181 -1.3598 -0.6029
    9SAPS   H4Y 1154   0.147   1.054   7.082  0.6391  0.6412 -0.5215
    9SAPS   C35 1155   0.331   1.005   7.191  0.2425 -0.0587 -0.0449
    9SAPS   H5X 1156   0.381   1.097   7.152 -4.6890  3.2911  0.6485
    9SAPS   H5Y 1157   0.403   0.920   7.190  1.4808  0.9184 -2.3769
    9SAPS   C36 1158   0.283   1.036   7.330 -0.3537  0.4818  0.2282
    9SAPS   H6X 1159   0.236   0.938   7.355 -0.6996  0.0615 -1.8406
    9SAPS   H6Y 1160   0.208   1.118   7.324 -0.5723  0.5025  2.5173
    9SAPS   C37 1161   0.386   1.087   7.424 -0.4004  0.0380 -0.3936
    9SAPS   H7X 1162   0.411   1.189   7.388  0.3980 -1.1416 -3.4614
    9SAPS   H7Y 1163   0.482   1.031   7.424 -0.1542  0.4479 -0.0594
    9SAPS   C38 1164   0.343   1.092   7.570  0.8261 -0.0590  0.3349
    9SAPS   H8X 1165   0.308   0.995   7.610  0.0586  1.3842  3.4829
    9SAPS   H8Y 1166   0.249   1.152   7.569 -0.2639 -1.6970 -0.3951
    9SAPS   C39 1167   0.440   1.167   7.662 -0.1299 -0.2981  0.3425
    9SAPS   H9X 1168   0.469   1.257   7.604  0.4898 -1.2519 -0.8879
    9SAPS   H9Y 1169   0.546   1.132   7.669  0.6113  1.5310 -1.0623
    9SAPS  C310 1170   0.374   1.197   7.790 -0.2946 -0.5104  0.7623
    9SAPS  H10X 1171   0.313   1.113   7.831 -2.2595 -0.5773 -2.0079
    9SAPS  H10Y 1172   0.309   1.282   7.761  0.6957 -0.2407 -0.8252
    9SAPS  C311 1173   0.457   1.253   7.901  0.3824  0.4454  0.1462
    9SAPS  H11X 1174   0.460   1.364   7.898 -2.7739  0.6022 -0.9729
    9SAPS  H11Y 1175   0.558   1.206   7.901 -1.6189 -4.5148  2.1674
    9SAPS  C312 1176   0.397   1.220   8.047  0.1754  0.0708  0.0661
    9SAPS  H12X 1177   0.396   1.111   8.072  2.9570  0.1828  0.9668
    9SAPS  H12Y 1178   0.290   1.242   8.063 -0.0520 -1.6572  1.2215
    9SAPS  C313 1179   0.471   1.293   8.164  0.0100 -0.0389 -0.2741
    9SAPS  H13X 1180   0.417   1.389   8.179 -1.7935 -0.8746 -1.0614
    9SAPS  H13Y 1181   0.578   1.295   8.134 -0.2606  1.5433 -1.2141
    9SAPS  C314 1182   0.441   1.211   8.300 -0.6048 -0.6109  0.0055
    9SAPS  H14X 1183   0.340   1.168   8.282 -0.8883 -0.8161  1.9312
    9SAPS  H14Y 1184   0.443   1.285   8.382  1.1371  2.0520 -2.2378
    9SAPS  C315 1185   0.546   1.107   8.319  0.7190 -0.9844  0.1931
    9SAPS  H15X 1186   0.646   1.154   8.305 -0.3540  1.2559 -0.2399
    9SAPS  H15Y 1187   0.541   1.027   8.241 -0.4587  0.3104 -1.1150
    9SAPS  C316 1188   0.530   1.045   8.460 -0.1288 -0.5160 -0.0494
    9SAPS  H16X 1189   0.521   1.119   8.542  2.3897 -1.0960  0.8623
    9SAPS  H16Y 1190   0.630   1.004   8.488  0.3046  0.1764 -0.5363
    9SAPS  C317 1191   0.425   0.942   8.464  0.2022 -0.4582  0.5272
    9SAPS  H17X 1192   0.451   0.869   8.384 -1.8795 -0.6269 -0.0568
    9SAPS  H17Y 1193   0.332   0.989   8.426  0.8828 -0.8860 -1.8515
    9SAPS  C318 1194   0.392   0.876   8.595  0.6791  0.4839 -0.3080
    9SAPS  H18X 1195   0.370   0.951   8.675  0.3071 -2.1507  2.2169
    9SAPS  H18Y 1196   0.469   0.810   8.640  0.3561  0.8776  0.8861
    9SAPS  H18Z 1197   0.298   0.817   8.591  0.7920 -0.2263  3.4101
   10SAPS     N 1198   1.354   0.746   6.496 -0.3548  0.1119 -0.0024
   10SAPS   HN1 1199   1.393   0.668   6.552  0.3564  1.4949  1.5223
   10SAPS   HN2 1200   1.435   0.799   6.458 -0.6162 -0.6735 -1.7500
   10SAPS   HN3 1201   1.297   0.808   6.557 -1.4076  0.0134 -0.8420
   10SAPS   C12 1202   1.271   0.702   6.384 -0.2726 -0.5651 -0.6476
   10SAPS  H12A 1203   1.251   0.792   6.327  2.4986  2.8956  3.2700
   10SAPS   C13 1204   1.331   0.590   6.302  0.3797  1.0063 -0.6043
   10SAPS  O13A 1205   1.450   0.552   6.317  0.1232  0.1163 -0.7386
   10SAPS  O13B 1206   1.275   0.560   6.195  0.0445 -0.1384 -0.4128
   10SAPS   C11 1207   1.141   0.638   6.438 -0.2133 -0.0688 -0.2154
   10SAPS  H11A 1208   1.159   0.551   6.504  1.8297 -0.0688 -0.6962
   10SAPS  H11B 1209   1.090   0.600   6.347  0.3977  0.4405 -0.7878
   10SAPS     P 1210   0.911   0.718   6.537 -0.2172 -0.2916  0.0426
   10SAPS   O13 1211   0.849   0.732   6.403 -0.1270  0.0497 -0.6943
   10SAPS   O14 1212   0.886   0.596   6.609  0.1208  0.6247 -0.8399
   10SAPS   O12 1213   1.067   0.735   6.513  0.7058  0.4321  0.3407
   10SAPS   O11 1214   0.871   0.853   6.618  0.2217 -0.4980  0.2857
   10SAPS    C1 1215   0.959   0.924   6.695  0.3468 -0.2211  0.7369
   10SAPS    HA 1216   1.049   0.868   6.727  0.3448 -0.2093  0.7644
   10SAPS    HB 1217   1.005   1.008   6.639  1.4169 -1.8311 -0.9001
   10SAPS    C2 1218   0.875   0.989   6.809 -0.4691 -0.0501  0.1407
   10SAPS    HS 1219   0.933   1.076   6.847  0.9398  0.2552 -2.4713
   10SAPS   O21 1220   0.841   0.883   6.909  0.7887  0.5906  0.4912
   10SAPS   C21 1221   0.946   0.870   6.985  0.4585 -0.3419  0.8649
   10SAPS   O22 1222   1.060   0.912   6.973  0.1791  0.8837  0.6853
   10SAPS   C22 1223   0.910   0.771   7.091 -0.0260 -0.5360  0.2034
   10SAPS   H2R 1224   0.892   0.670   7.049 -0.8767 -0.0193 -0.7189
   10SAPS   H2S 1225   1.003   0.764   7.151 -0.0760  1.4055  0.5820
   10SAPS    C3 1226   0.747   1.054   6.764  0.1183  0.0066  0.2206
   10SAPS    HX 1227   0.692   0.974   6.711  0.2173  0.0227  0.0951
   10SAPS    HY 1228   0.770   1.133   6.690 -2.1783  3.6506  3.0027
   10SAPS   O31 1229   0.667   1.113   6.867 -0.1685  0.0828  0.0112
   10SAPS   C31 1230   0.709   1.233   6.912 -0.1669  0.0293 -0.3814
   10SAPS   O32 1231   0.808   1.291   6.872 -0.2945  0.6371  0.2019
   10SAPS   C32 1232   0.600   1.291   7.001 -0.0632  0.1833  0.1855
   10SAPS   H2X 1233   0.504   1.241   6.974 -0.9341  1.1780  1.3181
   10SAPS   H2Y 1234   0.599   1.398   6.968  1.0434 -1.0438 -4.6300
   10SAPS   C23 1235   0.786   0.812   7.163  0.9995 -0.2408 -0.0174
   10SAPS   H3R 1236   0.709   0.826   7.084 -1.4939 -2.4083  1.8534
   10SAPS   H3S 1237   0.796   0.903   7.227 -0.5906 -0.9008  1.2498
   10SAPS   C24 1238   0.714   0.709   7.256  0.0161 -0.2692 -0.5202
   10SAPS   H4R 1239   0.695   0.614   7.203  3.8256 -2.2125  1.2346
   10SAPS   H4S 1240   0.613   0.742   7.290 -0.1253  0.0220 -1.2068
   10SAPS   C25 1241   0.801   0.677   7.374 -0.0131 -0.3262  0.0211
   10SAPS   H5R 1242   0.889   0.617   7.348 -0.1876 -0.0746 -1.2229
   10SAPS   C26 1243   0.767   0.710   7.503 -0.5044 -0.0010 -0.8724
   10SAPS   H6R 1244   0.837   0.678   7.581  1.3728 -0.0529 -2.5072
   10SAPS   C27 1245   0.643   0.785   7.550  0.7059 -0.0020  0.3781
   10SAPS   H7R 1246   0.578   0.824   7.468  0.6449  0.5314  0.6742
   10SAPS   H7S 1247   0.674   0.871   7.612 -1.8700  1.6502 -0.4470
   10SAPS   C28 1248   0.571   0.682   7.630 -0.1276 -0.7051 -0.3162
   10SAPS   H8R 1249   0.538   0.599   7.566 -0.3897  0.7175 -2.0853
   10SAPS   C29 1250   0.558   0.679   7.767 -0.5463 -0.8368 -0.1641
   10SAPS   H9R 1251   0.504   0.590   7.803 -0.7492 -1.1280 -1.1477
   10SAPS  C210 1252   0.608   0.782   7.873 -0.0591 -0.3317 -0.3456
   10SAPS  H10R 1253   0.526   0.818   7.938 -0.8958 -3.3045  0.3827
   10SAPS  H10S 1254   0.638   0.873   7.817 -0.6702 -0.4206 -0.8229
   10SAPS  C211 1255   0.723   0.716   7.947 -0.0666 -0.0843 -0.3317
   10SAPS  H11R 1256   0.814   0.701   7.887  0.2443 -1.0821  0.3703
   10SAPS  C212 1257   0.728   0.669   8.071 -0.6011  0.4890 -0.1635
   10SAPS  H12R 1258   0.826   0.642   8.115 -0.6157  0.4364 -0.1633
   10SAPS  C213 1259   0.611   0.669   8.168 -0.3681  0.2840  0.0459
   10SAPS  H13R 1260   0.515   0.688   8.117 -0.7380 -2.1071 -0.2660
   10SAPS  H13S 1261   0.622   0.765   8.224  0.4107  0.6680 -0.7400
   10SAPS  C214 1262   0.614   0.546   8.257  0.4723  0.3480 -0.1207
   10SAPS  H14R 1263   0.703   0.545   8.321  0.9240 -0.4719 -0.7392
   10SAPS  C215 1264   0.515   0.452   8.272 -0.4454  0.1388 -0.3898
   10SAPS  H15R 1265   0.528   0.372   8.347 -0.0817  0.2267 -0.3584
   10SAPS  C216 1266   0.390   0.442   8.198  0.9142  0.4791  0.1196
   10SAPS  H16R 1267   0.385   0.536   8.138 -1.1765 -1.0831 -2.3244
   10SAPS  H16S 1268   0.304   0.443   8.268  0.9591  1.2266  0.1708
   10SAPS  C217 1269   0.395   0.322   8.100  0.4377  0.0791 -0.0773
   10SAPS  H17R 1270   0.382   0.226   8.154 -1.2324 -0.3450 -1.1343
   10SAPS  H17S 1271   0.485   0.326   8.035 -0.6649 -1.6860 -1.8386
   10SAPS  C218 1272   0.275   0.333   7.999  0.2439  0.3649 -0.0532
   10SAPS  H18R 1273   0.290   0.430   7.948  2.5872  0.1572  0.1401
   10SAPS  H18S 1274   0.179   0.338   8.054  1.3713 -0.0072  2.0665
   10SAPS  C219 1275   0.267   0.220   7.894  0.0004 -0.6786 -1.2746
   10SAPS  H19R 1276   0.222   0.129   7.939  0.3455 -0.1973  0.0797
   10SAPS  H19S 1277   0.370   0.200   7.857  0.9068  0.2423  0.6305
   10SAPS  C220 1278   0.182   0.275   7.778  0.4821  0.1022  0.2589
   10SAPS  H20R 1279   0.208   0.209   7.693 -0.1682 -1.5292  1.2696
   10SAPS  H20S 1280   0.200   0.384   7.763  0.0798 -0.1731 -2.8043
   10SAPS  H20T 1281   0.076   0.245   7.791 -0.1732  1.9016 -0.5287
   10SAPS   C33 1282   0.641   1.263   7.148  0.2792 -0.2233  0.2616
   10SAPS   H3X 1283   0.660   1.155   7.168  4.0379 -0.0316 -1.3207
   10SAPS   H3Y 1284   0.562   1.298   7.218  1.3612  0.1848  1.3204
   10SAPS   C34 1285   0.772   1.341   7.190  0.7345  0.1658 -0.1916
   10SAPS   H4X 1286   0.765   1.446   7.155 -0.4969  0.7536  1.6510
   10SAPS   H4Y 1287   0.844   1.275   7.138 -1.4223 -0.9597 -1.9092
   10SAPS   C35 1288   0.798   1.330   7.339  0.1647  0.5252 -0.7327
   10SAPS   H5X 1289   0.907   1.337   7.359  0.0492 -0.3213  0.2821
   10SAPS   H5Y 1290   0.767   1.231   7.378  0.9855 -0.6898 -3.0122
   10SAPS   C36 1291   0.718   1.432   7.424 -0.0883  0.0528  0.6967
   10SAPS   H6X 1292   0.615   1.428   7.382  0.8350 -1.2072 -1.5661
   10SAPS   H6Y 1293   0.759   1.535   7.416 -1.1194  0.4392  0.1352
   10SAPS   C37 1294   0.723   1.396   7.573  0.0843 -0.2725  0.0433
   10SAPS   H7X 1295   0.692   1.290   7.580 -1.2144 -0.3597 -4.1224
   10SAPS   H7Y 1296   0.649   1.458   7.628  1.0085 -0.9515  2.1247
   10SAPS   C38 1297   0.857   1.415   7.641 -0.0999 -0.3764  0.2383
   10SAPS   H8X 1298   0.914   1.492   7.585  1.2575 -1.1742  0.4615
   10SAPS   H8Y 1299   0.923   1.325   7.635 -0.1464 -0.3420 -1.2318
   10SAPS   C39 1300   0.829   1.449   7.785 -0.2297 -0.1547 -0.0037
   10SAPS   H9X 1301   0.785   1.367   7.844  0.7667 -0.0892  0.8538
   10SAPS   H9Y 1302   0.757   1.533   7.782  1.1933  1.0963 -1.5320
   10SAPS  C310 1303   0.955   1.484   7.864  0.1112 -0.0880  0.0830
   10SAPS  H10X 1304   1.019   1.394   7.866 -1.2515 -1.0668  1.2534
   10SAPS  H10Y 1305   0.930   1.502   7.970 -0.2017 -0.7900  0.1269
   10SAPS  C311 1306   1.035   1.605   7.809  0.9322  0.1880 -0.4142
   10SAPS  H11X 1307   0.973   1.677   7.752 -3.0365 -3.2920 -1.0625
   10SAPS  H11Y 1308   1.098   1.566   7.726  0.1849  1.4974 -1.6334
   10SAPS  C312 1309   1.132   1.673   7.909 -0.1331  0.4242  0.0329
   10SAPS  H12X 1310   1.201   1.601   7.958  0.0218 -0.2659 -1.1666
   10SAPS  H12Y 1311   1.056   1.710   7.981 -1.0126  0.0216 -0.6714
   10SAPS  C313 1312   1.199   1.795   7.855 -0.2029 -0.2568 -0.5181
   10SAPS  H13X 1313   1.129   1.861   7.800  0.9155  1.2664 -0.1773
   10SAPS  H13Y 1314   1.275   1.755   7.784 -1.2639 -0.2094 -1.7148
   10SAPS  C314 1315   1.272   1.881   7.954  0.2950  0.3227  0.1017
   10SAPS  H14X 1316   1.200   1.941   8.013 -0.0914  1.3854 -1.3927
   10SAPS  H14Y 1317   1.325   1.959   7.896  0.8326 -0.3175 -0.2883
   10SAPS  C315 1318   1.352   1.792   8.058  0.0434 -0.5651  0.7614
   10SAPS  H15X 1319   1.405   1.725   7.987 -1.8673 -0.3636 -0.9374
   10SAPS  H15Y 1320   1.290   1.724   8.120  0.9294 -0.2507  2.0352
   10SAPS  C316 1321   1.449   1.868   8.137 -0.1995  0.2552  0.0570
   10SAPS  H16X 1322   1.403   1.937   8.211  3.2494 -0.8104  3.5654
   10SAPS  H16Y 1323   1.526   1.917   8.074 -0.0343 -0.0564  0.0134
   10SAPS  C317 1324   1.522   1.775   8.242  0.2398  0.1889  0.3704
   10SAPS  H17X 1325   1.598   1.713   8.191 -0.2190  0.4329 -0.6328
   10SAPS  H17Y 1326   1.451   1.703   8.288  0.4757  1.4443  2.8953
   10SAPS  C318 1327   1.585   1.848   8.360 -0.5287 -0.0954  0.5558
   10SAPS  H18X 1328   1.607   1.775   8.440  0.4494 -2.5240 -1.7949
   10SAPS  H18Y 1329   1.525   1.927   8.411 -0.1370 -0.1265  1.0751
   10SAPS  H18Z 1330   1.678   1.893   8.319 -0.6592  1.0533  1.4702
   11SAPS     N 1331   3.177   1.872   5.355  0.1112 -0.0700 -0.6118
   11SAPS   HN1 1332   3.124   1.794   5.398  0.1732  0.7825  1.0976
   11SAPS   HN2 1333   3.125   1.934   5.290  0.3231 -1.6895 -2.4059
   11SAPS   HN3 1334   3.258   1.838   5.299  0.5828  1.8716 -1.1838
   11SAPS   C12 1335   3.229   1.954   5.466 -0.1462  0.5013  0.0530
   11SAPS  H12A 1336   3.314   1.905   5.512 -1.5272 -2.3009 -0.1821
   11SAPS   C13 1337   3.281   2.094   5.423 -0.0602  0.2445 -0.3359
   11SAPS  O13A 1338   3.241   2.148   5.322 -0.0608 -0.1231 -0.7019
   11SAPS  O13B 1339   3.355   2.150   5.510 -1.0778 -0.1899 -0.1739
   11SAPS   C11 1340   3.124   1.961   5.581 -0.1969 -0.5357 -0.0905
   11SAPS  H11A 1341   3.029   2.005   5.545 -0.0773 -0.0471  0.1875
   11SAPS  H11B 1342   3.167   2.039   5.648 -2.0209 -0.5171  1.1153
   11SAPS     P 1343   3.177   1.778   5.776  0.0484 -0.0599  0.1231
   11SAPS   O13 1344   3.099   1.661   5.832  0.1699  0.2981 -0.0964
   11SAPS   O14 1345   3.318   1.756   5.739  0.5396 -0.3040 -0.1133
   11SAPS   O12 1346   3.102   1.841   5.652  0.3331  0.4536  0.0789
   11SAPS   O11 1347   3.174   1.896   5.881 -0.3410  0.4114 -0.1357
   11SAPS    C1 1348   3.053   1.962   5.914  0.0579 -0.1462 -0.1538
   11SAPS    HA 1349   3.038   2.041   5.837 -0.3075  0.6511  0.7070
   11SAPS    HB 1350   2.969   1.889   5.914 -1.8793  1.8495 -3.0190
   11SAPS    C2 1351   3.068   2.026   6.063 -0.7133  0.0445 -0.3218
   11SAPS    HS 1352   3.125   2.121   6.050  1.0128 -0.9320 -0.0609
   11SAPS   O21 1353   3.148   1.939   6.151  0.8904  0.4080 -0.3419
   11SAPS   C21 1354   3.097   1.822   6.194 -0.1336  0.6953 -0.4993
   11SAPS   O22 1355   2.985   1.779   6.174  0.2275  0.3221  0.5858
   11SAPS   C22 1356   3.196   1.756   6.289 -0.3316 -0.1329  0.3849
   11SAPS   H2R 1357   3.171   1.648   6.294 -0.4237 -0.2061 -1.1490
   11SAPS   H2S 1358   3.303   1.753   6.258  0.5845  0.1364  3.2425
   11SAPS    C3 1359   2.924   2.058   6.112  0.2622  0.1970 -0.2320
   11SAPS    HX 1360   2.867   1.963   6.118 -1.4666  1.1937 -0.1042
   11SAPS    HY 1361   2.877   2.131   6.042  0.0393  0.1289 -0.1559
   11SAPS   O31 1362   2.936   2.120   6.240 -0.4768  0.5225 -0.2328
   11SAPS   C31 1363   2.819   2.138   6.302  0.1742 -0.3873  0.5184
   11SAPS   O32 1364   2.717   2.077   6.272 -0.4360 -0.0992 -0.7417
   11SAPS   C32 1365   2.826   2.244   6.405  0.6577  0.0073 -0.2402
   11SAPS   H2X 1366   2.733   2.305   6.403  0.5380 -0.1871 -1.1857
   11SAPS   H2Y 1367   2.912   2.312   6.388 -0.4094  1.0963 -1.4497
   11SAPS   C23 1368   3.194   1.812   6.432  0.3139  0.5514 -0.0688
   11SAPS   H3R 1369   3.228   1.918   6.427  1.2273  0.2692 -0.0086
   11SAPS   H3S 1370   3.269   1.751   6.488  0.2850 -0.4955 -1.1419
   11SAPS   C24 1371   3.056   1.803   6.496  0.3608 -0.3804  0.8677
   11SAPS   H4R 1372   2.976   1.825   6.422  2.2825 -1.0631 -1.5359
   11SAPS   H4S 1373   3.052   1.896   6.557 -0.7470  0.1040  0.0877
   11SAPS   C25 1374   3.024   1.670   6.565  1.1645  0.0694 -0.0289
   11SAPS   H5R 1375   2.998   1.593   6.492 -0.9644  0.8290 -0.1262
   11SAPS   C26 1376   3.011   1.637   6.698  0.1272 -0.8816  0.3071
   11SAPS   H6R 1377   2.994   1.536   6.737  0.6810 -1.6924 -1.4156
   11SAPS   C27 1378   3.041   1.737   6.803 -0.4511  0.2072 -0.3022
   11SAPS   H7R 1379   3.053   1.841   6.765  0.1665 -0.2948 -1.5221
   11SAPS   H7S 1380   3.140   1.720   6.851 -0.3663  1.1962 -0.1049
   11SAPS   C28 1381   2.934   1.761   6.903 -0.9106 -0.1809 -0.7773
   11SAPS   H8R 1382   2.883   1.858   6.888 -0.6363 -0.0759 -1.0497
   11SAPS   C29 1383   2.890   1.684   7.005 -0.2043 -0.5221  0.5366
   11SAPS   H9R 1384   2.802   1.714   7.063 -0.5198  2.2805 -1.2382
   11SAPS  C210 1385   2.951   1.555   7.043  0.6796 -0.0488  0.3134
   11SAPS  H10R 1386   3.046   1.578   7.094 -0.1740 -2.3416  3.2163
   11SAPS  H10S 1387   2.982   1.495   6.954 -1.3831  1.2355 -1.3706
   11SAPS  C211 1388   2.878   1.472   7.150 -0.9720 -0.3402 -0.0051
   11SAPS  H11R 1389   2.841   1.374   7.116 -1.3586 -0.1749 -0.0667
   11SAPS  C212 1390   2.873   1.495   7.283 -0.0284  1.2651  0.5456
   11SAPS  H12R 1391   2.820   1.413   7.335  1.5167 -0.0123  0.1720
   11SAPS  C213 1392   2.939   1.597   7.365  0.3841  0.4946 -0.4287
   11SAPS  H13R 1393   2.959   1.685   7.301  0.2785 -0.2515 -1.5154
   11SAPS  H13S 1394   3.040   1.573   7.405  0.0906  0.2056  0.1634
   11SAPS  C214 1395   2.836   1.659   7.459  0.4418 -0.3909  0.0796
   11SAPS  H14R 1396   2.758   1.723   7.416  0.6435  0.2426  0.6384
   11SAPS  C215 1397   2.842   1.654   7.591 -1.0333  0.7393 -0.1954
   11SAPS  H15R 1398   2.768   1.716   7.643 -0.3037  2.1197 -0.7455
   11SAPS  C216 1399   2.955   1.601   7.681  0.9466 -0.4152 -0.0153
   11SAPS  H16R 1400   2.963   1.666   7.771 -0.4389 -0.4870  0.1815
   11SAPS  H16S 1401   3.053   1.613   7.630  2.1088 -2.1805  1.6385
   11SAPS  C217 1402   2.936   1.455   7.741 -0.0707 -0.6269  0.7749
   11SAPS  H17R 1403   2.941   1.405   7.642  2.7197  1.4597 -0.2459
   11SAPS  H17S 1404   2.833   1.444   7.781 -0.4710 -2.8314 -0.6466
   11SAPS  C218 1405   3.036   1.421   7.850  0.5386 -0.7244  0.0389
   11SAPS  H18R 1406   3.044   1.504   7.924  1.6177  0.3272 -1.2030
   11SAPS  H18S 1407   3.132   1.394   7.800  0.0330  1.3013 -2.2051
   11SAPS  C219 1408   2.992   1.296   7.925 -0.0627 -0.4199 -0.7411
   11SAPS  H19R 1409   2.981   1.205   7.862  0.3699 -3.5023  3.2237
   11SAPS  H19S 1410   2.890   1.313   7.964  0.7295  0.6716  0.9601
   11SAPS  C220 1411   3.080   1.260   8.047 -0.5707 -0.1915 -0.5878
   11SAPS  H20R 1412   3.087   1.341   8.123 -0.3167  1.5572 -2.3814
   11SAPS  H20S 1413   3.183   1.244   8.009 -0.6862 -0.1330 -0.9221
   11SAPS  H20T 1414   3.037   1.174   8.102 -1.7857  1.4441  1.1630
   11SAPS   C33 1415   2.830   2.171   6.540 -0.3723  0.4928 -0.4462
   11SAPS   H3X 1416   2.933   2.133   6.556 -1.0138 -0.6513  1.1599
   11SAPS   H3Y 1417   2.760   2.085   6.538 -1.1733  1.0843 -3.6824
   11SAPS   C34 1418   2.805   2.253   6.669  0.7140  0.7438  0.2827
   11SAPS   H4X 1419   2.699   2.281   6.682  0.2225 -1.2528  1.0129
   11SAPS   H4Y 1420   2.870   2.343   6.674  0.8868  0.5520  1.8065
   11SAPS   C35 1421   2.847   2.177   6.792  0.0899  0.1852  0.6707
   11SAPS   H5X 1422   2.954   2.148   6.788 -0.3944 -1.5962 -0.3049
   11SAPS   H5Y 1423   2.788   2.084   6.806 -1.3645  0.9698 -0.0464
   11SAPS   C36 1424   2.812   2.265   6.919  0.0660  0.0316  0.0890
   11SAPS   H6X 1425   2.702   2.271   6.907  0.2569  1.4724 -1.4221
   11SAPS   H6Y 1426   2.851   2.368   6.905 -3.7149  1.5434 -0.2579
   11SAPS   C37 1427   2.838   2.194   7.049 -0.5284  0.2187  0.7055
   11SAPS   H7X 1428   2.945   2.164   7.049 -0.0227  1.4463 -3.8098
   11SAPS   H7Y 1429   2.788   2.098   7.024  0.6732 -0.4382  0.7294
   11SAPS   C38 1430   2.782   2.249   7.177 -0.2580 -0.6139  0.4508
   11SAPS   H8X 1431   2.674   2.262   7.152 -0.0165  3.2239  0.7079
   11SAPS   H8Y 1432   2.834   2.344   7.203  1.1980 -1.2102 -0.1668
   11SAPS   C39 1433   2.811   2.157   7.295 -0.4601 -0.5172 -0.2025
   11SAPS   H9X 1434   2.919   2.153   7.324 -0.8027 -2.6115  1.0043
   11SAPS   H9Y 1435   2.769   2.056   7.274 -2.0995  0.4208 -1.6330
   11SAPS  C310 1436   2.752   2.209   7.424  0.2463  0.1651 -0.7640
   11SAPS  H10X 1437   2.650   2.252   7.413 -0.4464 -1.5803 -1.4336
   11SAPS  H10Y 1438   2.810   2.303   7.439 -0.7736  0.7731 -0.5440
   11SAPS  C311 1439   2.749   2.114   7.552 -0.8861 -0.0901  0.1862
   11SAPS  H11X 1440   2.695   2.022   7.521  1.4323 -2.3668  2.3282
   11SAPS  H11Y 1441   2.692   2.169   7.631 -1.3795 -0.6932  0.2532
   11SAPS  C312 1442   2.889   2.071   7.597 -0.3211 -0.3188 -0.0977
   11SAPS  H12X 1443   2.960   2.156   7.594  1.8216 -2.0318  0.2274
   11SAPS  H12Y 1444   2.920   2.009   7.510 -1.9429 -3.5879  1.4787
   11SAPS  C313 1445   2.897   1.991   7.730  0.6285  0.7913 -0.1148
   11SAPS  H13X 1446   2.990   1.931   7.732 -0.5239 -1.1014  2.2862
   11SAPS  H13Y 1447   2.814   1.917   7.735 -0.5753  2.0557 -0.6258
   11SAPS  C314 1448   2.886   2.078   7.861 -0.0029 -0.5840  0.1482
   11SAPS  H14X 1449   2.800   2.147   7.850  0.0183 -0.3973  1.0829
   11SAPS  H14Y 1450   2.979   2.139   7.858 -0.0053 -0.5967 -0.1828
   11SAPS  C315 1451   2.890   2.015   7.991 -0.1812 -0.5602 -0.5315
   11SAPS  H15X 1452   2.949   1.921   7.989  1.7011  0.5667 -3.0452
   11SAPS  H15Y 1453   2.784   1.983   8.003 -0.4491  1.0926  2.4157
   11SAPS  C316 1454   2.935   2.112   8.107  0.1910  1.1518  0.0965
   11SAPS  H16X 1455   2.864   2.197   8.108 -1.9174 -0.5407  1.0902
   11SAPS  H16Y 1456   3.038   2.155   8.102  1.6431 -1.9018  1.1962
   11SAPS  C317 1457   2.927   2.047   8.248  0.5202 -0.1410 -0.2774
   11SAPS  H17X 1458   2.830   1.995   8.265  1.5936 -2.2962 -0.3745
   11SAPS  H17Y 1459   2.928   2.126   8.326  2.0089  0.5353 -0.9318
   11SAPS  C318 1460   3.049   1.966   8.287 -0.0779  0.0041  0.9560
   11SAPS  H18X 1461   3.032   1.887   8.363  0.1306 -0.2675  0.7225
   11SAPS  H18Y 1462   3.125   2.036   8.327 -0.0016  0.6104 -0.2031
   11SAPS  H18Z 1463   3.081   1.908   8.198  1.1572  3.3308 -0.9578
   12SAPS     N 1464   2.512   5.751   5.898 -0.1929 -0.4339 -0.4487
   12SAPS   HN1 1465   2.585   5.759   5.824  0.1362  1.9708  0.0460
   12SAPS   HN2 1466   2.536   5.830   5.962  0.7025 -1.8141  0.9962
   12SAPS   HN3 1467   2.502   5.668   5.961 -1.2431  1.8176  2.6119
   12SAPS   C12 1468   2.381   5.765   5.831 -0.1003 -0.0068  0.6629
   12SAPS  H12A 1469   2.405   5.840   5.757 -1.7815 -0.0059  0.0548
   12SAPS   C13 1470   2.333   5.640   5.749  1.0083  0.6662 -0.4084
   12SAPS  O13A 1471   2.400   5.533   5.729 -0.0376 -0.4120  0.4557
   12SAPS  O13B 1472   2.215   5.654   5.704 -0.7797  0.1705  0.3376
   12SAPS   C11 1473   2.280   5.818   5.933 -0.6165 -0.2062  0.3668
   12SAPS  H11A 1474   2.187   5.831   5.874  1.1086 -0.6439 -2.6747
   12SAPS  H11B 1475   2.316   5.919   5.962 -1.2578  0.4939 -1.1390
   12SAPS     P 1476   2.197   5.768   6.184  0.1270 -0.5260  0.0883
   12SAPS   O13 1477   2.172   5.915   6.185 -0.0506  0.2117  0.0776
   12SAPS   O14 1478   2.093   5.666   6.209  0.2935  0.4055 -0.3543
   12SAPS   O12 1479   2.271   5.731   6.046  0.4427  0.4630  0.1010
   12SAPS   O11 1480   2.309   5.741   6.297  0.0239  0.5735 -0.7265
   12SAPS    C1 1481   2.391   5.626   6.276 -0.9153 -0.3926 -0.6976
   12SAPS    HA 1482   2.340   5.537   6.232 -1.1971 -0.8573  0.5385
   12SAPS    HB 1483   2.473   5.647   6.204  1.7684 -2.4861  1.5488
   12SAPS    C2 1484   2.459   5.590   6.413 -0.0142 -0.7200  0.0110
   12SAPS    HS 1485   2.531   5.509   6.390  0.1961 -0.3185 -0.8082
   12SAPS   O21 1486   2.367   5.555   6.514 -0.1626 -0.5903 -0.0354
   12SAPS   C21 1487   2.315   5.436   6.501  0.0414  0.7031 -0.2897
   12SAPS   O22 1488   2.357   5.354   6.415 -0.0663 -0.0207 -0.5033
   12SAPS   C22 1489   2.214   5.403   6.613 -0.0589  0.0472  0.3639
   12SAPS   H2R 1490   2.250   5.339   6.696 -0.3912  0.9650  1.2439
   12SAPS   H2S 1491   2.199   5.497   6.671  3.1465  1.0092 -0.1517
   12SAPS    C3 1492   2.550   5.708   6.464 -0.3762  0.2105  0.7665
   12SAPS    HX 1493   2.482   5.796   6.464  1.9923  2.1731 -0.8141
   12SAPS    HY 1494   2.628   5.730   6.388 -1.6247 -0.3310 -0.7264
   12SAPS   O31 1495   2.613   5.670   6.594 -0.7220  0.0011  0.4503
   12SAPS   C31 1496   2.553   5.727   6.701 -0.9358  0.1631 -0.0759
   12SAPS   O32 1497   2.453   5.791   6.701  0.0440  0.3214 -0.3008
   12SAPS   C32 1498   2.633   5.702   6.831  0.3825 -0.3310  0.5826
   12SAPS   H2X 1499   2.667   5.799   6.873 -0.1477 -0.1650  0.6312
   12SAPS   H2Y 1500   2.722   5.644   6.797 -0.3204 -0.2392 -1.5256
   12SAPS   C23 1501   2.078   5.356   6.554 -0.4686 -0.2508  0.0590
   12SAPS   H3R 1502   2.089   5.258   6.504 -0.5938  0.9075 -2.4146
   12SAPS   H3S 1503   2.051   5.427   6.473  1.9117  1.6503  0.7906
   12SAPS   C24 1504   1.971   5.354   6.658  0.3017  0.3310 -0.2129
   12SAPS   H4R 1505   1.884   5.325   6.595 -0.4587  0.6942  0.6496
   12SAPS   H4S 1506   1.969   5.457   6.699 -0.2198 -0.6939  2.5082
   12SAPS   C25 1507   2.004   5.255   6.767 -0.3656 -0.9218 -0.9958
   12SAPS   H5R 1508   2.064   5.166   6.741  4.3171  0.9120  2.3023
   12SAPS   C26 1509   1.973   5.271   6.898  0.2862  0.1838  1.5532
   12SAPS   H6R 1510   1.984   5.186   6.968 -2.8728  1.1015  3.3791
   12SAPS   C27 1511   1.899   5.383   6.958 -0.7242 -0.7984 -0.3295
   12SAPS   H7R 1512   1.794   5.355   6.981 -0.8083  0.3105  0.7038
   12SAPS   H7S 1513   1.896   5.469   6.888 -0.3290 -0.4024  0.1382
   12SAPS   C28 1514   1.973   5.435   7.080  0.0363  0.6716  0.0326
   12SAPS   H8R 1515   2.074   5.472   7.058 -0.3026  0.7801 -1.4188
   12SAPS   C29 1516   1.945   5.421   7.211 -0.5503 -0.5032  0.7541
   12SAPS   H9R 1517   2.011   5.475   7.281 -0.5035  0.4018  0.0338
   12SAPS  C210 1518   1.826   5.358   7.269 -0.3664 -0.1067 -0.9245
   12SAPS  H10R 1519   1.745   5.371   7.195 -0.4636  1.5441 -0.5652
   12SAPS  H10S 1520   1.799   5.409   7.364  1.2756  0.0991 -0.5432
   12SAPS  C211 1521   1.841   5.214   7.302  0.7636  0.0350  1.1898
   12SAPS  H11R 1522   1.877   5.154   7.217 -1.3368 -0.1118  0.3596
   12SAPS  C212 1523   1.812   5.139   7.409  0.0334 -0.3168  0.5910
   12SAPS  H12R 1524   1.832   5.031   7.400  2.2616  0.0247  0.9799
   12SAPS  C213 1525   1.755   5.180   7.535 -0.1525 -0.1045 -0.3341
   12SAPS  H13R 1526   1.753   5.290   7.555  2.7005  0.4555 -2.4651
   12SAPS  H13S 1527   1.824   5.144   7.614 -0.4900  2.4919  1.3067
   12SAPS  C214 1528   1.613   5.132   7.558  0.4852  0.4685 -0.8440
   12SAPS  H14R 1529   1.553   5.132   7.466  0.8849 -1.0344 -1.1338
   12SAPS  C215 1530   1.561   5.108   7.681 -0.4491  0.5928 -0.4648
   12SAPS  H15R 1531   1.453   5.089   7.688 -0.1403 -2.2814 -1.9312
   12SAPS  C216 1532   1.639   5.128   7.812  0.2511 -0.5162 -0.1622
   12SAPS  H16R 1533   1.699   5.221   7.806 -1.5800  0.7920  0.7873
   12SAPS  H16S 1534   1.716   5.050   7.826 -0.5048 -1.0263  1.3679
   12SAPS  C217 1535   1.544   5.135   7.929  0.5615 -0.3159  0.3584
   12SAPS  H17R 1536   1.594   5.114   8.026  0.9931  2.3459  0.7809
   12SAPS  H17S 1537   1.466   5.057   7.909  0.1715 -0.2103  1.3817
   12SAPS  C218 1538   1.472   5.270   7.959  0.1268  0.5832  0.1691
   12SAPS  H18R 1539   1.406   5.292   7.873  0.0284 -1.3354 -0.2960
   12SAPS  H18S 1540   1.546   5.353   7.960 -1.0667  1.6773  1.2245
   12SAPS  C219 1541   1.397   5.281   8.097  0.0438  0.5516 -0.3640
   12SAPS  H19R 1542   1.465   5.240   8.174 -2.2493  0.4089  1.7326
   12SAPS  H19S 1543   1.307   5.216   8.106  1.8937 -2.1284 -0.1524
   12SAPS  C220 1544   1.353   5.421   8.137  0.3946  0.0378  0.3878
   12SAPS  H20R 1545   1.296   5.401   8.230  0.3960  0.5945  0.5070
   12SAPS  H20S 1546   1.272   5.458   8.071  0.1813  1.3666  1.3496
   12SAPS  H20T 1547   1.428   5.493   8.176 -0.6348  0.6933  1.2092
   12SAPS   C33 1548   2.542   5.642   6.941 -0.0796 -0.2381  0.3576
   12SAPS   H3X 1549   2.616   5.601   7.013 -0.9502 -2.4350  0.0826
   12SAPS   H3Y 1550   2.481   5.559   6.899  0.1601  0.3375 -1.1967
   12SAPS   C34 1551   2.451   5.746   7.019 -0.6444  0.2683 -0.1616
   12SAPS   H4X 1552   2.398   5.818   6.952 -1.0762  0.0965 -0.0121
   12SAPS   H4Y 1553   2.523   5.801   7.083 -0.0403  2.1174 -2.3098
   12SAPS   C35 1554   2.348   5.682   7.112 -0.8635 -0.1892  0.4904
   12SAPS   H5X 1555   2.281   5.638   7.035 -1.1400 -0.0966  0.6741
   12SAPS   H5Y 1556   2.286   5.761   7.161 -0.6526  0.3435 -0.0828
   12SAPS   C36 1557   2.414   5.584   7.209  0.1671 -0.2345  0.2070
   12SAPS   H6X 1558   2.501   5.631   7.258 -2.0435  2.1740  2.1518
   12SAPS   H6Y 1559   2.454   5.499   7.150  0.8697  0.7165 -0.7164
   12SAPS   C37 1560   2.342   5.527   7.326  0.1430  0.1026 -0.3208
   12SAPS   H7X 1561   2.410   5.462   7.386 -0.7421 -2.3110 -1.8139
   12SAPS   H7Y 1562   2.269   5.456   7.282 -2.6858  2.1446  0.7510
   12SAPS   C38 1563   2.264   5.636   7.406  0.3357 -0.3754 -0.8320
   12SAPS   H8X 1564   2.172   5.667   7.351  0.0922  2.2280  0.8950
   12SAPS   H8Y 1565   2.320   5.731   7.413 -0.4968  0.1237 -0.8687
   12SAPS   C39 1566   2.221   5.595   7.546 -0.2260  0.4528 -0.2401
   12SAPS   H9X 1567   2.132   5.656   7.573 -0.3517  1.0530 -1.8865
   12SAPS   H9Y 1568   2.304   5.622   7.614 -0.8551  0.0516  0.7088
   12SAPS  C310 1569   2.166   5.446   7.570 -0.0600 -0.7666 -0.0375
   12SAPS  H10X 1570   2.257   5.382   7.568  1.5283  1.3687  0.3313
   12SAPS  H10Y 1571   2.082   5.425   7.500 -0.4946  0.1500  0.1918
   12SAPS  C311 1572   2.119   5.428   7.717  0.0395 -0.1238  0.3165
   12SAPS  H11X 1573   2.192   5.474   7.786  0.4455 -0.7175  0.2955
   12SAPS  H11Y 1574   2.122   5.322   7.750 -2.3520 -0.3092  0.0839
   12SAPS  C312 1575   1.980   5.490   7.739  0.3911  0.1805  0.5598
   12SAPS  H12X 1576   1.899   5.452   7.674  0.5991  1.2033 -0.3315
   12SAPS  H12Y 1577   1.977   5.600   7.723  0.7250  0.2128  0.7023
   12SAPS  C313 1578   1.933   5.459   7.880 -0.0722 -0.2519  0.3657
   12SAPS  H13X 1579   2.014   5.492   7.948  2.3346  0.4450 -2.6228
   12SAPS  H13Y 1580   1.928   5.348   7.882  0.5534 -0.2796  0.5503
   12SAPS  C314 1581   1.794   5.506   7.914 -0.2382  0.4597  1.0718
   12SAPS  H14X 1582   1.711   5.448   7.868  0.7587 -1.0440  1.1101
   12SAPS  H14Y 1583   1.794   5.612   7.881  0.2859 -0.1601 -1.0706
   12SAPS  C315 1584   1.770   5.500   8.072 -0.0188 -0.0608  0.1699
   12SAPS  H15X 1585   1.663   5.519   8.094  0.1245  2.1186 -0.8289
   12SAPS  H15Y 1586   1.833   5.576   8.123  3.1558 -2.4149  0.0504
   12SAPS  C316 1587   1.806   5.355   8.116 -1.0428 -0.5654  0.1100
   12SAPS  H16X 1588   1.916   5.351   8.103 -0.8086  4.2368 -1.5224
   12SAPS  H16Y 1589   1.759   5.275   8.054  0.7476 -0.5637 -1.3398
   12SAPS  C317 1590   1.782   5.345   8.261  0.2462 -0.9001  0.2512
   12SAPS  H17X 1591   1.684   5.390   8.288  0.2080 -0.9817  0.2482
   12SAPS  H17Y 1592   1.863   5.401   8.314  1.8138 -3.0330  0.2291
   12SAPS  C318 1593   1.776   5.201   8.292 -0.1193  0.3728 -0.8630
   12SAPS  H18X 1594   1.861   5.147   8.244 -0.7933 -0.6438 -0.9404
   12SAPS  H18Y 1595   1.681   5.151   8.264 -0.1821  0.2971 -0.5152
   12SAPS  H18Z 1596   1.785   5.184   8.401 -1.9161  0.7371 -0.6323
   13SAPS     N 1597   3.829   0.450   6.216  0.5534  0.1599 -0.5018
   13SAPS   HN1 1598   3.889   0.366   6.224 -0.8902 -0.7929  1.0492
   13SAPS   HN2 1599   3.829   0.515   6.298 -0.5601  1.0965 -1.2037
   13SAPS   HN3 1600   3.732   0.411   6.214  0.1113  0.9113  2.0198
   13SAPS   C12 1601   3.845   0.525   6.092 -0.3216 -0.6114  0.4607
   13SAPS  H12A 1602   3.942   0.572   6.093  0.0300 -1.2466 -1.1064
   13SAPS   C13 1603   3.848   0.441   5.959  0.7608  0.1750  0.3450
   13SAPS  O13A 1604   3.849   0.315   5.960 -0.4775  0.4236  0.0300
   13SAPS  O13B 1605   3.846   0.508   5.854 -0.1339  0.3125  0.4232
   13SAPS   C11 1606   3.731   0.633   6.087  0.9767 -0.3593  0.5600
   13SAPS  H11A 1607   3.636   0.577   6.075  1.5280 -1.1756 -0.0782
   13SAPS  H11B 1608   3.744   0.696   5.996  0.1391 -0.9058  0.0505
   13SAPS     P 1609   3.614   0.811   6.232 -0.0170  0.4191  0.2153
   13SAPS   O13 1610   3.508   0.797   6.124  0.1800  0.0309 -0.2973
   13SAPS   O14 1611   3.569   0.776   6.369  0.0625 -0.4224 -0.2250
   13SAPS   O12 1612   3.736   0.712   6.205 -0.5423 -0.1790 -0.7128
   13SAPS   O11 1613   3.670   0.954   6.219  0.2779 -0.1976 -0.2506
   13SAPS    C1 1614   3.808   0.990   6.247  0.2135 -0.1081 -0.1416
   13SAPS    HA 1615   3.880   0.906   6.236  1.5481  0.9536  0.1360
   13SAPS    HB 1616   3.847   1.074   6.185  1.5992  2.0982  3.4135
   13SAPS    C2 1617   3.821   1.052   6.392 -0.3828  0.0141 -0.5254
   13SAPS    HS 1618   3.923   1.076   6.432  0.1032 -2.0130 -0.4690
   13SAPS   O21 1619   3.762   0.971   6.486  0.0133 -0.5789 -0.2275
   13SAPS   C21 1620   3.832   0.868   6.526 -0.0970 -0.3250 -0.1848
   13SAPS   O22 1621   3.942   0.832   6.493  0.0202  0.2976 -0.0942
   13SAPS   C22 1622   3.754   0.812   6.645  0.2118  0.5396  0.2538
   13SAPS   H2R 1623   3.693   0.891   6.692  0.6698  0.1031  1.6294
   13SAPS   H2S 1624   3.686   0.739   6.596  1.1643 -1.0804  1.2516
   13SAPS    C3 1625   3.748   1.190   6.389 -0.1711 -0.1530  0.4761
   13SAPS    HX 1626   3.647   1.170   6.347 -0.1234 -0.4013  0.4758
   13SAPS    HY 1627   3.793   1.255   6.311 -2.6598  2.6469  1.2151
   13SAPS   O31 1628   3.762   1.260   6.512  0.1182 -0.1049  0.1605
   13SAPS   C31 1629   3.659   1.251   6.588  0.4071  0.1582 -0.3013
   13SAPS   O32 1630   3.550   1.194   6.563 -0.4043 -0.2717 -0.2838
   13SAPS   C32 1631   3.679   1.341   6.714  0.7191 -0.2921 -0.7052
   13SAPS   H2X 1632   3.606   1.425   6.711  0.4040 -0.4406  1.2670
   13SAPS   H2Y 1633   3.785   1.373   6.724  0.2890  0.7712  0.7905
   13SAPS   C23 1634   3.854   0.753   6.755 -0.6910 -0.1726 -0.0063
   13SAPS   H3R 1635   3.919   0.837   6.789  0.1623 -0.5034 -0.7658
   13SAPS   H3S 1636   3.921   0.680   6.705  1.6699  0.2824  2.3018
   13SAPS   C24 1637   3.767   0.694   6.876 -0.4434 -0.0100 -0.7087
   13SAPS   H4R 1638   3.689   0.629   6.831  0.1041 -0.1932 -1.4099
   13SAPS   H4S 1639   3.741   0.789   6.927 -1.4026 -0.4515 -0.3634
   13SAPS   C25 1640   3.851   0.609   6.960 -0.0571  0.0427  0.1237
   13SAPS   H5R 1641   3.873   0.517   6.904 -1.0964 -0.6830  0.8735
   13SAPS   C26 1642   3.879   0.626   7.091  0.0762  0.3367  0.3521
   13SAPS   H6R 1643   3.935   0.542   7.134  0.8239  0.6985  0.0918
   13SAPS   C27 1644   3.846   0.741   7.187  0.0939 -0.1982 -0.4891
   13SAPS   H7R 1645   3.768   0.728   7.266 -1.4109  3.8620 -1.0521
   13SAPS   H7S 1646   3.801   0.821   7.124 -1.9554  0.1793  1.3236
   13SAPS   C28 1647   3.979   0.795   7.235 -0.4638 -0.0083  1.2176
   13SAPS   H8R 1648   4.041   0.831   7.151 -1.4804  2.0729  1.2878
   13SAPS   C29 1649   4.022   0.813   7.361 -0.3639 -0.2850  0.4428
   13SAPS   H9R 1650   4.127   0.837   7.384 -0.6695  2.6811 -0.7629
   13SAPS  C210 1651   3.949   0.772   7.485  0.4980  0.2782 -0.4349
   13SAPS  H10R 1652   4.020   0.725   7.556 -0.5375  0.4185  0.7300
   13SAPS  H10S 1653   3.865   0.704   7.461 -0.3996  1.7371 -1.5919
   13SAPS  C211 1654   3.891   0.897   7.550  0.1042  0.3599  0.0967
   13SAPS  H11R 1655   3.852   0.973   7.481 -0.1783 -0.3388 -0.5389
   13SAPS  C212 1656   3.908   0.925   7.678 -0.2164 -0.2873  0.4353
   13SAPS  H12R 1657   3.860   1.016   7.718 -1.1601 -0.9207  0.7616
   13SAPS  C213 1658   3.982   0.853   7.787  0.0833  0.5676 -0.1637
   13SAPS  H13R 1659   3.965   0.743   7.782  1.4090  0.3943 -2.0277
   13SAPS  H13S 1660   3.940   0.886   7.885  1.7546 -0.2542  0.8798
   13SAPS  C214 1661   4.131   0.870   7.785 -0.3813  0.1530 -0.0095
   13SAPS  H14R 1662   4.172   0.921   7.697 -0.1869  0.2612  0.1443
   13SAPS  C215 1663   4.204   0.818   7.888 -0.6026 -0.1207 -0.0379
   13SAPS  H15R 1664   4.313   0.831   7.882 -0.5109 -0.9444 -0.2371
   13SAPS  C216 1665   4.153   0.739   8.005 -0.1420 -0.1169  0.2900
   13SAPS  H16R 1666   4.199   0.638   8.001 -2.5738 -1.3278  0.8658
   13SAPS  H16S 1667   4.045   0.712   8.007 -0.0443 -0.9370 -2.1451
   13SAPS  C217 1668   4.178   0.797   8.137 -0.7547  0.3127  0.3145
   13SAPS  H17R 1669   4.275   0.845   8.160  0.8971 -3.0223  0.8586
   13SAPS  H17S 1670   4.178   0.709   8.204  0.3630  0.1143  0.0747
   13SAPS  C218 1671   4.066   0.892   8.187  0.1905 -0.1472  1.0535
   13SAPS  H18R 1672   3.961   0.855   8.179 -0.5780  2.0881 -0.1360
   13SAPS  H18S 1673   4.060   0.984   8.125 -3.2058 -0.9636 -0.0347
   13SAPS  C219 1674   4.085   0.937   8.328  0.3362  0.0289  0.1468
   13SAPS  H19R 1675   4.074   0.850   8.396  0.0089  0.0876  0.1710
   13SAPS  H19S 1676   4.002   1.004   8.359 -0.7865 -1.1623 -0.1872
   13SAPS  C220 1677   4.219   1.005   8.365 -0.0629  0.5128 -0.3391
   13SAPS  H20R 1678   4.262   1.063   8.281  0.3189 -1.2176 -1.3994
   13SAPS  H20S 1679   4.302   0.936   8.394  0.6682  1.6118  0.2345
   13SAPS  H20T 1680   4.208   1.068   8.456  0.5790 -0.4759  0.4553
   13SAPS   C33 1681   3.642   1.260   6.836 -0.0099 -0.4473 -0.1519
   13SAPS   H3X 1682   3.551   1.199   6.818 -1.0463  0.8400  0.5891
   13SAPS   H3Y 1683   3.607   1.336   6.908 -1.2071  1.4134 -2.5252
   13SAPS   C34 1684   3.759   1.171   6.892 -0.3062 -1.0333 -0.3765
   13SAPS   H4X 1685   3.853   1.231   6.885 -2.1822  1.8550 -3.5123
   13SAPS   H4Y 1686   3.767   1.079   6.830 -1.4336 -2.4966  1.5272
   13SAPS   C35 1687   3.744   1.127   7.036  0.1901  0.3742 -0.1210
   13SAPS   H5X 1688   3.747   1.213   7.107 -1.0459  1.3524 -1.1988
   13SAPS   H5Y 1689   3.827   1.056   7.056  0.6623  0.1544 -2.5574
   13SAPS   C36 1690   3.605   1.064   7.078  0.4364  0.1645  0.2402
   13SAPS   H6X 1691   3.581   0.979   7.011 -0.8534 -0.0085  0.8947
   13SAPS   H6Y 1692   3.520   1.135   7.073  2.3032  2.4893 -1.0306
   13SAPS   C37 1693   3.600   1.013   7.219  0.4402  0.0945 -0.6709
   13SAPS   H7X 1694   3.608   1.097   7.291 -0.8764 -1.1544  1.0295
   13SAPS   H7Y 1695   3.670   0.929   7.240  1.4746  1.1858  0.3759
   13SAPS   C38 1696   3.460   0.958   7.253 -0.7165  0.0116 -0.2378
   13SAPS   H8X 1697   3.428   0.888   7.172 -1.9948 -0.8823  1.0056
   13SAPS   H8Y 1698   3.387   1.042   7.243  1.3511  1.8751 -0.3925
   13SAPS   C39 1699   3.444   0.907   7.397  0.3703  0.3249 -0.0242
   13SAPS   H9X 1700   3.337   0.878   7.410  0.2438  0.5933 -0.4503
   13SAPS   H9Y 1701   3.456   0.997   7.463  0.1040  0.2898  0.0758
   13SAPS  C310 1702   3.551   0.807   7.447  0.1162 -0.1837  0.0775
   13SAPS  H10X 1703   3.650   0.855   7.432 -0.5695  1.2700  0.1236
   13SAPS  H10Y 1704   3.542   0.710   7.392  0.4864 -1.2827  1.8825
   13SAPS  C311 1705   3.535   0.787   7.600  0.4213  0.1334  0.5922
   13SAPS  H11X 1706   3.430   0.751   7.614  1.0727 -2.1153  0.1688
   13SAPS  H11Y 1707   3.536   0.881   7.659  2.4139 -0.3686  1.4249
   13SAPS  C312 1708   3.628   0.690   7.668 -0.5869  0.3671  0.5742
   13SAPS  H12X 1709   3.733   0.681   7.634 -1.0539  0.2811 -0.9102
   13SAPS  H12Y 1710   3.582   0.589   7.666  1.2599 -0.5043 -0.1106
   13SAPS  C313 1711   3.636   0.710   7.821  0.3078 -0.4773 -0.5683
   13SAPS  H13X 1712   3.538   0.747   7.858  0.2935 -1.6599  0.6256
   13SAPS  H13Y 1713   3.706   0.796   7.832 -0.4458  0.6272 -3.3821
   13SAPS  C314 1714   3.677   0.586   7.894 -0.8551 -0.3351  0.3883
   13SAPS  H14X 1715   3.770   0.546   7.848 -0.9610  2.2568 -2.3411
   13SAPS  H14Y 1716   3.599   0.507   7.888 -0.7187 -0.5004  0.7218
   13SAPS  C315 1717   3.709   0.618   8.045  0.2673 -0.2025  0.0961
   13SAPS  H15X 1718   3.619   0.667   8.089 -0.7947 -0.7411 -1.3790
   13SAPS  H15Y 1719   3.797   0.685   8.045  0.3481 -0.0854 -3.5781
   13SAPS  C316 1720   3.752   0.497   8.135 -0.4083  0.6323 -0.3020
   13SAPS  H16X 1721   3.673   0.420   8.147  0.8977 -1.0059 -1.5903
   13SAPS  H16Y 1722   3.761   0.537   8.238 -0.2728 -0.7228  0.2429
   13SAPS  C317 1723   3.886   0.433   8.090 -0.0269 -0.6169 -0.0910
   13SAPS  H17X 1724   3.969   0.506   8.101  0.8689 -1.8120  1.4183
   13SAPS  H17Y 1725   3.873   0.402   7.984 -0.3366 -0.3362 -0.1364
   13SAPS  C318 1726   3.927   0.305   8.168  0.8429  0.8476  0.4803
   13SAPS  H18X 1727   4.029   0.324   8.208  0.3057  1.8484  1.4452
   13SAPS  H18Y 1728   3.945   0.211   8.113  2.8887 -0.9029  3.7969
   13SAPS  H18Z 1729   3.859   0.278   8.251 -0.6663  1.2275 -0.5983
   14SAPS     N 1730   1.647   1.741   5.964 -0.2351  0.4420  0.0520
   14SAPS   HN1 1731   1.744   1.716   5.937 -0.6214 -0.0969 -0.8989
   14SAPS   HN2 1732   1.652   1.828   6.020  1.2124 -0.5981  1.6265
   14SAPS   HN3 1733   1.612   1.665   6.026  1.0286 -0.1445  0.0781
   14SAPS   C12 1734   1.567   1.755   5.839  0.0255  0.1415 -0.1924
   14SAPS  H12A 1735   1.523   1.853   5.833 -1.7131 -0.5362  0.8622
   14SAPS   C13 1736   1.624   1.697   5.703  0.5704 -0.0840  0.2922
   14SAPS  O13A 1737   1.723   1.615   5.718 -0.1143 -0.5119 -0.2743
   14SAPS  O13B 1738   1.561   1.705   5.597  0.0104  0.1523  0.3622
   14SAPS   C11 1739   1.429   1.680   5.861  0.1399 -0.0389 -0.1894
   14SAPS  H11A 1740   1.449   1.571   5.863 -0.3879 -0.1363 -0.0888
   14SAPS  H11B 1741   1.371   1.709   5.770 -0.4071  0.7215  0.3880
   14SAPS     P 1742   1.249   1.825   5.991  0.1957  0.4076 -0.3302
   14SAPS   O13 1743   1.292   1.954   5.935  0.3047 -0.0784  0.1784
   14SAPS   O14 1744   1.127   1.759   5.943  0.1298 -0.0358 -0.4667
   14SAPS   O12 1745   1.366   1.720   5.986  0.3129  0.3437  0.2093
   14SAPS   O11 1746   1.236   1.840   6.151  0.0991  0.3241 -0.6878
   14SAPS    C1 1747   1.335   1.796   6.247 -0.2146 -0.0851 -0.1022
   14SAPS    HA 1748   1.295   1.717   6.314 -0.0885  1.0227  1.3266
   14SAPS    HB 1749   1.426   1.754   6.200  0.0068  0.5999 -0.3000
   14SAPS    C2 1750   1.371   1.915   6.346  0.8767  0.4240  0.2147
   14SAPS    HS 1751   1.471   1.896   6.390  0.2967 -0.6811  1.1045
   14SAPS   O21 1752   1.280   1.929   6.461  0.7239 -0.2743  0.4266
   14SAPS   C21 1753   1.274   1.830   6.537  0.2598  1.1424  0.0619
   14SAPS   O22 1754   1.359   1.741   6.540  0.1919 -0.1708  0.2926
   14SAPS   C22 1755   1.149   1.836   6.618 -0.0553 -0.0649 -0.5438
   14SAPS   H2R 1756   1.063   1.796   6.560 -0.2775 -0.9723  0.3657
   14SAPS   H2S 1757   1.171   1.774   6.708 -0.4787 -1.8560 -1.6237
   14SAPS    C3 1758   1.371   2.049   6.259 -0.5553 -0.6598 -0.3052
   14SAPS    HX 1759   1.272   2.073   6.215 -1.1346  0.1557  1.3697
   14SAPS    HY 1760   1.448   2.026   6.182 -1.2033 -0.2452 -1.0837
   14SAPS   O31 1761   1.419   2.154   6.348  0.8672  0.4786  0.1593
   14SAPS   C31 1762   1.325   2.241   6.395 -0.1170  0.5507  0.5089
   14SAPS   O32 1763   1.211   2.246   6.354  0.9588  0.3992 -0.4685
   14SAPS   C32 1764   1.389   2.349   6.487  0.7342 -0.3029 -0.1670
   14SAPS   H2X 1765   1.478   2.383   6.430  0.3715 -2.3805 -2.1162
   14SAPS   H2Y 1766   1.413   2.310   6.588  2.1590  0.3861 -0.2083
   14SAPS   C23 1767   1.123   1.982   6.674 -0.1493 -0.3734 -0.5132
   14SAPS   H3R 1768   1.037   1.974   6.743  0.1147 -0.9615 -0.2426
   14SAPS   H3S 1769   1.100   2.056   6.595  2.5264  2.4218  1.1341
   14SAPS   C24 1770   1.241   2.054   6.755  0.8397  0.8325 -0.0310
   14SAPS   H4R 1771   1.308   2.078   6.670  0.1929 -0.1526 -0.8461
   14SAPS   H4S 1772   1.285   1.981   6.826  1.5467  0.1314 -1.1636
   14SAPS   C25 1773   1.202   2.183   6.823  0.2878  0.3460 -0.3991
   14SAPS   H5R 1774   1.110   2.232   6.789 -0.4228  0.0947  1.0740
   14SAPS   C26 1775   1.265   2.238   6.929 -0.2674 -0.1425 -0.3486
   14SAPS   H6R 1776   1.225   2.325   6.984  2.2145 -0.6919  2.6265
   14SAPS   C27 1777   1.388   2.177   6.998 -0.8073 -0.8252 -0.3835
   14SAPS   H7R 1778   1.407   2.070   6.979  3.1254 -0.2115 -0.7111
   14SAPS   H7S 1779   1.384   2.197   7.107  0.0642 -1.8811 -0.1545
   14SAPS   C28 1780   1.515   2.240   6.941 -0.3766  0.4016 -0.3072
   14SAPS   H8R 1781   1.522   2.231   6.832 -0.1048  0.9874 -0.3419
   14SAPS   C29 1782   1.616   2.293   7.008 -0.5040  0.1354 -0.1110
   14SAPS   H9R 1783   1.707   2.317   6.951  0.7603 -0.6847  1.4879
   14SAPS  C210 1784   1.636   2.299   7.160  0.9207  0.3146 -0.2944
   14SAPS  H10R 1785   1.740   2.335   7.179  0.4975  0.5633  1.7003
   14SAPS  H10S 1786   1.633   2.198   7.206  0.5978 -0.2685 -1.5561
   14SAPS  C211 1787   1.555   2.394   7.239 -0.0474 -0.9400  0.3007
   14SAPS  H11R 1788   1.519   2.476   7.176  2.7534 -0.0393 -0.2642
   14SAPS  C212 1789   1.547   2.397   7.376  0.6141  0.0006 -0.6876
   14SAPS  H12R 1790   1.489   2.478   7.421  0.0101 -0.1747 -1.1360
   14SAPS  C213 1791   1.611   2.297   7.472 -0.7033  0.4016 -0.9177
   14SAPS  H13R 1792   1.667   2.217   7.418 -1.0230 -0.8068  0.4527
   14SAPS  H13S 1793   1.543   2.245   7.544  2.3295 -0.2833  1.7163
   14SAPS  C214 1794   1.720   2.369   7.548 -0.0419 -0.5758 -0.2663
   14SAPS  H14R 1795   1.786   2.435   7.489 -1.0138  0.1834 -0.5159
   14SAPS  C215 1796   1.729   2.364   7.685  1.2125  0.2085 -0.5807
   14SAPS  H15R 1797   1.816   2.415   7.728 -0.2524  1.7767  0.6390
   14SAPS  C216 1798   1.640   2.295   7.776 -0.2583  0.6061 -0.2369
   14SAPS  H16R 1799   1.699   2.231   7.846  0.6172 -1.4330 -2.6740
   14SAPS  H16S 1800   1.579   2.218   7.724 -0.6004  0.1431  0.8282
   14SAPS  C217 1801   1.536   2.382   7.857  0.8083  0.3833  0.5449
   14SAPS  H17R 1802   1.467   2.435   7.788  0.2477  1.2366  1.7380
   14SAPS  H17S 1803   1.585   2.460   7.920  2.2643  0.0195 -0.1007
   14SAPS  C218 1804   1.446   2.284   7.944  0.5537  0.0502 -0.1815
   14SAPS  H18R 1805   1.516   2.214   7.994  0.3385  0.3854  0.5985
   14SAPS  H18S 1806   1.384   2.225   7.874  1.3315 -0.5970 -0.3326
   14SAPS  C219 1807   1.356   2.369   8.038 -0.7707 -0.1133  0.0531
   14SAPS  H19R 1808   1.324   2.458   7.980 -1.3410 -0.4363 -0.1436
   14SAPS  H19S 1809   1.409   2.413   8.125  0.4319 -0.7693 -0.3276
   14SAPS  C220 1810   1.230   2.288   8.081 -0.9864 -0.0732 -0.3019
   14SAPS  H20R 1811   1.267   2.188   8.113 -1.2900 -0.0329  0.1950
   14SAPS  H20S 1812   1.152   2.268   8.004 -1.5073 -0.9909  0.4323
   14SAPS  H20T 1813   1.179   2.340   8.166 -1.2061  1.5894 -1.4161
   14SAPS   C33 1814   1.287   2.472   6.498  0.3774  0.0667 -0.0076
   14SAPS   H3X 1815   1.185   2.445   6.532  1.4453 -3.4133  0.8196
   14SAPS   H3Y 1816   1.286   2.520   6.398 -0.9496 -1.2760 -0.6609
   14SAPS   C34 1817   1.351   2.582   6.594 -0.1579 -0.5939 -0.6049
   14SAPS   H4X 1818   1.273   2.662   6.599  1.0235  0.5896 -0.5775
   14SAPS   H4Y 1819   1.438   2.639   6.554 -0.0965  1.7190  2.4042
   14SAPS   C35 1820   1.385   2.526   6.738 -0.0818 -0.8745  0.2245
   14SAPS   H5X 1821   1.477   2.464   6.745 -0.8735 -2.1013  0.0690
   14SAPS   H5Y 1822   1.298   2.464   6.767 -0.2898  0.7723  3.5455
   14SAPS   C36 1823   1.385   2.636   6.845  0.6610 -0.4890 -1.5058
   14SAPS   H6X 1824   1.317   2.722   6.823  1.9448  1.0142  0.1612
   14SAPS   H6Y 1825   1.481   2.690   6.854 -0.8713  2.0507  1.3495
   14SAPS   C37 1826   1.347   2.595   6.991 -0.3453  0.1682 -1.0637
   14SAPS   H7X 1827   1.393   2.497   7.013  0.8678  1.0257  0.4177
   14SAPS   H7Y 1828   1.236   2.585   6.989 -0.3311  0.1088 -2.1207
   14SAPS   C38 1829   1.406   2.702   7.089 -0.0674  0.1443  0.0275
   14SAPS   H8X 1830   1.363   2.802   7.067  0.2978  0.2117 -0.3913
   14SAPS   H8Y 1831   1.517   2.708   7.078 -0.0217  2.7330  1.0842
   14SAPS   C39 1832   1.361   2.688   7.241 -0.0450 -0.5895 -1.0475
   14SAPS   H9X 1833   1.357   2.583   7.278 -0.0440 -0.1397  0.2650
   14SAPS   H9Y 1834   1.256   2.717   7.261 -0.1898 -1.8701  0.2763
   14SAPS  C310 1835   1.452   2.758   7.340  0.5576 -0.5002  0.1029
   14SAPS  H10X 1836   1.461   2.864   7.308 -0.0485 -0.8854 -1.4174
   14SAPS  H10Y 1837   1.551   2.708   7.343  0.0608 -1.4645  1.0920
   14SAPS  C311 1838   1.404   2.765   7.487  0.3695  0.2588  0.0297
   14SAPS  H11X 1839   1.375   2.666   7.528 -0.9245  1.4452  2.1327
   14SAPS  H11Y 1840   1.312   2.823   7.510  0.7361  0.2743  1.5804
   14SAPS  C312 1841   1.514   2.807   7.591 -0.3190 -0.0336  0.3985
   14SAPS  H12X 1842   1.546   2.908   7.557  0.5177 -0.7466 -1.0212
   14SAPS  H12Y 1843   1.600   2.738   7.581 -2.2598 -2.7777  1.5844
   14SAPS  C313 1844   1.448   2.814   7.733 -0.8596  0.1944 -0.4786
   14SAPS  H13X 1845   1.416   2.711   7.757 -0.4239  0.4858  1.5785
   14SAPS  H13Y 1846   1.353   2.872   7.732 -0.8389  0.2624  0.4620
   14SAPS  C314 1847   1.548   2.871   7.840  0.1087  0.3861 -0.0244
   14SAPS  H14X 1848   1.495   2.875   7.938  1.2374  0.2133  0.6023
   14SAPS  H14Y 1849   1.574   2.978   7.824 -0.4372  0.7909  1.5606
   14SAPS  C315 1850   1.676   2.785   7.854  1.0124 -0.1747  0.8737
   14SAPS  H15X 1851   1.748   2.803   7.771 -1.6264 -0.0140 -1.5376
   14SAPS  H15Y 1852   1.630   2.684   7.843  0.5437  0.1944 -0.9257
   14SAPS  C316 1853   1.740   2.786   7.989 -0.1241  0.3762  0.2026
   14SAPS  H16X 1854   1.840   2.737   7.992  0.4456  1.3211 -1.4955
   14SAPS  H16Y 1855   1.669   2.736   8.057 -2.1402  1.4179 -1.0290
   14SAPS  C317 1856   1.784   2.922   8.048  0.3377 -0.4246  0.1717
   14SAPS  H17X 1857   1.691   2.983   8.057  1.1283  1.2218 -1.9055
   14SAPS  H17Y 1858   1.849   2.995   7.996  1.1028  0.1008  1.8282
   14SAPS  C318 1859   1.858   2.913   8.181  0.3401  0.3072 -0.4333
   14SAPS  H18X 1860   1.789   2.880   8.262  2.7284 -0.7859  1.3051
   14SAPS  H18Y 1861   1.902   3.007   8.221 -1.6189 -0.1433  3.2451
   14SAPS  H18Z 1862   1.941   2.839   8.186 -1.1957 -1.5272 -1.0493
   15SAPS     N 1863   3.138   3.447   6.241 -0.1398 -0.0310  0.5458
   15SAPS   HN1 1864   3.208   3.523   6.238 -1.3874  1.1522 -0.9767
   15SAPS   HN2 1865   3.081   3.464   6.326 -2.2784 -0.1069 -0.7895
   15SAPS   HN3 1866   3.180   3.352   6.242  0.8155  0.3821  0.7011
   15SAPS   C12 1867   3.035   3.474   6.136  0.2349  0.0736 -0.2069
   15SAPS  H12A 1868   2.938   3.459   6.181  1.1831 -1.8138  1.3905
   15SAPS   C13 1869   3.040   3.611   6.067  0.5384 -0.5546 -0.0445
   15SAPS  O13A 1870   3.121   3.693   6.119  0.4313 -0.0264  0.0490
   15SAPS  O13B 1871   2.952   3.639   5.982  0.6407  0.2743  0.0601
   15SAPS   C11 1872   3.041   3.371   6.018  0.3840 -0.2229 -0.1924
   15SAPS  H11A 1873   3.137   3.387   5.965  0.8131 -0.5594  0.4750
   15SAPS  H11B 1874   2.952   3.375   5.950 -1.0057 -2.2075  1.3987
   15SAPS     P 1875   2.916   3.160   6.122  0.0122 -0.3013  0.0996
   15SAPS   O13 1876   2.801   3.219   6.054 -0.0361 -0.4128 -0.1311
   15SAPS   O14 1877   2.931   3.013   6.128  0.5427 -0.6857  0.1808
   15SAPS   O12 1878   3.048   3.234   6.075  0.0822 -0.3285 -0.1475
   15SAPS   O11 1879   2.917   3.213   6.271 -0.2597 -0.2033  0.5040
   15SAPS    C1 1880   2.948   3.131   6.386 -0.2637  0.2533 -0.3384
   15SAPS    HA 1881   3.009   3.044   6.353  3.4040  2.6124 -0.3899
   15SAPS    HB 1882   3.028   3.182   6.445  0.3789  0.1827 -1.1143
   15SAPS    C2 1883   2.827   3.088   6.466 -0.2742  0.7280 -0.0971
   15SAPS    HS 1884   2.756   3.174   6.464  0.9405  1.7603 -1.9246
   15SAPS   O21 1885   2.880   3.051   6.596 -0.0779  0.3659 -0.5085
   15SAPS   C21 1886   2.797   3.057   6.694 -0.0755  0.3966 -0.2979
   15SAPS   O22 1887   2.683   3.092   6.694  1.0481 -0.3447 -0.0307
   15SAPS   C22 1888   2.879   3.017   6.826 -0.3963 -0.6092  0.3384
   15SAPS   H2R 1889   2.916   3.110   6.874 -3.9043  0.7844  0.6258
   15SAPS   H2S 1890   2.800   2.975   6.891 -0.2221 -0.5941  0.5582
   15SAPS    C3 1891   2.761   2.960   6.409  0.1634 -1.3746  0.2563
   15SAPS    HX 1892   2.848   2.898   6.380  1.0426  0.1336 -0.4662
   15SAPS    HY 1893   2.714   2.975   6.310 -0.1379 -0.5481  0.5102
   15SAPS   O31 1894   2.659   2.893   6.496  0.0274 -0.4785 -0.0010
   15SAPS   C31 1895   2.694   2.773   6.544  0.3850  0.1946 -0.1008
   15SAPS   O32 1896   2.803   2.725   6.533  0.5624  0.5999 -0.3781
   15SAPS   C32 1897   2.590   2.711   6.638 -0.0071  0.5177  0.4074
   15SAPS   H2X 1898   2.537   2.629   6.587 -3.1108  3.0110 -0.6745
   15SAPS   H2Y 1899   2.522   2.795   6.664 -0.3178  0.7853 -1.1626
   15SAPS   C23 1900   2.988   2.915   6.793  0.0685  0.4578  0.6702
   15SAPS   H3R 1901   3.040   2.918   6.694  1.0211  1.3500  1.1783
   15SAPS   H3S 1902   2.940   2.815   6.794 -0.5762  0.6988 -1.5422
   15SAPS   C24 1903   3.104   2.909   6.906  0.2386  0.0303  0.5665
   15SAPS   H4R 1904   3.154   3.009   6.903  0.9807 -0.2350  2.6685
   15SAPS   H4S 1905   3.183   2.840   6.871  1.1291 -0.2580  2.9738
   15SAPS   C25 1906   3.060   2.866   7.038  0.9752 -0.1743 -0.4498
   15SAPS   H5R 1907   3.016   2.945   7.100  2.3565  0.0878  0.2511
   15SAPS   C26 1908   3.087   2.739   7.087  0.2369 -0.6390 -0.1392
   15SAPS   H6R 1909   3.048   2.714   7.187  0.9122 -1.8235 -0.1549
   15SAPS   C27 1910   3.146   2.621   7.007  0.0782  0.2337 -0.2942
   15SAPS   H7R 1911   3.257   2.619   7.013  0.0931  0.1535 -0.5941
   15SAPS   H7S 1912   3.117   2.626   6.900  0.4365 -3.2958 -0.6654
   15SAPS   C28 1913   3.086   2.499   7.074 -0.1043  0.1451  0.8919
   15SAPS   H8R 1914   2.987   2.485   7.029 -0.0731  0.4583  0.7213
   15SAPS   C29 1915   3.125   2.420   7.173  0.0984  0.0656 -0.6979
   15SAPS   H9R 1916   3.070   2.327   7.193 -1.8952  1.4092  0.3760
   15SAPS  C210 1917   3.247   2.417   7.262  0.1580  0.0711  0.4439
   15SAPS  H10R 1918   3.326   2.482   7.219 -0.4373 -0.1244 -0.9914
   15SAPS  H10S 1919   3.289   2.314   7.270  1.9983  0.8758  1.8514
   15SAPS  C211 1920   3.207   2.492   7.385 -0.3669  0.4300  0.3503
   15SAPS  H11R 1921   3.174   2.597   7.386 -1.6446  0.0467  1.6862
   15SAPS  C212 1922   3.205   2.438   7.505  0.9542 -0.2220 -0.5338
   15SAPS  H12R 1923   3.177   2.509   7.584 -0.9168  1.9376 -2.9668
   15SAPS  C213 1924   3.241   2.295   7.540  0.1389 -0.8933 -0.6764
   15SAPS  H13R 1925   3.184   2.228   7.472 -2.0791 -0.1644  0.3628
   15SAPS  H13S 1926   3.174   2.270   7.625 -0.3563 -1.0935 -1.1214
   15SAPS  C214 1927   3.381   2.250   7.551  0.0398  0.5154 -0.5282
   15SAPS  H14R 1928   3.427   2.237   7.452  0.3981  0.3125 -0.3368
   15SAPS  C215 1929   3.454   2.225   7.666 -0.1197  0.0322 -0.2900
   15SAPS  H15R 1930   3.558   2.188   7.660  0.3120  1.4156 -2.6088
   15SAPS  C216 1931   3.398   2.242   7.802  0.2154  0.4380  0.1456
   15SAPS  H16R 1932   3.343   2.338   7.805 -0.0685  0.2504  2.3876
   15SAPS  H16S 1933   3.483   2.261   7.871 -0.0090  0.3762  0.4419
   15SAPS  C217 1934   3.305   2.125   7.849  0.1948 -0.6873  0.1999
   15SAPS  H17R 1935   3.223   2.110   7.776 -0.2077  1.7085  0.0825
   15SAPS  H17S 1936   3.258   2.155   7.945 -1.3483 -3.7652  0.5167
   15SAPS  C218 1937   3.375   1.991   7.879 -0.5729 -0.0099 -0.2887
   15SAPS  H18R 1938   3.456   2.015   7.951  1.8421 -1.0367 -2.5023
   15SAPS  H18S 1939   3.421   1.947   7.788  2.2081 -0.3179  1.1645
   15SAPS  C219 1940   3.283   1.883   7.943  0.4688 -0.5136 -0.6957
   15SAPS  H19R 1941   3.184   1.927   7.969 -0.4144 -2.7482  0.0503
   15SAPS  H19S 1942   3.320   1.839   8.039  0.6800  1.1565  0.0161
   15SAPS  C220 1943   3.247   1.774   7.839 -0.2913 -0.2919 -0.1933
   15SAPS  H20R 1944   3.341   1.736   7.794 -0.4573 -0.4304 -0.4257
   15SAPS  H20S 1945   3.177   1.805   7.758  0.1559 -1.8594 -1.2352
   15SAPS  H20T 1946   3.205   1.689   7.896 -1.8655  0.6735  0.1372
   15SAPS   C33 1947   2.656   2.653   6.756  0.0187  1.0881 -0.6370
   15SAPS   H3X 1948   2.716   2.723   6.818 -1.1488  1.1262  0.4946
   15SAPS   H3Y 1949   2.713   2.560   6.734 -0.7713  0.5053 -0.2966
   15SAPS   C34 1950   2.550   2.616   6.869  0.0444  0.2660 -0.0006
   15SAPS   H4X 1951   2.519   2.513   6.841 -0.0330  0.3031 -0.0523
   15SAPS   H4Y 1952   2.467   2.689   6.863  0.0709  0.1454 -2.8940
   15SAPS   C35 1953   2.611   2.610   7.013  0.3784  0.2454  0.6782
   15SAPS   H5X 1954   2.656   2.709   7.035  0.2134  0.0159  2.1479
   15SAPS   H5Y 1955   2.674   2.519   7.007 -0.5473 -0.4955  1.7086
   15SAPS   C36 1956   2.505   2.596   7.131 -0.6537 -0.1848 -0.3573
   15SAPS   H6X 1957   2.458   2.697   7.135 -0.1118  0.2198 -2.5271
   15SAPS   H6Y 1958   2.539   2.577   7.235 -1.3758  1.3895  0.1965
   15SAPS   C37 1959   2.396   2.491   7.098  0.5401 -1.2024  0.5725
   15SAPS   H7X 1960   2.446   2.398   7.064 -0.8845 -0.8306 -2.9732
   15SAPS   H7Y 1961   2.347   2.534   7.008  2.8943 -1.0375 -0.7142
   15SAPS   C38 1962   2.300   2.462   7.211  0.4098  0.2676 -0.5172
   15SAPS   H8X 1963   2.209   2.418   7.164 -0.1127  2.9361 -2.2220
   15SAPS   H8Y 1964   2.263   2.555   7.260  1.1946 -0.3344  1.2951
   15SAPS   C39 1965   2.371   2.375   7.326 -0.4786  0.2545  0.0214
   15SAPS   H9X 1966   2.482   2.383   7.320 -0.3596  0.1080  1.7004
   15SAPS   H9Y 1967   2.352   2.271   7.292  0.8538  0.5718 -1.8864
   15SAPS  C310 1968   2.326   2.399   7.468 -0.1995 -0.5870 -0.3543
   15SAPS  H10X 1969   2.218   2.373   7.470 -0.2051 -0.8526 -2.1587
   15SAPS  H10Y 1970   2.340   2.508   7.485 -2.6379  0.0177 -1.8337
   15SAPS  C311 1971   2.399   2.317   7.580 -0.4208  0.0584  0.0892
   15SAPS  H11X 1972   2.505   2.316   7.548 -1.2005 -0.5209 -2.7424
   15SAPS  H11Y 1973   2.361   2.212   7.582  0.8439 -0.6105 -3.7185
   15SAPS  C312 1974   2.378   2.388   7.719  0.1327 -0.4169  0.5844
   15SAPS  H12X 1975   2.268   2.404   7.726  0.0894  0.0414 -0.8904
   15SAPS  H12Y 1976   2.417   2.492   7.712 -1.1332 -0.0065 -1.1484
   15SAPS  C313 1977   2.434   2.306   7.837 -0.4566 -0.1317  0.2960
   15SAPS  H13X 1978   2.531   2.269   7.800 -0.5599 -0.2634  0.1590
   15SAPS  H13Y 1979   2.362   2.224   7.859 -2.0980  1.6940  2.2070
   15SAPS  C314 1980   2.463   2.397   7.959  0.2262 -0.7378 -0.3093
   15SAPS  H14X 1981   2.386   2.476   7.967  1.5998  0.5983  0.3994
   15SAPS  H14Y 1982   2.558   2.454   7.949  0.1274 -0.4269  0.4521
   15SAPS  C315 1983   2.472   2.331   8.098 -0.2108  0.3015  0.7415
   15SAPS  H15X 1984   2.556   2.257   8.100  1.0516  1.6037 -0.7961
   15SAPS  H15Y 1985   2.380   2.269   8.103 -1.2099  0.9712 -4.1036
   15SAPS  C316 1986   2.472   2.413   8.229  0.5817 -0.3229  0.0738
   15SAPS  H16X 1987   2.567   2.471   8.240  0.2152  0.4221 -0.6548
   15SAPS  H16Y 1988   2.460   2.345   8.316 -0.9889 -1.2526 -0.8245
   15SAPS  C317 1989   2.360   2.524   8.226  0.6104 -0.3234 -0.3510
   15SAPS  H17X 1990   2.259   2.477   8.217  0.7966 -0.8391  0.1921
   15SAPS  H17Y 1991   2.378   2.588   8.137 -0.9935  0.1840 -0.3389
   15SAPS  C318 1992   2.364   2.615   8.357 -0.3987 -0.5303  0.5660
   15SAPS  H18X 1993   2.444   2.690   8.341  0.1736 -0.9591  1.3099
   15SAPS  H18Y 1994   2.390   2.548   8.442  2.2133  1.3356  1.3665
   15SAPS  H18Z 1995   2.273   2.672   8.386 -0.8285 -0.3371 -1.0665
   16SAPS     N 1996   4.058   4.792   6.210  0.2792 -0.2211  0.2507
   16SAPS   HN1 1997   4.038   4.856   6.290  2.0598  1.9816 -0.9596
   16SAPS   HN2 1998   4.061   4.847   6.122 -0.5980 -0.1432  0.2547
   16SAPS   HN3 1999   3.979   4.724   6.205  0.2011 -0.1317  0.2651
   16SAPS   C12 2000   4.185   4.727   6.236  0.5283 -0.1038 -0.7789
   16SAPS  H12A 2001   4.205   4.668   6.148 -0.6229  1.0644 -1.8716
   16SAPS   C13 2002   4.308   4.814   6.270 -0.1806  0.4393  0.3062
   16SAPS  O13A 2003   4.312   4.943   6.289  0.2191  0.0905 -0.2106
   16SAPS  O13B 2004   4.412   4.747   6.273 -0.2336  0.2104  0.0285
   16SAPS   C11 2005   4.167   4.628   6.353  0.3128  0.8067 -0.6642
   16SAPS  H11A 2006   4.158   4.682   6.450  5.4895  1.1082 -0.0796
   16SAPS  H11B 2007   4.261   4.572   6.371 -0.6012 -0.0512  2.0196
   16SAPS     P 2008   4.039   4.419   6.434 -0.0682  0.1784  0.2979
   16SAPS   O13 2009   4.039   4.297   6.352  0.6599 -0.7370  0.3371
   16SAPS   O14 2010   4.129   4.428   6.546 -0.4888  0.2405 -0.0867
   16SAPS   O12 2011   4.062   4.540   6.332 -0.0420 -0.0424  0.0282
   16SAPS   O11 2012   3.887   4.439   6.481  0.1506  0.4039  0.0341
   16SAPS    C1 2013   3.857   4.568   6.537 -0.4848  0.1060  0.0065
   16SAPS    HA 2014   3.948   4.630   6.555  0.3210 -1.0895  0.1519
   16SAPS    HB 2015   3.794   4.615   6.459 -1.7218  0.5065  1.2131
   16SAPS    C2 2016   3.782   4.550   6.670  0.2904 -0.6482  0.7265
   16SAPS    HS 2017   3.765   4.649   6.716  1.9173  0.5412 -1.0647
   16SAPS   O21 2018   3.857   4.464   6.764 -0.2792 -0.3390 -0.3492
   16SAPS   C21 2019   3.983   4.506   6.799  0.2218 -0.3234 -1.0139
   16SAPS   O22 2020   4.029   4.613   6.778 -0.1482 -0.2575  0.5097
   16SAPS   C22 2021   4.050   4.387   6.874  0.5194 -0.7818 -0.7820
   16SAPS   H2R 2022   3.968   4.334   6.928  0.6676 -2.5294 -2.1378
   16SAPS   H2S 2023   4.094   4.324   6.793  0.5961 -0.3163 -1.1037
   16SAPS    C3 2024   3.633   4.488   6.641  0.1115  0.4286 -0.4909
   16SAPS    HX 2025   3.631   4.390   6.588 -1.1274 -0.1315  0.5395
   16SAPS    HY 2026   3.581   4.562   6.577 -2.0438 -1.6454 -1.2709
   16SAPS   O31 2027   3.573   4.473   6.767  0.6457  0.2314 -0.1847
   16SAPS   C31 2028   3.452   4.532   6.786  0.1973  0.3537  0.2284
   16SAPS   O32 2029   3.394   4.595   6.700  0.3720  0.2009 -0.2541
   16SAPS   C32 2030   3.403   4.520   6.933  0.1320 -0.5884  0.1854
   16SAPS   H2X 2031   3.452   4.431   6.980  1.0523 -0.7505 -1.0296
   16SAPS   H2Y 2032   3.295   4.500   6.917  0.0506 -0.0496  0.0454
   16SAPS   C23 2033   4.169   4.433   6.957 -0.8186  0.1333 -0.4153
   16SAPS   H3R 2034   4.243   4.495   6.903 -0.2416 -0.3955 -0.2430
   16SAPS   H3S 2035   4.222   4.339   6.983 -0.4295  0.2623 -0.7413
   16SAPS   C24 2036   4.134   4.515   7.083 -0.0352 -0.1300  0.7651
   16SAPS   H4R 2037   4.067   4.443   7.136 -1.5699 -0.8277 -1.9384
   16SAPS   H4S 2038   4.066   4.600   7.058  1.6693  1.1442  0.2979
   16SAPS   C25 2039   4.255   4.572   7.150  0.7993  0.8816  0.4871
   16SAPS   H5R 2040   4.299   4.653   7.091  0.9937 -1.1723 -2.3807
   16SAPS   C26 2041   4.308   4.544   7.270  0.5530 -0.0823  0.4706
   16SAPS   H6R 2042   4.402   4.595   7.299 -0.0786  0.7163  1.1685
   16SAPS   C27 2043   4.251   4.451   7.374  0.3999  0.6982  0.1898
   16SAPS   H7R 2044   4.330   4.382   7.410 -0.6798 -0.8476 -0.2720
   16SAPS   H7S 2045   4.185   4.380   7.320  1.3129 -0.7584  0.9241
   16SAPS   C28 2046   4.175   4.525   7.477  0.2047  0.2738 -0.2509
   16SAPS   H8R 2047   4.070   4.556   7.465 -0.0079 -0.7349 -1.2310
   16SAPS   C29 2048   4.218   4.537   7.601  0.8117  0.8250  0.2106
   16SAPS   H9R 2049   4.153   4.600   7.664 -0.3196  0.9147 -0.9752
   16SAPS  C210 2050   4.350   4.494   7.661  0.1711  0.4773 -0.2949
   16SAPS  H10R 2051   4.405   4.423   7.597 -3.0111 -1.8879 -0.6925
   16SAPS  H10S 2052   4.320   4.422   7.740 -2.5044  0.0963 -1.5319
   16SAPS  C211 2053   4.445   4.595   7.715 -0.3964 -0.5468  0.4025
   16SAPS  H11R 2054   4.514   4.624   7.634 -0.1167  0.3220  0.9392
   16SAPS  C212 2055   4.467   4.637   7.837 -0.2135  0.1360 -0.1775
   16SAPS  H12R 2056   4.558   4.695   7.858  0.1973 -0.0835 -1.2913
   16SAPS  C213 2057   4.384   4.606   7.960 -0.1874  0.4197 -0.2291
   16SAPS  H13R 2058   4.428   4.523   8.019 -0.1311  1.8911  1.8971
   16SAPS  H13S 2059   4.288   4.566   7.920  1.2308 -0.3335 -3.1823
   16SAPS  C214 2060   4.368   4.710   8.064 -0.9607 -1.2008  0.7712
   16SAPS  H14R 2061   4.395   4.808   8.021  0.1716 -1.3941  1.0116
   16SAPS  C215 2062   4.355   4.696   8.193 -0.0209  0.0944 -0.1409
   16SAPS  H15R 2063   4.353   4.784   8.260  2.5899  0.4467 -0.4301
   16SAPS  C216 2064   4.321   4.565   8.254 -0.2688  0.3032 -0.7249
   16SAPS  H16R 2065   4.397   4.536   8.329 -1.5935 -2.6230 -0.3945
   16SAPS  H16S 2066   4.313   4.482   8.181 -1.3865  0.8606 -1.2631
   16SAPS  C217 2067   4.179   4.552   8.315 -0.4962 -0.5351  0.0838
   16SAPS  H17R 2068   4.101   4.567   8.237 -0.1396  0.6728 -0.0583
   16SAPS  H17S 2069   4.170   4.637   8.386  0.7797  2.3933 -2.9865
   16SAPS  C218 2070   4.147   4.416   8.381  1.0145  0.8823  0.4338
   16SAPS  H18R 2071   4.231   4.355   8.420  0.0158 -0.5605  0.4165
   16SAPS  H18S 2072   4.092   4.350   8.311  1.8125  2.0954 -1.3981
   16SAPS  C219 2073   4.049   4.433   8.502  0.9025  0.3916  0.5583
   16SAPS  H19R 2074   3.948   4.451   8.461 -0.0205 -3.0794  0.9456
   16SAPS  H19S 2075   4.079   4.524   8.558  0.1787 -0.1615  1.9078
   16SAPS  C220 2076   4.041   4.310   8.592 -0.0590 -0.7351 -0.0530
   16SAPS  H20R 2077   4.007   4.222   8.535  0.2608 -0.1822 -1.1190
   16SAPS  H20S 2078   3.955   4.334   8.658 -1.8894  0.6598 -2.7382
   16SAPS  H20T 2079   4.139   4.283   8.636 -0.0202  0.2321  0.5021
   16SAPS   C33 2080   3.411   4.649   7.017 -0.3073  0.3900 -0.3082
   16SAPS   H3X 2081   3.348   4.647   7.109 -0.2349 -1.9152 -0.2381
   16SAPS   H3Y 2082   3.389   4.735   6.951  0.1404 -1.5483 -3.1780
   16SAPS   C34 2083   3.551   4.667   7.061  0.0847 -0.1258 -0.2645
   16SAPS   H4X 2084   3.577   4.773   7.084  0.0428  0.0563 -1.0268
   16SAPS   H4Y 2085   3.622   4.651   6.977  0.7057  1.5133 -0.0982
   16SAPS   C35 2086   3.592   4.588   7.189 -0.2850  0.2093 -0.6590
   16SAPS   H5X 2087   3.588   4.481   7.160 -0.8991  0.1924 -0.5350
   16SAPS   H5Y 2088   3.521   4.607   7.272 -0.3334 -0.0513 -0.6413
   16SAPS   C36 2089   3.739   4.610   7.233 -0.2381  0.1750  0.1254
   16SAPS   H6X 2090   3.779   4.713   7.228 -0.5269  0.5776  3.7220
   16SAPS   H6Y 2091   3.801   4.549   7.164  0.5127 -1.9082  2.4939
   16SAPS   C37 2092   3.763   4.570   7.375 -0.3140 -0.0770  0.2626
   16SAPS   H7X 2093   3.699   4.625   7.448  1.0928 -1.4552  2.6962
   16SAPS   H7Y 2094   3.866   4.599   7.405  0.1587  1.6549 -2.6906
   16SAPS   C38 2095   3.745   4.425   7.419 -0.7178  0.1206 -0.8665
   16SAPS   H8X 2096   3.800   4.359   7.348 -0.1719  0.0709 -0.3980
   16SAPS   H8Y 2097   3.638   4.395   7.427 -1.2726  2.4291  3.6689
   16SAPS   C39 2098   3.801   4.398   7.565 -0.3032  0.8681 -0.1231
   16SAPS   H9X 2099   3.910   4.416   7.560 -0.0412 -0.7646 -1.3645
   16SAPS   H9Y 2100   3.794   4.293   7.601  0.1716  0.8821  0.0130
   16SAPS  C310 2101   3.747   4.484   7.679 -0.3269  0.2192  0.6057
   16SAPS  H10X 2102   3.640   4.461   7.698 -0.7783  2.9830  1.9781
   16SAPS  H10Y 2103   3.756   4.589   7.645  3.6973 -0.6733 -1.7734
   16SAPS  C311 2104   3.820   4.460   7.807  0.5466  0.3035 -0.0555
   16SAPS  H11X 2105   3.914   4.518   7.803 -0.3916  1.7917 -1.8501
   16SAPS  H11Y 2106   3.849   4.353   7.822 -0.3695 -0.1185 -1.1596
   16SAPS  C312 2107   3.745   4.515   7.929 -0.0408 -0.3663  0.3714
   16SAPS  H12X 2108   3.652   4.460   7.958  0.0909  0.6026  2.8242
   16SAPS  H12Y 2109   3.713   4.620   7.911  2.2009 -0.0887 -3.0221
   16SAPS  C313 2110   3.831   4.528   8.052  0.1867 -0.6135  0.5425
   16SAPS  H13X 2111   3.923   4.589   8.039  0.9415 -1.6616  0.8692
   16SAPS  H13Y 2112   3.867   4.426   8.080 -3.1617 -2.2333 -0.5376
   16SAPS  C314 2113   3.754   4.592   8.164  0.6558  0.2019 -0.4653
   16SAPS  H14X 2114   3.721   4.692   8.129 -0.3538  0.8309  2.0601
   16SAPS  H14Y 2115   3.835   4.611   8.239 -0.6647  2.3730  0.5161
   16SAPS  C315 2116   3.646   4.518   8.248  0.1820 -0.4720 -0.7962
   16SAPS  H15X 2117   3.694   4.442   8.313  1.0988 -0.2775 -1.2327
   16SAPS  H15Y 2118   3.578   4.456   8.186 -3.2103  2.7468 -0.6541
   16SAPS  C316 2119   3.555   4.606   8.341 -0.8526  0.5023  0.2029
   16SAPS  H16X 2120   3.620   4.691   8.372 -0.1175  0.3712 -0.8970
   16SAPS  H16Y 2121   3.529   4.546   8.431  0.8242 -0.0005  0.3912
   16SAPS  C317 2122   3.440   4.666   8.271 -0.0087  0.2238 -0.2859
   16SAPS  H17X 2123   3.389   4.588   8.210 -2.6357  1.0335  0.7451
   16SAPS  H17Y 2124   3.461   4.756   8.209  0.7877  1.2723  1.4206
   16SAPS  C318 2125   3.332   4.699   8.378  0.2379  0.4523 -0.1258
   16SAPS  H18X 2126   3.252   4.765   8.338 -0.8843 -1.0254 -0.4100
   16SAPS  H18Y 2127   3.377   4.754   8.463  1.4673 -1.1379  0.3143
   16SAPS  H18Z 2128   3.278   4.614   8.425  1.0037  0.0932  0.1381
   17SAPC     N 2129   2.679   1.480  10.707  0.6222 -0.0891 -0.6159
   17SAPC   C12 2130   2.793   1.405  10.654 -0.3309  0.1630  0.2985
   17SAPC  H12A 2131   2.811   1.320  10.717  1.3759  1.0052  1.0126
   17SAPC  H12B 2132   2.886   1.461  10.660  0.5703 -1.2267 -0.1989
   17SAPC   C13 2133   2.628   1.591  10.631  0.2634  0.0755  0.5966
   17SAPC  H13A 2134   2.704   1.665  10.612  1.5455 -1.1408  0.7912
   17SAPC  H13B 2135   2.587   1.557  10.538 -0.3718  0.2463  0.8090
   17SAPC  H13C 2136   2.541   1.629  10.681  0.6036 -0.4892  1.6655
   17SAPC   C14 2137   2.564   1.388  10.731 -0.2771  0.5045  0.2988
   17SAPC  H14A 2138   2.570   1.326  10.819 -3.3363 -1.8278 -0.9187
   17SAPC  H14B 2139   2.470   1.440  10.742 -0.6428 -0.2116  0.6070
   17SAPC  H14C 2140   2.549   1.333  10.639  0.7725  2.5195 -1.1540
   17SAPC   C15 2141   2.717   1.522  10.851  0.3243 -0.4579  0.0010
   17SAPC  H15A 2142   2.750   1.438  10.910  3.6569  0.8706  0.2497
   17SAPC  H15B 2143   2.803   1.587  10.849  0.3035 -0.3934 -2.5655
   17SAPC  H15C 2144   2.639   1.589  10.887  1.2041  1.4395 -1.4341
   17SAPC   C11 2145   2.780   1.350  10.507  0.6260 -0.1128 -0.0743
   17SAPC  H11A 2146   2.880   1.313  10.476  0.4744  0.3906 -1.2551
   17SAPC  H11B 2147   2.742   1.430  10.439  0.9737 -0.8872 -1.2208
   17SAPC     P 2148   2.625   1.183  10.384 -0.4402 -0.0776  0.3229
   17SAPC   O13 2149   2.569   1.053  10.422  0.5029  0.4349 -0.3176
   17SAPC   O14 2150   2.533   1.290  10.334 -0.4574 -0.1506  0.2423
   17SAPC   O12 2151   2.695   1.234  10.508 -0.4216 -0.4751 -0.6048
   17SAPC   O11 2152   2.743   1.168  10.276  0.1776 -0.3756 -0.1442
   17SAPC    C1 2153   2.848   1.073  10.302  0.3250  0.5028 -0.2441
   17SAPC    HA 2154   2.946   1.124  10.313 -0.5208  1.9380  0.8871
   17SAPC    HB 2155   2.835   1.028  10.402  0.1964  1.5561  0.2278
   17SAPC    C2 2156   2.858   0.971  10.190  0.2441  0.3762 -0.3659
   17SAPC    HS 2157   2.937   0.897  10.216 -1.5788 -1.1581  1.0177
   17SAPC   O21 2158   2.883   1.035  10.061  0.0557 -0.5161  0.2207
   17SAPC   C21 2159   2.994   1.106  10.056  0.3803 -0.2375 -0.1931
   17SAPC   O22 2160   3.086   1.116  10.132 -1.0328  0.1921  0.1916
   17SAPC   C22 2161   2.996   1.169   9.923  0.1632 -0.8519 -0.0535
   17SAPC   H2R 2162   2.906   1.233   9.905  0.9833 -0.4571 -3.3981
   17SAPC   H2S 2163   3.090   1.225   9.908 -1.4874  1.9874 -0.7009
   17SAPC    C3 2164   2.723   0.883  10.167  0.2458  0.0265 -0.2562
   17SAPC    HX 2165   2.641   0.952  10.140 -0.6961 -1.1292 -0.4492
   17SAPC    HY 2166   2.702   0.849  10.271 -0.0076  2.4309  0.5423
   17SAPC   O31 2167   2.749   0.775  10.076 -0.5741  0.2355 -0.1040
   17SAPC   C31 2168   2.713   0.811   9.949 -0.0667  0.2171 -0.4307
   17SAPC   O32 2169   2.646   0.909   9.919 -0.3376  0.3531  0.0189
   17SAPC   C32 2170   2.803   0.725   9.859 -0.2446  0.2961 -0.1916
   17SAPC   H2X 2171   2.783   0.619   9.885  1.5440  0.2716  1.2965
   17SAPC   H2Y 2172   2.904   0.760   9.889  0.3349 -1.5197  0.1198
   17SAPC   C23 2173   2.988   1.059   9.813  0.4150  0.3565  0.1073
   17SAPC   H3R 2174   2.894   0.999   9.820  1.5578 -1.6190 -0.8228
   17SAPC   H3S 2175   3.077   0.996   9.834  0.2631 -0.3372 -1.2253
   17SAPC   C24 2176   2.992   1.110   9.675 -0.2706  0.1941  0.1985
   17SAPC   H4R 2177   3.023   1.028   9.606 -0.6919  0.9358 -0.8966
   17SAPC   H4S 2178   3.081   1.175   9.662  0.7368 -1.3148 -0.7707
   17SAPC   C25 2179   2.866   1.189   9.634 -0.7875  0.3817 -0.0872
   17SAPC   H5R 2180   2.839   1.266   9.707 -1.1522 -1.3688  1.7222
   17SAPC   C26 2181   2.784   1.174   9.528  0.4982 -0.7299  0.7872
   17SAPC   H6R 2182   2.698   1.242   9.520 -0.3249 -1.5269  2.4675
   17SAPC   C27 2183   2.805   1.073   9.413  0.3925  0.4602 -0.1359
   17SAPC   H7R 2184   2.850   0.977   9.446  1.2092 -0.0330 -2.4678
   17SAPC   H7S 2185   2.890   1.107   9.349  0.0358  0.0198 -0.8606
   17SAPC   C28 2186   2.683   1.027   9.339  0.0204 -0.1310 -0.4662
   17SAPC   H8R 2187   2.600   0.987   9.399  0.7703 -0.6808  0.2293
   17SAPC   C29 2188   2.660   1.060   9.214  0.3046 -0.3466 -0.8572
   17SAPC   H9R 2189   2.566   1.032   9.163  0.5668 -1.0401 -0.9697
   17SAPC  C210 2190   2.746   1.141   9.127 -0.2944 -1.0230 -0.6139
   17SAPC  H10R 2191   2.853   1.124   9.152 -0.6234 -0.1571  1.5449
   17SAPC  H10S 2192   2.708   1.244   9.144 -0.3583 -1.1809  0.2029
   17SAPC  C211 2193   2.746   1.119   8.980 -0.0372  0.2076 -0.1856
   17SAPC  H11R 2194   2.802   1.031   8.945 -1.7118 -1.4842  1.1698
   17SAPC  C212 2195   2.690   1.189   8.878  0.2689  0.4045  0.7865
   17SAPC  H12R 2196   2.719   1.155   8.777  2.8807  0.8008  1.3173
   17SAPC  C213 2197   2.606   1.316   8.878  0.7751  0.1803 -0.3575
   17SAPC  H13R 2198   2.630   1.367   8.974 -1.6083  0.1680  0.3035
   17SAPC  H13S 2199   2.498   1.301   8.897  0.3424  1.8410 -1.3122
   17SAPC  C214 2200   2.618   1.422   8.770  0.4905 -0.2073  0.1608
   17SAPC  H14R 2201   2.706   1.487   8.781 -2.0120  3.7468 -0.9900
   17SAPC  C215 2202   2.526   1.465   8.675  0.3556  0.0142 -0.6492
   17SAPC  H15R 2203   2.549   1.536   8.595 -3.2781  1.0839 -0.8756
   17SAPC  C216 2204   2.381   1.415   8.662  0.2931  0.2910  0.3039
   17SAPC  H16R 2205   2.332   1.430   8.761  0.8721  0.9564  0.5059
   17SAPC  H16S 2206   2.381   1.307   8.640 -0.4223  0.5533 -1.0902
   17SAPC  C217 2207   2.294   1.498   8.567  0.1282  0.1945  0.6275
   17SAPC  H17R 2208   2.328   1.603   8.581 -0.4031  0.4778 -0.1244
   17SAPC  H17S 2209   2.188   1.486   8.599 -0.4514 -0.1895 -1.2751
   17SAPC  C218 2210   2.311   1.470   8.411 -0.2190  0.5685 -0.1690
   17SAPC  H18R 2211   2.264   1.371   8.394  3.1524 -1.0050 -1.0417
   17SAPC  H18S 2212   2.420   1.461   8.391  0.0956  1.9384  0.7895
   17SAPC  C219 2213   2.247   1.575   8.317 -0.6764  0.3072  0.1468
   17SAPC  H19R 2214   2.293   1.675   8.328 -1.3367  0.7130 -0.6609
   17SAPC  H19S 2215   2.139   1.578   8.342 -0.4119  0.7068  1.3332
   17SAPC  C220 2216   2.262   1.533   8.174  0.0228  0.2588 -0.8413
   17SAPC  H20R 2217   2.370   1.521   8.153 -0.0783 -0.3866 -0.9978
   17SAPC  H20S 2218   2.215   1.605   8.104 -1.7451  1.9962  1.9228
   17SAPC  H20T 2219   2.214   1.435   8.153 -2.6318  1.0498  0.9921
   17SAPC   C33 2220   2.779   0.748   9.707  0.2737  0.1092 -0.2659
   17SAPC   H3X 2221   2.801   0.856   9.690  2.2961  0.3850  3.1949
   17SAPC   H3Y 2222   2.673   0.732   9.679 -0.2512  1.9334  0.5128
   17SAPC   C34 2223   2.877   0.650   9.624  0.5195  0.0462 -0.2629
   17SAPC   H4X 2224   2.879   0.552   9.676  0.7698  0.1272 -0.1167
   17SAPC   H4Y 2225   2.982   0.687   9.628  1.4929 -2.1534 -2.6908
   17SAPC   C35 2226   2.821   0.626   9.489 -0.1344 -0.5644  0.3343
   17SAPC   H5X 2227   2.790   0.720   9.438  0.7318 -1.6489 -2.4064
   17SAPC   H5Y 2228   2.730   0.564   9.502 -0.1307 -0.8343 -0.8251
   17SAPC   C36 2229   2.921   0.546   9.398 -0.1883 -0.2153  0.1395
   17SAPC   H6X 2230   2.954   0.455   9.451 -1.9313 -0.9133  0.0882
   17SAPC   H6Y 2231   3.014   0.606   9.382 -0.2786 -0.3371 -0.9302
   17SAPC   C37 2232   2.851   0.505   9.271 -0.9741  0.2152 -0.0056
   17SAPC   H7X 2233   2.748   0.467   9.286 -1.6596  1.2212 -1.8759
   17SAPC   H7Y 2234   2.919   0.432   9.222  0.3349  0.2378  1.6868
   17SAPC   C38 2235   2.849   0.626   9.175 -0.2940 -0.4234 -0.2848
   17SAPC   H8X 2236   2.950   0.669   9.159  1.0846 -3.5650 -0.8209
   17SAPC   H8Y 2237   2.780   0.699   9.223  0.6663  0.6494 -0.5052
   17SAPC   C39 2238   2.794   0.585   9.039  0.3373 -0.2929  0.1268
   17SAPC   H9X 2239   2.704   0.521   9.047 -0.2660  0.2054 -2.1680
   17SAPC   H9Y 2240   2.873   0.524   8.990  1.2690 -1.0509  2.4042
   17SAPC  C310 2241   2.758   0.713   8.963  0.3353 -0.1395 -0.1285
   17SAPC  H10X 2242   2.825   0.800   8.982 -1.5180  1.6281 -1.2948
   17SAPC  H10Y 2243   2.658   0.742   9.002 -0.6018  1.5508 -3.4352
   17SAPC  C311 2244   2.741   0.697   8.815  0.2389  0.9672 -0.0860
   17SAPC  H11X 2245   2.666   0.618   8.795  0.5397  1.1880 -2.4417
   17SAPC  H11Y 2246   2.830   0.654   8.764 -0.7760 -0.4452 -0.7066
   17SAPC  C312 2247   2.695   0.826   8.741  0.2065  0.7982  0.2662
   17SAPC  H12X 2248   2.773   0.902   8.766 -1.0368  1.7695  1.3183
   17SAPC  H12Y 2249   2.605   0.878   8.780  0.7015  1.2863  0.7853
   17SAPC  C313 2250   2.678   0.806   8.590 -0.3188  0.6238 -0.2901
   17SAPC  H13X 2251   2.761   0.754   8.536 -0.3501 -0.3151  0.5239
   17SAPC  H13Y 2252   2.659   0.906   8.548  2.5587  1.6510  0.6061
   17SAPC  C314 2253   2.547   0.718   8.570  1.0262  0.1856 -0.1081
   17SAPC  H14X 2254   2.467   0.774   8.624  1.0102  2.0388 -1.9177
   17SAPC  H14Y 2255   2.560   0.616   8.613 -2.0005 -0.5005 -0.5398
   17SAPC  C315 2256   2.513   0.691   8.418  0.1110 -0.0244  0.2061
   17SAPC  H15X 2257   2.568   0.600   8.387 -1.2522 -0.8912  0.2711
   17SAPC  H15Y 2258   2.567   0.767   8.357  1.8846 -1.1980  0.2391
   17SAPC  C316 2259   2.361   0.693   8.402  0.3255  0.0553 -0.6322
   17SAPC  H16X 2260   2.330   0.787   8.452  1.2521  0.0162  0.0380
   17SAPC  H16Y 2261   2.320   0.607   8.459 -0.5185 -0.0666 -1.4033
   17SAPC  C317 2262   2.319   0.680   8.251  0.3271 -0.6277 -0.2935
   17SAPC  H17X 2263   2.372   0.591   8.210  4.3796  1.5742 -0.3842
   17SAPC  H17Y 2264   2.366   0.758   8.187 -0.9442 -0.0436 -0.5527
   17SAPC  C318 2265   2.166   0.672   8.225  0.5169  0.2178  0.3630
   17SAPC  H18X 2266   2.131   0.674   8.119 -3.9882  2.6825  1.5974
   17SAPC  H18Y 2267   2.124   0.581   8.274 -0.3159 -0.5293 -1.6273
   17SAPC  H18Z 2268   2.120   0.761   8.274  1.3585 -0.6741  2.9526
   18SAPC     N 2269   3.729   1.260  10.958 -0.1039 -0.5249 -0.0513
   18SAPC   C12 2270   3.647   1.151  10.884  0.0423  0.0785  0.2646
   18SAPC  H12A 2271   3.576   1.197  10.817 -1.4896  0.6619  2.2068
   18SAPC  H12B 2272   3.579   1.100  10.951 -1.2542 -0.0278 -1.0866
   18SAPC   C13 2273   3.647   1.355  11.032  0.0116  0.0859  0.1340
   18SAPC  H13A 2274   3.702   1.438  11.074 -2.3693  1.7797  0.1342
   18SAPC  H13B 2275   3.566   1.397  10.975 -1.2030 -0.1472  1.6398
   18SAPC  H13C 2276   3.599   1.306  11.115  0.3278 -0.4368  0.0149
   18SAPC   C14 2277   3.817   1.204  11.060 -0.2716  0.2806 -0.5962
   18SAPC  H14A 2278   3.896   1.273  11.088 -0.2189  0.5069 -1.2817
   18SAPC  H14B 2279   3.759   1.177  11.147 -2.2573  2.3661 -1.1541
   18SAPC  H14C 2280   3.873   1.117  11.029  0.0662  1.0081 -2.1421
   18SAPC   C15 2281   3.803   1.340  10.857  0.0392  0.3153  0.0507
   18SAPC  H15A 2282   3.846   1.270  10.788 -2.9294 -0.0750 -1.5916
   18SAPC  H15B 2283   3.734   1.384  10.786 -0.3938  1.5476  1.1949
   18SAPC  H15C 2284   3.881   1.403  10.897  1.8170 -0.6550 -1.7242
   18SAPC   C11 2285   3.729   1.041  10.806 -0.0829  0.4006 -0.0224
   18SAPC  H11A 2286   3.663   0.974  10.747  0.4094  0.7216 -0.9634
   18SAPC  H11B 2287   3.769   0.970  10.882  0.3095  0.0032 -0.5962
   18SAPC     P 2288   3.830   1.116  10.576 -0.0111 -0.5640  0.5593
   18SAPC   O13 2289   3.798   1.260  10.568 -0.6282 -0.0221 -0.1802
   18SAPC   O14 2290   3.956   1.075  10.506 -0.1178  0.1892  0.0558
   18SAPC   O12 2291   3.844   1.088  10.735 -0.0587  0.3913 -0.0345
   18SAPC   O11 2292   3.713   1.024  10.522 -0.0997  0.3104 -0.3089
   18SAPC    C1 2293   3.728   0.883  10.513  0.4283  0.3209 -0.4871
   18SAPC    HA 2294   3.800   0.849  10.591  1.6354 -0.3692 -1.8549
   18SAPC    HB 2295   3.630   0.834  10.532  1.5772 -1.7054  0.4483
   18SAPC    C2 2296   3.782   0.839  10.374  0.0113 -0.3331  0.0972
   18SAPC    HS 2297   3.883   0.885  10.373  0.4857 -1.3360  0.7535
   18SAPC   O21 2298   3.695   0.880  10.268  0.5600 -0.3417 -0.5383
   18SAPC   C21 2299   3.755   0.956  10.174  0.1535  0.1583  0.0460
   18SAPC   O22 2300   3.868   0.997  10.184 -0.3673  0.3037  0.2796
   18SAPC   C22 2301   3.658   0.966  10.051  0.1748  0.4653 -0.0538
   18SAPC   H2R 2302   3.679   1.054   9.987 -0.6548  0.3528 -0.5002
   18SAPC   H2S 2303   3.679   0.880   9.984 -2.6799 -1.0713  0.8216
   18SAPC    C3 2304   3.806   0.684  10.371  0.1367  0.4382  0.1991
   18SAPC    HX 2305   3.724   0.634  10.427  0.0728  0.1813 -0.1202
   18SAPC    HY 2306   3.902   0.663  10.423  0.5208 -1.2679 -1.1034
   18SAPC   O31 2307   3.816   0.644  10.225 -0.1311  0.1552  0.1532
   18SAPC   C31 2308   3.847   0.515  10.211  0.2729  0.0288 -0.6689
   18SAPC   O32 2309   3.872   0.431  10.298 -0.4697  0.2892 -0.1072
   18SAPC   C32 2310   3.826   0.486  10.058 -0.0185  0.3899 -0.9925
   18SAPC   H2X 2311   3.814   0.580  10.000 -1.4647  0.4193 -0.6766
   18SAPC   H2Y 2312   3.730   0.430  10.056 -1.0526  1.9629  0.8503
   18SAPC   C23 2313   3.506   0.962  10.090  0.2188  0.3642  0.2089
   18SAPC   H3R 2314   3.486   1.020  10.182 -1.0720  0.7222 -0.2632
   18SAPC   H3S 2315   3.493   0.854  10.108  2.8761  0.1084  0.9037
   18SAPC   C24 2316   3.406   1.000   9.979  0.1515 -1.2541 -0.9424
   18SAPC   H4R 2317   3.301   0.993  10.016  0.2621 -1.6517 -0.6968
   18SAPC   H4S 2318   3.421   0.916   9.908  0.7164 -1.8021 -0.1878
   18SAPC   C25 2319   3.436   1.130   9.909 -0.5339  0.3322  0.6578
   18SAPC   H5R 2320   3.441   1.217   9.976 -2.3836  0.3140  0.8669
   18SAPC   C26 2321   3.444   1.157   9.776  0.1559 -0.0022 -0.4349
   18SAPC   H6R 2322   3.464   1.259   9.741  0.8038  1.3878  3.5233
   18SAPC   C27 2323   3.421   1.051   9.674  0.3819  0.2612 -0.1599
   18SAPC   H7R 2324   3.313   1.025   9.673  0.3344  0.4422  0.2463
   18SAPC   H7S 2325   3.477   0.961   9.707  1.0265  0.4331 -0.7479
   18SAPC   C28 2326   3.479   1.081   9.543 -0.1401 -0.1283 -0.2894
   18SAPC   H8R 2327   3.588   1.095   9.547 -0.3168  1.0189  1.1695
   18SAPC   C29 2328   3.409   1.103   9.427 -0.5707 -0.5799 -0.6486
   18SAPC   H9R 2329   3.469   1.121   9.337  1.8156 -1.6212  0.6440
   18SAPC  C210 2330   3.264   1.091   9.413  0.3195  0.5734  0.0159
   18SAPC  H10R 2331   3.241   1.170   9.338 -0.5433  0.5583  0.2560
   18SAPC  H10S 2332   3.209   1.116   9.506 -0.6215 -2.7887  0.5001
   18SAPC  C211 2333   3.215   0.957   9.361 -0.3645 -0.2743 -0.7004
   18SAPC  H11R 2334   3.187   0.890   9.444  0.8424  0.8465  0.6479
   18SAPC  C212 2335   3.196   0.912   9.234 -0.8995 -0.0686 -0.1075
   18SAPC  H12R 2336   3.155   0.811   9.230 -1.0266 -0.0621  0.8197
   18SAPC  C213 2337   3.219   0.984   9.108  0.2230  0.7073  0.9301
   18SAPC  H13R 2338   3.273   1.079   9.125 -0.8899  1.9186 -1.7547
   18SAPC  H13S 2339   3.126   1.020   9.058  2.9265  3.8629 -2.4097
   18SAPC  C214 2340   3.291   0.905   8.998 -0.5520 -0.5596  1.1092
   18SAPC  H14R 2341   3.355   0.820   9.027  2.8428  0.7588 -1.7255
   18SAPC  C215 2342   3.294   0.947   8.870  0.9861  0.5672 -0.8127
   18SAPC  H15R 2343   3.360   0.892   8.802 -0.4719  0.4583 -2.1899
   18SAPC  C216 2344   3.227   1.061   8.805  0.7780 -0.6810  0.4484
   18SAPC  H16R 2345   3.300   1.115   8.741 -0.4553  1.0325  0.4197
   18SAPC  H16S 2346   3.188   1.131   8.882 -1.0578 -0.3669 -0.6943
   18SAPC  C217 2347   3.115   1.017   8.712 -0.2032 -0.4083 -0.0399
   18SAPC  H17R 2348   3.034   0.971   8.774  0.2373  1.0219  1.6597
   18SAPC  H17S 2349   3.157   0.936   8.649 -2.4060 -2.2422  0.6934
   18SAPC  C218 2350   3.059   1.132   8.617  0.1163  0.5987  0.1724
   18SAPC  H18R 2351   3.139   1.170   8.549  0.1712 -0.9871 -0.7002
   18SAPC  H18S 2352   3.017   1.210   8.684  2.0968  0.8012  1.2636
   18SAPC  C219 2353   2.941   1.088   8.530  0.0236  0.2678  1.1061
   18SAPC  H19R 2354   2.904   1.181   8.480 -1.9823 -0.2164  1.5977
   18SAPC  H19S 2355   2.861   1.050   8.596 -0.7581  0.1501  0.1152
   18SAPC  C220 2356   2.976   0.975   8.425 -0.1274  0.0613 -0.4465
   18SAPC  H20R 2357   3.025   0.888   8.473 -0.0953 -0.7956 -1.9922
   18SAPC  H20S 2358   3.026   1.028   8.342  1.1173  1.2176  0.9754
   18SAPC  H20T 2359   2.876   0.946   8.386  0.3739 -0.2197 -1.5434
   18SAPC   C33 2360   3.933   0.396   9.997 -0.4845  0.4048  0.2233
   18SAPC   H3X 2361   3.988   0.332  10.069  0.9357  2.4429  1.0311
   18SAPC   H3Y 2362   4.009   0.469   9.960  0.8368 -0.9005  0.2931
   18SAPC   C34 2363   3.881   0.310   9.877  0.3939  0.2443 -0.7486
   18SAPC   H4X 2364   3.799   0.251   9.924 -1.0709  1.6729 -1.4201
   18SAPC   H4Y 2365   3.955   0.242   9.829  0.8894  0.8179 -0.8045
   18SAPC   C35 2366   3.822   0.389   9.754  0.3231  0.3002  0.1808
   18SAPC   H5X 2367   3.863   0.491   9.739  2.5445 -0.5622 -0.0334
   18SAPC   H5Y 2368   3.716   0.414   9.777  0.5904  0.8669  0.8413
   18SAPC   C36 2369   3.834   0.315   9.625  0.1438  0.5833  0.4327
   18SAPC   H6X 2370   3.773   0.222   9.631 -0.4905  0.9781  0.2171
   18SAPC   H6Y 2371   3.940   0.291   9.605  0.1724  2.1446 -1.5942
   18SAPC   C37 2372   3.784   0.395   9.504  0.3245  0.1148  0.9472
   18SAPC   H7X 2373   3.834   0.494   9.497  1.0713 -0.3586 -2.4646
   18SAPC   H7Y 2374   3.674   0.394   9.514  0.2780  0.5525  0.4885
   18SAPC   C38 2375   3.825   0.316   9.370 -0.0252  0.3271  0.8677
   18SAPC   H8X 2376   3.804   0.208   9.387  1.0865  0.2156  1.6084
   18SAPC   H8Y 2377   3.935   0.322   9.356 -0.1067 -1.8886 -1.4608
   18SAPC   C39 2378   3.744   0.366   9.252 -0.1298  0.2135  0.5480
   18SAPC   H9X 2379   3.754   0.473   9.225  3.7394 -0.1835 -0.1118
   18SAPC   H9Y 2380   3.636   0.354   9.277 -0.8765 -2.0253 -2.9163
   18SAPC  C310 2381   3.781   0.285   9.131  0.7556  0.1454  0.7968
   18SAPC  H10X 2382   3.764   0.180   9.162 -1.1963 -0.8860 -3.1502
   18SAPC  H10Y 2383   3.892   0.291   9.119  0.6396  1.6290  0.1857
   18SAPC  C311 2384   3.713   0.320   9.000  0.3407 -0.2570 -0.3605
   18SAPC  H11X 2385   3.605   0.322   9.026  0.4595  0.6741  0.0956
   18SAPC  H11Y 2386   3.749   0.252   8.921  1.0248 -1.3476  0.8505
   18SAPC  C312 2387   3.749   0.464   8.949 -0.0771 -0.0961  0.0839
   18SAPC  H12X 2388   3.859   0.481   8.961  0.3350 -2.2880 -0.1769
   18SAPC  H12Y 2389   3.700   0.542   9.012  1.1067 -0.3833  1.4127
   18SAPC  C313 2390   3.700   0.488   8.804 -1.2588  0.2732  0.5773
   18SAPC  H13X 2391   3.591   0.465   8.808 -1.3483 -0.8530 -3.4427
   18SAPC  H13Y 2392   3.752   0.419   8.734  1.2478 -0.4057  2.9552
   18SAPC  C314 2393   3.722   0.633   8.757  0.2873 -0.4999 -0.5716
   18SAPC  H14X 2394   3.825   0.663   8.786  0.2196 -0.1689 -0.6668
   18SAPC  H14Y 2395   3.659   0.703   8.816  0.5915 -0.5706 -0.1542
   18SAPC  C315 2396   3.701   0.647   8.613  0.5288  0.0608  0.2028
   18SAPC  H15X 2397   3.606   0.604   8.573  1.0623 -0.6409 -0.3345
   18SAPC  H15Y 2398   3.782   0.592   8.559 -1.4920 -2.5780 -0.3827
   18SAPC  C316 2399   3.686   0.798   8.577  0.0911  0.2411  0.0731
   18SAPC  H16X 2400   3.599   0.838   8.633 -0.9142 -1.1595 -0.4497
   18SAPC  H16Y 2401   3.671   0.814   8.469  1.0909  0.2507 -0.0799
   18SAPC  C317 2402   3.819   0.872   8.607  0.8482  0.5839 -0.2138
   18SAPC  H17X 2403   3.911   0.826   8.566  1.8308  3.0146 -0.9025
   18SAPC  H17Y 2404   3.833   0.863   8.717 -1.3259 -1.5121 -0.0148
   18SAPC  C318 2405   3.795   1.020   8.561 -0.3056  1.1467 -0.1497
   18SAPC  H18X 2406   3.711   1.066   8.616 -0.0443  0.8948  0.4702
   18SAPC  H18Y 2407   3.787   1.030   8.450  0.5732 -0.2581 -0.3790
   18SAPC  H18Z 2408   3.891   1.070   8.586 -0.3587  0.5300  1.3876
   19SAPC     N 2409   2.918   3.308  10.887  0.3001  0.0476 -0.4635
   19SAPC   C12 2410   2.944   3.447  10.828  0.5094  0.0899 -0.5136
   19SAPC  H12A 2411   3.030   3.493  10.874  2.1528 -1.2308 -2.0556
   19SAPC  H12B 2412   2.857   3.501  10.860  0.4791 -0.2805  0.0380
   19SAPC   C13 2413   2.778   3.258  10.845 -0.0303  0.6201 -0.3056
   19SAPC  H13A 2414   2.758   3.159  10.884  2.3323 -0.3651 -1.4594
   19SAPC  H13B 2415   2.689   3.316  10.863 -1.9688 -1.4758 -2.3810
   19SAPC  H13C 2416   2.774   3.249  10.738 -0.1647  1.4212 -0.3725
   19SAPC   C14 2417   3.019   3.205  10.837  0.0497  0.2352  0.0364
   19SAPC  H14A 2418   2.996   3.111  10.885 -0.8795  0.7984  0.7405
   19SAPC  H14B 2419   3.014   3.196  10.730  1.5902  2.0609 -0.2334
   19SAPC  H14C 2420   3.118   3.240  10.860 -0.1997  0.4404  0.8508
   19SAPC   C15 2421   2.921   3.314  11.034  0.2984  0.9852 -0.6666
   19SAPC  H15A 2422   3.021   3.330  11.072  0.4524  0.7124 -0.9572
   19SAPC  H15B 2423   2.864   3.395  11.079  1.1786 -0.1385  2.7983
   19SAPC  H15C 2424   2.891   3.216  11.067  0.2333  1.3958  0.5528
   19SAPC   C11 2425   2.949   3.452  10.676  0.0561  0.2578 -0.1601
   19SAPC  H11A 2426   3.021   3.378  10.637 -1.0492 -0.4257 -0.9429
   19SAPC  H11B 2427   2.988   3.546  10.632 -0.4255  1.1284  1.1929
   19SAPC     P 2428   2.718   3.516  10.572  0.1397  0.4505  0.2072
   19SAPC   O13 2429   2.633   3.463  10.464 -0.6875 -0.3090 -0.4993
   19SAPC   O14 2430   2.659   3.556  10.697 -0.2105  0.0335 -0.7897
   19SAPC   O12 2431   2.832   3.409  10.603  0.6267 -0.0168 -0.4314
   19SAPC   O11 2432   2.789   3.641  10.518 -0.6498 -0.1360 -0.1913
   19SAPC    C1 2433   2.730   3.765  10.483  0.6760 -0.2115  0.4676
   19SAPC    HA 2434   2.621   3.748  10.473  0.7142  0.7288 -2.4473
   19SAPC    HB 2435   2.739   3.840  10.564  0.9964  2.5079 -1.9140
   19SAPC    C2 2436   2.790   3.835  10.358 -0.1040 -0.0065 -0.6051
   19SAPC    HS 2437   2.722   3.918  10.327  0.8297  0.8053 -0.5256
   19SAPC   O21 2438   2.789   3.745  10.251  0.4383  0.3187  0.0484
   19SAPC   C21 2439   2.670   3.706  10.208 -0.3622 -0.1462  0.4475
   19SAPC   O22 2440   2.559   3.754  10.243 -0.5408 -0.4957  0.2915
   19SAPC   C22 2441   2.678   3.605  10.092 -0.4291 -0.2268 -0.8829
   19SAPC   H2R 2442   2.771   3.633  10.038 -0.5288  1.8293 -0.0588
   19SAPC   H2S 2443   2.697   3.507  10.140  1.4278  1.2392  1.5835
   19SAPC    C3 2444   2.931   3.899  10.382 -0.1066 -0.1446 -0.0986
   19SAPC    HX 2445   2.997   3.814  10.410  0.0189  0.4117  1.3985
   19SAPC    HY 2446   2.924   3.967  10.470 -0.3284  1.8326 -1.5757
   19SAPC   O31 2447   2.974   3.966  10.269 -0.5104  0.1084  0.1586
   19SAPC   C31 2448   2.925   4.086  10.242 -0.4162 -0.2637  0.0818
   19SAPC   O32 2449   2.857   4.152  10.318 -0.7016 -0.3361 -0.1317
   19SAPC   C32 2450   2.972   4.141  10.095  0.2616  0.6874 -1.5730
   19SAPC   H2X 2451   3.083   4.129  10.095  0.2291  0.3605 -1.8482
   19SAPC   H2Y 2452   2.957   4.250  10.086  1.3487  0.7640 -2.7731
   19SAPC   C23 2453   2.555   3.605   9.998 -0.2429 -0.2059 -0.1681
   19SAPC   H3R 2454   2.525   3.709   9.972 -0.1538 -0.0775  0.2344
   19SAPC   H3S 2455   2.467   3.564  10.052  1.3949 -2.0607  1.2599
   19SAPC   C24 2456   2.580   3.515   9.883 -0.2647 -0.0287  0.2767
   19SAPC   H4R 2457   2.627   3.421   9.918  0.9639  0.8639  1.1327
   19SAPC   H4S 2458   2.654   3.564   9.816 -0.6235 -1.6628 -1.4122
   19SAPC   C25 2459   2.453   3.489   9.802  0.0919  0.3356 -0.1804
   19SAPC   H5R 2460   2.403   3.392   9.821  1.0432 -0.2466 -0.5564
   19SAPC   C26 2461   2.409   3.572   9.707 -0.3246 -0.1611  0.2566
   19SAPC   H6R 2462   2.321   3.540   9.649 -1.5941  0.6640  1.6705
   19SAPC   C27 2463   2.488   3.693   9.656  0.8459 -0.9957 -0.8302
   19SAPC   H7R 2464   2.554   3.734   9.735 -1.5774  1.6238 -0.0107
   19SAPC   H7S 2465   2.413   3.774   9.646  2.4591  0.6133 -0.3375
   19SAPC   C28 2466   2.572   3.691   9.527  0.2766  0.1237 -0.2497
   19SAPC   H8R 2467   2.675   3.726   9.543  0.2726 -0.3863  1.0172
   19SAPC   C29 2468   2.531   3.656   9.402  0.1579 -0.8807 -0.0224
   19SAPC   H9R 2469   2.612   3.653   9.328  1.5244  0.5493  1.3432
   19SAPC  C210 2470   2.403   3.598   9.356 -0.0818  0.3012 -0.5384
   19SAPC  H10R 2471   2.360   3.666   9.279 -0.9203  0.7589  0.3121
   19SAPC  H10S 2472   2.329   3.588   9.438  0.5170  0.9138  0.0798
   19SAPC  C211 2473   2.422   3.457   9.310 -0.0726  0.4838 -0.1369
   19SAPC  H11R 2474   2.446   3.388   9.392 -0.8195 -0.7103 -0.9060
   19SAPC  C212 2475   2.404   3.401   9.188  0.2282 -0.2825  0.5002
   19SAPC  H12R 2476   2.418   3.293   9.180  0.0469 -0.1971 -1.3067
   19SAPC  C213 2477   2.363   3.468   9.061  0.1037 -0.4776  0.2130
   19SAPC  H13R 2478   2.340   3.575   9.082  2.8487  0.3405 -0.4357
   19SAPC  H13S 2479   2.263   3.433   9.031 -1.7595  3.5586  1.0350
   19SAPC  C214 2480   2.472   3.467   8.956 -0.5612  0.8947 -0.6895
   19SAPC  H14R 2481   2.562   3.523   8.984 -0.4354 -0.6388  2.2848
   19SAPC  C215 2482   2.461   3.387   8.846 -0.6325 -0.2308 -0.0401
   19SAPC  H15R 2483   2.550   3.366   8.784  0.6313  2.1177  0.8530
   19SAPC  C216 2484   2.340   3.304   8.811 -0.2459 -0.4978  0.5204
   19SAPC  H16R 2485   2.282   3.376   8.750  1.4132  1.2107  0.8465
   19SAPC  H16S 2486   2.285   3.261   8.898  0.5161  1.6412  2.1505
   19SAPC  C217 2487   2.380   3.194   8.708  0.4219 -0.7281  0.2786
   19SAPC  H17R 2488   2.452   3.122   8.753  0.0623 -1.6326 -0.5426
   19SAPC  H17S 2489   2.438   3.244   8.629  0.7283  0.1453  1.0461
   19SAPC  C218 2490   2.265   3.112   8.653 -0.5945 -0.5830 -0.2560
   19SAPC  H18R 2491   2.198   3.188   8.607 -0.9491 -0.7469 -0.0150
   19SAPC  H18S 2492   2.214   3.062   8.739 -1.3207  0.1733 -0.2286
   19SAPC  C219 2493   2.305   3.007   8.547  0.1982  0.1429 -0.4028
   19SAPC  H19R 2494   2.331   2.916   8.604 -0.1172  0.5190  0.3673
   19SAPC  H19S 2495   2.397   3.034   8.491  0.4916 -2.4172 -1.2667
   19SAPC  C220 2496   2.194   2.971   8.443  0.3417 -0.4355 -0.3551
   19SAPC  H20R 2497   2.222   2.873   8.398  0.0392 -0.3740 -0.6777
   19SAPC  H20S 2498   2.188   3.052   8.368 -0.5402 -0.0352  0.1341
   19SAPC  H20T 2499   2.098   2.960   8.498 -0.3104  0.8488 -1.1879
   19SAPC   C33 2500   2.896   4.073   9.978  0.0936 -1.0919  0.1399
   19SAPC   H3X 2501   2.906   4.149   9.898 -1.7472  0.5626  1.3830
   19SAPC   H3Y 2502   2.786   4.057   9.980  0.0425 -1.0258  3.3445
   19SAPC   C34 2503   2.963   3.943   9.934  0.6527  0.3020  0.2236
   19SAPC   H4X 2504   2.946   3.869  10.015  2.6035  0.0106  0.3916
   19SAPC   H4Y 2505   3.073   3.954   9.926  0.9333 -2.4224 -0.5024
   19SAPC   C35 2506   2.917   3.903   9.790 -0.3730 -0.9655 -0.3984
   19SAPC   H5X 2507   2.808   3.923   9.786 -0.1823  0.5253  1.0448
   19SAPC   H5Y 2508   2.945   3.796   9.776  0.3222 -0.7670 -0.5389
   19SAPC   C36 2509   2.993   3.966   9.671 -0.1240  0.7511  0.2871
   19SAPC   H6X 2510   3.097   3.972   9.709  0.6785 -1.6990 -1.2436
   19SAPC   H6Y 2511   2.947   4.066   9.659  0.3457  1.0386  0.8781
   19SAPC   C37 2512   2.993   3.879   9.541  0.6767 -0.0029 -0.5848
   19SAPC   H7X 2513   2.911   3.804   9.531  0.2228  0.7141 -2.7734
   19SAPC   H7Y 2514   3.090   3.826   9.533  1.8126  2.0356 -0.7805
   19SAPC   C38 2515   3.006   3.968   9.413  0.3819 -0.2466 -0.8616
   19SAPC   H8X 2516   3.095   4.034   9.425 -0.0931  0.3309 -0.5062
   19SAPC   H8Y 2517   2.920   4.038   9.416  0.5046 -0.1248 -0.0971
   19SAPC   C39 2518   3.020   3.901   9.277  0.6019 -0.7628 -0.2201
   19SAPC   H9X 2519   3.108   3.833   9.280  0.2099 -1.4486 -2.2781
   19SAPC   H9Y 2520   3.045   3.978   9.201  0.1406 -0.0254  0.3662
   19SAPC  C310 2521   2.894   3.834   9.229 -0.5304 -0.3518  0.1124
   19SAPC  H10X 2522   2.798   3.888   9.239  0.5413  1.3166  2.2280
   19SAPC  H10Y 2523   2.885   3.741   9.290 -0.2185  0.3773  1.3112
   19SAPC  C311 2524   2.913   3.787   9.087 -0.0216  0.0747 -0.5421
   19SAPC  H11X 2525   2.991   3.708   9.084  0.9138  0.9628 -0.3300
   19SAPC  H11Y 2526   2.954   3.865   9.019 -1.3595  2.4000  1.1417
   19SAPC  C312 2527   2.793   3.728   9.026  0.0246  0.0749  0.5894
   19SAPC  H12X 2528   2.704   3.795   9.021  0.5592  0.9530  2.1738
   19SAPC  H12Y 2529   2.756   3.651   9.096  0.2095 -0.3952  0.1747
   19SAPC  C313 2530   2.814   3.671   8.882 -0.0977  0.2845 -0.7206
   19SAPC  H13X 2531   2.719   3.640   8.833  0.0590 -0.6886 -0.4417
   19SAPC  H13Y 2532   2.874   3.578   8.882 -1.0108 -0.3231 -0.3694
   19SAPC  C314 2533   2.884   3.770   8.787 -0.5862 -0.1984  0.2863
   19SAPC  H14X 2534   2.993   3.765   8.810 -0.7166  0.8850  1.2138
   19SAPC  H14Y 2535   2.841   3.868   8.817 -3.5782 -1.5540  0.7791
   19SAPC  C315 2536   2.860   3.742   8.638  0.0306 -0.2753 -0.9425
   19SAPC  H15X 2537   2.757   3.700   8.630 -0.6568  1.3318 -0.9572
   19SAPC  H15Y 2538   2.940   3.680   8.593 -0.4905 -0.8137 -1.1493
   19SAPC  C316 2539   2.867   3.870   8.556 -0.2341  0.2413 -0.1090
   19SAPC  H16X 2540   2.964   3.918   8.582 -1.7175  1.8970  2.9939
   19SAPC  H16Y 2541   2.787   3.946   8.568 -1.7112 -1.1013 -1.0371
   19SAPC  C317 2542   2.861   3.832   8.411 -0.5940  0.2758 -0.4488
   19SAPC  H17X 2543   2.784   3.756   8.384  1.8394 -1.9518 -1.5275
   19SAPC  H17Y 2544   2.961   3.793   8.383  0.0291  1.7955 -0.4704
   19SAPC  C318 2545   2.842   3.954   8.324  0.6535 -0.2107 -0.5232
   19SAPC  H18X 2546   2.748   4.010   8.348 -0.1581 -1.4584 -0.7051
   19SAPC  H18Y 2547   2.835   3.932   8.215  0.9628  0.4980 -0.6943
   19SAPC  H18Z 2548   2.925   4.027   8.337  0.8964 -0.2691 -1.6648
   20SAPC     N 2549   2.822   6.295  10.767 -0.9178 -0.1753 -0.1193
   20SAPC   C12 2550   2.707   6.297  10.869 -0.1191  0.2626 -0.3043
   20SAPC  H12A 2551   2.749   6.321  10.966 -0.7565  1.9393 -0.4026
   20SAPC  H12B 2552   2.677   6.194  10.881 -2.1342  1.0506  2.6211
   20SAPC   C13 2553   2.777   6.261  10.626 -0.0720  0.0997  0.3868
   20SAPC  H13A 2554   2.713   6.174  10.635  0.4535 -0.4661 -0.9807
   20SAPC  H13B 2555   2.736   6.344  10.571  0.2806 -0.8615 -1.3887
   20SAPC  H13C 2556   2.859   6.230  10.564 -2.2916 -0.0844 -2.6576
   20SAPC   C14 2557   2.882   6.433  10.758  0.2405 -0.6362 -0.3007
   20SAPC  H14A 2558   2.798   6.500  10.758 -0.2807 -1.2829 -0.0342
   20SAPC  H14B 2559   2.946   6.465  10.839  0.7679  1.7090 -1.5681
   20SAPC  H14C 2560   2.939   6.444  10.667 -1.0032  1.7337 -0.8589
   20SAPC   C15 2561   2.927   6.200  10.815 -0.4066  0.2234 -0.0874
   20SAPC  H15A 2562   2.888   6.100  10.802  2.5538 -0.7391 -3.0749
   20SAPC  H15B 2563   3.005   6.203  10.741 -1.4883  3.5067 -1.2614
   20SAPC  H15C 2564   2.954   6.218  10.918 -1.5415  2.1199 -0.0681
   20SAPC   C11 2565   2.578   6.377  10.836 -0.4045 -0.2953 -0.1326
   20SAPC  H11A 2566   2.504   6.341  10.910  0.1995  1.2306  1.3014
   20SAPC  H11B 2567   2.536   6.343  10.739  0.4195 -2.1507  0.1215
   20SAPC     P 2568   2.492   6.617  10.775 -0.1199  0.3917  0.2266
   20SAPC   O13 2569   2.357   6.589  10.822  0.0676 -0.7296  0.5917
   20SAPC   O14 2570   2.545   6.755  10.797  0.3654  0.7303 -0.1773
   20SAPC   O12 2571   2.592   6.521  10.839 -0.0338  0.2640 -0.0240
   20SAPC   O11 2572   2.502   6.579  10.623  0.4977 -0.0545  0.0696
   20SAPC    C1 2573   2.617   6.601  10.539  0.3371  0.2070 -0.1398
   20SAPC    HA 2574   2.712   6.611  10.596  0.3921  1.6045 -0.4452
   20SAPC    HB 2575   2.624   6.508  10.478 -1.2366 -0.4913  0.6868
   20SAPC    C2 2576   2.599   6.719  10.438 -0.1573 -0.2597 -0.1268
   20SAPC    HS 2577   2.617   6.809  10.501  1.1159 -0.9198  0.4756
   20SAPC   O21 2578   2.463   6.717  10.389 -0.0833 -0.1120  0.1333
   20SAPC   C21 2579   2.427   6.837  10.330  0.2580  0.0290  0.4569
   20SAPC   O22 2580   2.505   6.931  10.327 -0.1392 -0.1165  0.1026
   20SAPC   C22 2581   2.293   6.822  10.264  0.0103 -0.3905  0.3570
   20SAPC   H2R 2582   2.297   6.723  10.214  0.7748  0.4793 -1.3919
   20SAPC   H2S 2583   2.216   6.834  10.343 -0.4566  0.5653 -0.2329
   20SAPC    C3 2584   2.708   6.701  10.321 -0.4332 -0.6244  1.4072
   20SAPC    HX 2585   2.800   6.693  10.383  0.3111  0.2440  0.4580
   20SAPC    HY 2586   2.709   6.797  10.264 -1.5573 -1.5598 -0.2656
   20SAPC   O31 2587   2.710   6.572  10.261 -0.1864  0.1461  0.1203
   20SAPC   C31 2588   2.640   6.570  10.157  0.1605 -0.1499 -0.0895
   20SAPC   O32 2589   2.591   6.669  10.099 -0.1192  0.2570  0.1238
   20SAPC   C32 2590   2.602   6.419  10.134 -0.5454  0.2461  0.2593
   20SAPC   H2X 2591   2.550   6.382  10.224 -0.7956  1.8365  0.8056
   20SAPC   H2Y 2592   2.695   6.361  10.117 -0.4443  0.6920 -0.8287
   20SAPC   C23 2593   2.262   6.925  10.153  0.3252 -0.2071 -0.6386
   20SAPC   H3R 2594   2.273   7.032  10.184  0.9559  0.0945 -1.8161
   20SAPC   H3S 2595   2.157   6.922  10.117  0.3129  0.5814 -0.6946
   20SAPC   C24 2596   2.349   6.894  10.028 -0.3613 -0.4076 -0.1769
   20SAPC   H4R 2597   2.307   6.795  10.000  0.8810 -0.7806 -0.8141
   20SAPC   H4S 2598   2.458   6.893  10.051 -0.1735  0.2232 -1.0079
   20SAPC   C25 2599   2.335   6.996   9.918  0.0167 -0.5132 -0.5003
   20SAPC   H5R 2600   2.337   7.100   9.955  1.2029 -0.9501  0.6999
   20SAPC   C26 2601   2.340   6.975   9.791 -0.2775  0.4299 -0.7483
   20SAPC   H6R 2602   2.333   7.064   9.726 -1.9077  1.4424  0.7248
   20SAPC   C27 2603   2.377   6.852   9.725  0.3552  0.3374  0.6797
   20SAPC   H7R 2604   2.302   6.819   9.650  1.3001 -2.5072  0.8568
   20SAPC   H7S 2605   2.370   6.766   9.795 -0.3162  0.9912  1.4294
   20SAPC   C28 2606   2.513   6.867   9.659 -0.3645  0.6702  0.1056
   20SAPC   H8R 2607   2.600   6.834   9.717 -1.6867 -0.8008  1.3680
   20SAPC   C29 2608   2.533   6.900   9.533  0.0454 -0.6636 -0.3418
   20SAPC   H9R 2609   2.635   6.891   9.494 -0.0041 -3.1047 -0.0577
   20SAPC  C210 2610   2.423   6.926   9.433  0.0787 -0.3175 -0.2421
   20SAPC  H10R 2611   2.324   6.936   9.483  0.2355  0.2795 -0.0342
   20SAPC  H10S 2612   2.413   6.828   9.381  1.2722 -0.1259 -0.8457
   20SAPC  C211 2613   2.453   7.046   9.348  0.1155  0.0882 -0.3400
   20SAPC  H11R 2614   2.475   7.136   9.407 -2.5774  1.0448 -0.6488
   20SAPC  C212 2615   2.439   7.051   9.210  0.3896  0.6529 -0.1494
   20SAPC  H12R 2616   2.454   7.147   9.159 -1.8869  1.0216 -0.2240
   20SAPC  C213 2617   2.375   6.949   9.117  0.1652 -0.2084 -0.8200
   20SAPC  H13R 2618   2.345   6.865   9.184  2.8284 -0.8051 -0.2737
   20SAPC  H13S 2619   2.450   6.893   9.058 -1.0861  0.0489 -2.7278
   20SAPC  C214 2620   2.260   6.992   9.027 -0.0352 -0.0084  0.0481
   20SAPC  H14R 2621   2.166   7.024   9.074  0.0625 -0.9682  0.9399
   20SAPC  C215 2622   2.253   6.991   8.893  0.9101  0.4649  0.0061
   20SAPC  H15R 2623   2.156   7.020   8.850 -1.0950 -2.6681  1.9933
   20SAPC  C216 2624   2.362   6.950   8.797 -0.6504  0.1138 -0.2036
   20SAPC  H16R 2625   2.340   6.857   8.741 -0.8802 -0.5892  1.0113
   20SAPC  H16S 2626   2.454   6.944   8.859  1.7505  2.7613 -3.2128
   20SAPC  C217 2627   2.387   7.058   8.695 -0.1413 -0.6835  0.0871
   20SAPC  H17R 2628   2.419   7.151   8.747 -0.3738 -1.6776  2.0834
   20SAPC  H17S 2629   2.288   7.078   8.648 -0.9599 -3.5810  0.3729
   20SAPC  C218 2630   2.503   7.014   8.596 -0.0180 -0.1656 -0.4537
   20SAPC  H18R 2631   2.479   6.922   8.539  1.0937 -0.5637 -0.2877
   20SAPC  H18S 2632   2.593   6.984   8.652 -1.5054 -1.6401  1.2608
   20SAPC  C219 2633   2.531   7.117   8.492 -1.6084 -0.1613 -0.5249
   20SAPC  H19R 2634   2.617   7.079   8.434 -1.1487  0.2630 -0.1255
   20SAPC  H19S 2635   2.548   7.212   8.548  2.9490 -0.9376 -0.2057
   20SAPC  C220 2636   2.422   7.122   8.389  0.4255 -0.8917 -0.4916
   20SAPC  H20R 2637   2.381   7.020   8.372 -0.9310 -0.6298  0.9455
   20SAPC  H20S 2638   2.457   7.166   8.293 -1.2301  3.1208  0.5396
   20SAPC  H20T 2639   2.343   7.190   8.428  0.9275  0.3000 -1.4685
   20SAPC   C33 2640   2.502   6.392  10.024 -0.0458 -0.5954  0.1003
   20SAPC   H3X 2641   2.402   6.439  10.035 -0.8299 -1.7536 -1.5025
   20SAPC   H3Y 2642   2.468   6.286  10.032 -0.4866 -0.4568  0.0824
   20SAPC   C34 2643   2.560   6.426   9.883 -0.3437 -0.8234  0.0128
   20SAPC   H4X 2644   2.656   6.371   9.872  0.8805  1.4472 -1.3811
   20SAPC   H4Y 2645   2.576   6.534   9.863  1.0966 -1.4829 -2.9176
   20SAPC   C35 2646   2.446   6.387   9.789 -0.4090 -0.4998  0.7827
   20SAPC   H5X 2647   2.358   6.447   9.820  0.6895  0.9282  1.2061
   20SAPC   H5Y 2648   2.422   6.279   9.800  2.6918 -1.5751 -1.5302
   20SAPC   C36 2649   2.495   6.413   9.645  0.5855 -0.5038  0.2288
   20SAPC   H6X 2650   2.591   6.360   9.626  1.5730  1.5365 -0.7855
   20SAPC   H6Y 2651   2.509   6.521   9.623 -2.1312 -0.5274 -2.0837
   20SAPC   C37 2652   2.392   6.367   9.540  0.8592 -0.5572  0.3289
   20SAPC   H7X 2653   2.297   6.417   9.568 -0.0739 -1.3740 -1.2540
   20SAPC   H7Y 2654   2.364   6.262   9.560 -0.1926  0.0723  2.5448
   20SAPC   C38 2655   2.433   6.403   9.401  0.5050  0.2456 -0.2564
   20SAPC   H8X 2656   2.529   6.355   9.372  0.7682 -0.2858  1.3870
   20SAPC   H8Y 2657   2.451   6.512   9.393  0.7426  0.0991 -2.0656
   20SAPC   C39 2658   2.323   6.362   9.306  0.0907  0.0264 -0.1163
   20SAPC   H9X 2659   2.222   6.372   9.350  0.2183 -0.7447  0.3767
   20SAPC   H9Y 2660   2.349   6.257   9.281  0.7247  0.1339  0.0719
   20SAPC  C310 2661   2.335   6.438   9.178  0.2950  0.9231 -0.0333
   20SAPC  H10X 2662   2.441   6.450   9.147  0.0385 -0.9416 -1.7885
   20SAPC  H10Y 2663   2.318   6.544   9.208  1.7461  0.4900  2.7185
   20SAPC  C311 2664   2.248   6.367   9.066 -0.7938 -0.4485  0.1616
   20SAPC  H11X 2665   2.145   6.347   9.103 -0.7181 -2.3015 -0.5390
   20SAPC  H11Y 2666   2.298   6.273   9.033  0.5319  1.3309 -3.4293
   20SAPC  C312 2667   2.244   6.446   8.932 -0.5394  0.2365  0.2074
   20SAPC  H12X 2668   2.190   6.539   8.958 -0.4891  0.4546 -0.4578
   20SAPC  H12Y 2669   2.171   6.391   8.869 -0.0805 -0.2708  0.1138
   20SAPC  C313 2670   2.387   6.465   8.874 -0.7873 -0.3398 -0.2707
   20SAPC  H13X 2671   2.450   6.376   8.892  0.5614  0.8743  1.3594
   20SAPC  H13Y 2672   2.436   6.538   8.941 -0.0636 -0.0074 -1.1437
   20SAPC  C314 2673   2.377   6.509   8.730 -0.6212 -0.0550 -0.0311
   20SAPC  H14X 2674   2.331   6.610   8.723 -0.0571  0.3103  1.2542
   20SAPC  H14Y 2675   2.305   6.438   8.685 -0.7191  0.0910 -0.1066
   20SAPC  C315 2676   2.508   6.519   8.656  0.0401 -0.0316  0.2941
   20SAPC  H15X 2677   2.582   6.445   8.693 -1.4006 -0.4864  2.4512
   20SAPC  H15Y 2678   2.545   6.614   8.702  0.5978 -1.5607  3.2467
   20SAPC  C316 2679   2.481   6.510   8.505 -0.3111 -0.4529  0.5005
   20SAPC  H16X 2680   2.419   6.423   8.476  0.3349 -0.4017 -1.1307
   20SAPC  H16Y 2681   2.578   6.504   8.451 -0.4601  2.0397 -0.1949
   20SAPC  C317 2682   2.411   6.639   8.455 -0.0418  0.5078  0.3970
   20SAPC  H17X 2683   2.481   6.725   8.455  1.2149 -0.4403 -1.9225
   20SAPC  H17Y 2684   2.325   6.657   8.523  1.4518  0.8751  2.2815
   20SAPC  C318 2685   2.355   6.622   8.310  0.9817  0.8654  0.4694
   20SAPC  H18X 2686   2.434   6.573   8.250  1.5620  1.7831  0.4662
   20SAPC  H18Y 2687   2.317   6.720   8.272 -2.0903 -0.1041  0.7895
   20SAPC  H18Z 2688   2.270   6.550   8.310 -0.1664  2.1414 -0.4867
   21SAPC     N 2689   2.591   5.598  10.993  0.2019 -0.2553 -0.1254
   21SAPC   C12 2690   2.539   5.738  10.986  0.5035  0.5144 -0.4267
   21SAPC  H12A 2691   2.605   5.818  11.016  0.9303  0.5908 -1.4922
   21SAPC  H12B 2692   2.451   5.739  11.048  0.8940  0.4996  0.1358
   21SAPC   C13 2693   2.718   5.576  10.916  1.1783  0.5537 -0.1940
   21SAPC  H13A 2694   2.796   5.641  10.954  1.6948 -0.7789  1.1027
   21SAPC  H13B 2695   2.755   5.475  10.925  2.5733  1.0920  0.4893
   21SAPC  H13C 2696   2.700   5.611  10.815 -2.1788  3.1241  1.0680
   21SAPC   C14 2697   2.610   5.563  11.137 -0.4845 -0.3374  0.3651
   21SAPC  H14A 2698   2.525   5.594  11.197 -0.1337  1.0696  0.1814
   21SAPC  H14B 2699   2.645   5.463  11.154  1.5725  0.1346 -0.7991
   21SAPC  H14C 2700   2.689   5.633  11.160 -0.7810  0.7124 -1.5709
   21SAPC   C15 2701   2.498   5.495  10.943  0.5982  0.0525  0.4128
   21SAPC  H15A 2702   2.403   5.526  10.985  1.1494  1.0907  0.9127
   21SAPC  H15B 2703   2.497   5.502  10.835  1.7061 -0.8340  0.3356
   21SAPC  H15C 2704   2.529   5.397  10.974  2.3302  0.3887 -0.1265
   21SAPC   C11 2705   2.486   5.781  10.846  0.0657 -0.0202  0.0307
   21SAPC  H11A 2706   2.427   5.870  10.875  1.1579 -0.4257  4.1437
   21SAPC  H11B 2707   2.417   5.705  10.804  0.3636 -1.2076  1.5829
   21SAPC     P 2708   2.677   5.925  10.754 -0.1972 -0.3570 -0.2913
   21SAPC   O13 2709   2.642   5.998  10.875 -0.6345 -0.0390  0.5163
   21SAPC   O14 2710   2.815   5.911  10.715  0.1558 -0.4914 -0.3928
   21SAPC   O12 2711   2.592   5.793  10.755  0.0989 -0.7115  0.8718
   21SAPC   O11 2712   2.616   6.006  10.643  0.2381  0.0369 -0.8021
   21SAPC    C1 2713   2.479   5.974  10.604 -0.0437 -0.5108  0.5730
   21SAPC    HA 2714   2.463   5.867  10.580 -2.0445  0.1057 -1.0628
   21SAPC    HB 2715   2.402   5.998  10.681  0.3143  0.5815  0.6040
   21SAPC    C2 2716   2.440   6.052  10.478  0.0725  0.3967 -0.1673
   21SAPC    HS 2717   2.341   6.019  10.442  0.0264 -0.1019  0.4005
   21SAPC   O21 2718   2.537   6.046  10.374  0.0684 -0.0646  0.0016
   21SAPC   C21 2719   2.538   5.949  10.284  0.6246 -0.3839 -0.0216
   21SAPC   O22 2720   2.464   5.855  10.289  0.2350  0.1126  0.0056
   21SAPC   C22 2721   2.624   6.005  10.169 -0.7365  0.2950 -0.7766
   21SAPC   H2R 2722   2.589   6.110  10.168 -0.9497  0.3518  2.6851
   21SAPC   H2S 2723   2.731   5.992  10.195 -0.2200  0.3334 -2.7183
   21SAPC    C3 2724   2.431   6.197  10.507  0.6864 -0.0686  0.3272
   21SAPC    HX 2725   2.529   6.249  10.509  0.2735  0.7052  1.3313
   21SAPC    HY 2726   2.383   6.206  10.607  0.8387 -1.0334  0.5000
   21SAPC   O31 2727   2.347   6.266  10.401  0.6285 -0.1769  0.0345
   21SAPC   C31 2728   2.234   6.320  10.437  0.3475 -0.6591 -0.1252
   21SAPC   O32 2729   2.187   6.335  10.549  0.4973  0.4597 -0.0184
   21SAPC   C32 2730   2.162   6.369  10.308 -0.5865  0.5235 -0.6252
   21SAPC   H2X 2731   2.218   6.447  10.252  0.3897 -0.5135 -1.1609
   21SAPC   H2Y 2732   2.070   6.416  10.348 -0.8755 -0.8333  0.3824
   21SAPC   C23 2733   2.594   5.948  10.034  0.0097  0.9664  0.5140
   21SAPC   H3R 2734   2.568   5.840  10.045 -0.5017  0.8894 -1.1632
   21SAPC   H3S 2735   2.690   5.961   9.979  0.4466  0.6163  1.1757
   21SAPC   C24 2736   2.485   6.013   9.958 -0.0140  0.2195 -0.0552
   21SAPC   H4R 2737   2.483   5.970   9.855 -1.9155  1.5297 -0.6222
   21SAPC   H4S 2738   2.484   6.123   9.948  1.1460  0.4872  2.3701
   21SAPC   C25 2739   2.354   5.978  10.025  0.3886 -0.6227  0.5654
   21SAPC   H5R 2740   2.347   6.018  10.128  1.6044 -0.8431  0.7490
   21SAPC   C26 2741   2.251   5.916   9.973 -0.2835 -0.0502  0.4034
   21SAPC   H6R 2742   2.162   5.894  10.035  1.3221  0.8413  3.2397
   21SAPC   C27 2743   2.241   5.870   9.827  0.4016 -0.1885  0.3263
   21SAPC   H7R 2744   2.291   5.945   9.762 -2.8031 -0.6040 -2.8609
   21SAPC   H7S 2745   2.138   5.863   9.787 -0.4338  2.7034  1.6957
   21SAPC   C28 2746   2.312   5.733   9.834  0.1049  0.6118  0.1732
   21SAPC   H8R 2747   2.323   5.682   9.931  2.7816 -1.2604 -1.0099
   21SAPC   C29 2748   2.350   5.671   9.723  0.3424  0.0059 -0.3469
   21SAPC   H9R 2749   2.396   5.572   9.735 -1.3634 -0.8270 -0.4780
   21SAPC  C210 2750   2.332   5.730   9.585  0.6315 -0.0170 -0.0238
   21SAPC  H10R 2751   2.408   5.681   9.521 -1.2643 -0.3020 -2.2016
   21SAPC  H10S 2752   2.359   5.837   9.596  1.2669 -0.3630  2.4252
   21SAPC  C211 2753   2.187   5.714   9.541 -0.9053 -0.0998 -0.5981
   21SAPC  H11R 2754   2.105   5.699   9.612 -1.4800  0.6376 -1.0789
   21SAPC  C212 2755   2.166   5.717   9.408  0.1952 -0.0797  0.3753
   21SAPC  H12R 2756   2.065   5.693   9.373 -1.0740  0.8933  3.0843
   21SAPC  C213 2757   2.264   5.737   9.292  0.6991 -0.1082 -0.2094
   21SAPC  H13R 2758   2.319   5.644   9.269  0.5691 -0.8579  2.2140
   21SAPC  H13S 2759   2.339   5.810   9.331  0.6975 -0.3972  0.3543
   21SAPC  C214 2760   2.212   5.799   9.166 -0.3646  0.2688 -0.3434
   21SAPC  H14R 2761   2.170   5.901   9.165 -1.0157  0.0388  1.0080
   21SAPC  C215 2762   2.231   5.746   9.043  0.3443 -0.5495  0.0337
   21SAPC  H15R 2763   2.185   5.799   8.959  0.6093  1.5907  1.1775
   21SAPC  C216 2764   2.291   5.611   9.004  0.5961  0.2367  0.4126
   21SAPC  H16R 2765   2.262   5.526   9.070  0.2875 -0.3568 -0.4715
   21SAPC  H16S 2766   2.401   5.610   8.991  0.3410 -2.5216 -2.6166
   21SAPC  C217 2767   2.242   5.564   8.862  0.2133  0.7137  0.1431
   21SAPC  H17R 2768   2.274   5.629   8.778  0.1144 -1.3854 -1.5982
   21SAPC  H17S 2769   2.131   5.561   8.861  0.1841 -1.3193 -2.4873
   21SAPC  C218 2770   2.301   5.427   8.816  0.5057  0.0491  0.1922
   21SAPC  H18R 2771   2.275   5.354   8.895 -0.2933  0.5865  0.4410
   21SAPC  H18S 2772   2.411   5.436   8.809  0.5888 -1.8298 -2.5130
   21SAPC  C219 2773   2.241   5.376   8.679 -0.4718  1.0472 -0.4818
   21SAPC  H19R 2774   2.137   5.414   8.674 -0.2872  1.4565 -1.4570
   21SAPC  H19S 2775   2.264   5.267   8.669  1.7548  1.4314 -0.1322
   21SAPC  C220 2776   2.310   5.435   8.561  0.8024 -0.1200  0.5771
   21SAPC  H20R 2777   2.283   5.543   8.569 -2.2815 -0.8583  1.1930
   21SAPC  H20S 2778   2.264   5.404   8.465 -1.2988  1.7678  0.8859
   21SAPC  H20T 2779   2.421   5.422   8.556  1.0527  1.7269  0.5817
   21SAPC   C33 2780   2.122   6.239  10.240 -0.2716 -0.3265  0.3313
   21SAPC   H3X 2781   2.031   6.212  10.298 -0.0494  1.1759  1.4341
   21SAPC   H3Y 2782   2.185   6.147  10.247 -1.7124 -1.4448 -0.6543
   21SAPC   C34 2783   2.083   6.265  10.094 -0.2463 -0.1158  0.0743
   21SAPC   H4X 2784   2.168   6.247  10.024  0.3568 -2.2868  1.2807
   21SAPC   H4Y 2785   2.048   6.371  10.092  0.2374  0.0417 -0.9862
   21SAPC   C35 2786   1.966   6.177  10.036 -0.3254 -0.4315  0.3465
   21SAPC   H5X 2787   1.879   6.186  10.105 -0.1376  0.4644  0.4772
   21SAPC   H5Y 2788   1.987   6.068  10.029 -0.3711 -0.4182 -0.0081
   21SAPC   C36 2789   1.917   6.222   9.895  0.8340 -0.7867 -0.3383
   21SAPC   H6X 2790   1.864   6.319   9.907 -1.2631 -1.6605 -1.7871
   21SAPC   H6Y 2791   1.823   6.166   9.873 -1.0447  1.6431  1.0957
   21SAPC   C37 2792   2.015   6.218   9.779  0.1958 -0.2225 -0.1611
   21SAPC   H7X 2793   2.065   6.119   9.786  0.2369 -0.2223 -0.4305
   21SAPC   H7Y 2794   2.083   6.305   9.787 -0.5877  0.3508  0.3137
   21SAPC   C38 2795   1.928   6.226   9.643 -0.1549 -0.2812 -0.2867
   21SAPC   H8X 2796   1.883   6.327   9.635 -0.4617 -0.5834 -3.2021
   21SAPC   H8Y 2797   1.855   6.142   9.651  0.9684 -1.3543 -1.0013
   21SAPC   C39 2798   2.017   6.203   9.520 -0.3512 -0.3502  0.9409
   21SAPC   H9X 2799   2.077   6.111   9.533 -1.2471 -1.4090 -1.7123
   21SAPC   H9Y 2800   2.089   6.288   9.511 -0.1504 -0.7179 -1.8914
   21SAPC  C310 2801   1.928   6.194   9.394  0.1945  0.7054 -0.0027
   21SAPC  H10X 2802   1.887   6.290   9.355  0.2055  0.5560 -0.3913
   21SAPC  H10Y 2803   1.833   6.149   9.429  0.7155 -1.7606 -1.5126
   21SAPC  C311 2804   1.993   6.120   9.270  0.2109  0.0646  0.6362
   21SAPC  H11X 2805   2.016   6.017   9.303  3.2733  0.5320  0.2537
   21SAPC  H11Y 2806   2.092   6.163   9.243 -1.0769  2.3433 -0.7858
   21SAPC  C312 2807   1.902   6.132   9.146  0.2284  0.4200  0.0336
   21SAPC  H12X 2808   1.900   6.234   9.101 -0.6538  0.1368 -0.5993
   21SAPC  H12Y 2809   1.798   6.114   9.181  0.5893  0.4685  1.1401
   21SAPC  C313 2810   1.951   6.025   9.036  0.1096  0.5922 -0.3823
   21SAPC  H13X 2811   1.916   5.928   9.078 -1.9747  2.1635  1.7752
   21SAPC  H13Y 2812   2.061   6.037   9.042  0.5411 -3.0579  2.4220
   21SAPC  C314 2813   1.885   6.050   8.898 -0.0390  0.0279  0.0419
   21SAPC  H14X 2814   1.782   6.085   8.918 -0.9107 -2.2215 -0.1363
   21SAPC  H14Y 2815   1.877   5.965   8.826  2.1196  0.0871 -0.3468
   21SAPC  C315 2816   1.971   6.149   8.821  0.7571  0.1425 -0.7399
   21SAPC  H15X 2817   2.067   6.100   8.792  1.2557  0.9514 -0.4788
   21SAPC  H15Y 2818   2.011   6.225   8.891  2.5611 -1.4759  0.0920
   21SAPC  C316 2819   1.899   6.213   8.704 -0.3167 -0.0297 -0.3672
   21SAPC  H16X 2820   1.793   6.244   8.714 -0.7330 -1.0518 -1.4258
   21SAPC  H16Y 2821   1.897   6.139   8.622 -2.4745 -0.5572  0.1218
   21SAPC  C317 2822   1.984   6.326   8.649  0.7751 -0.4780  0.2437
   21SAPC  H17X 2823   2.092   6.299   8.645  0.3538 -2.1112 -0.8371
   21SAPC  H17Y 2824   1.980   6.419   8.711 -2.4783 -0.3923  0.0296
   21SAPC  C318 2825   1.945   6.359   8.509  0.0768  0.6663  0.4799
   21SAPC  H18X 2826   1.836   6.354   8.488  0.3619 -1.0649 -0.8564
   21SAPC  H18Y 2827   1.986   6.280   8.443  0.2391  2.6774 -1.9981
   21SAPC  H18Z 2828   1.987   6.456   8.475 -1.4649  1.3751  0.4947
   22SAPC     N 2829   2.310   3.039  10.878 -0.0418  0.0352 -0.1952
   22SAPC   C12 2830   2.250   2.908  10.839  0.4509  0.1684  0.4701
   22SAPC  H12A 2831   2.145   2.907  10.866  0.4974 -0.1297  0.6513
   22SAPC  H12B 2832   2.301   2.826  10.887 -1.1000 -1.0144  0.1905
   22SAPC   C13 2833   2.459   3.030  10.853  0.1051  0.3667  0.1729
   22SAPC  H13A 2834   2.484   3.035  10.749  0.8183  3.0002  0.4184
   22SAPC  H13B 2835   2.499   3.118  10.900 -0.8473 -0.0253  1.8257
   22SAPC  H13C 2836   2.505   2.945  10.903  0.3502 -0.2535 -1.0608
   22SAPC   C14 2837   2.252   3.160  10.808 -0.4411  0.5720 -0.3287
   22SAPC  H14A 2838   2.145   3.153  10.802 -0.4459  1.5534 -1.6691
   22SAPC  H14B 2839   2.274   3.255  10.854  0.9029 -0.9367  2.4444
   22SAPC  H14C 2840   2.283   3.173  10.705 -0.8799  2.4354 -0.2593
   22SAPC   C15 2841   2.293   3.061  11.026 -0.7898  0.0902  0.4949
   22SAPC  H15A 2842   2.361   2.998  11.082 -1.9422 -0.0439  1.7998
   22SAPC  H15B 2843   2.323   3.161  11.054 -2.8711  0.0733  3.1137
   22SAPC  H15C 2844   2.190   3.055  11.058 -1.0053 -0.7356 -0.3168
   22SAPC   C11 2845   2.257   2.875  10.685  0.3332 -0.1390 -0.2491
   22SAPC  H11A 2846   2.247   2.961  10.615 -2.1579 -0.0896  0.0901
   22SAPC  H11B 2847   2.167   2.815  10.661 -1.5426  2.2617  0.3850
   22SAPC     P 2848   2.392   2.660  10.644  0.0322 -0.0715 -0.4050
   22SAPC   O13 2849   2.526   2.614  10.595 -0.0043 -0.5443  0.0644
   22SAPC   O14 2850   2.351   2.618  10.781  0.1098 -0.3307  0.3252
   22SAPC   O12 2851   2.380   2.814  10.644  0.6366 -0.6706 -0.6370
   22SAPC   O11 2852   2.275   2.611  10.541 -0.0364  0.1707 -0.1961
   22SAPC    C1 2853   2.278   2.624  10.398 -1.0290  0.5917 -0.2842
   22SAPC    HA 2854   2.381   2.637  10.359 -0.7158 -0.0587  0.3093
   22SAPC    HB 2855   2.238   2.529  10.355 -2.0043  1.3750 -1.1430
   22SAPC    C2 2856   2.190   2.736  10.343  0.3106 -0.7721 -0.4405
   22SAPC    HS 2857   2.217   2.833  10.390  1.4731 -0.3968 -1.8056
   22SAPC   O21 2858   2.057   2.700  10.377  0.7158 -0.8024 -0.1905
   22SAPC   C21 2859   1.972   2.801  10.407  0.2992  0.3380  0.3839
   22SAPC   O22 2860   1.997   2.916  10.393 -0.2479  0.1287 -0.0928
   22SAPC   C22 2861   1.842   2.741  10.459 -0.4421  0.2389  0.1087
   22SAPC   H2R 2862   1.835   2.638  10.417 -1.7466  1.1071 -1.9058
   22SAPC   H2S 2863   1.831   2.730  10.569 -0.8019 -0.0238  0.0498
   22SAPC    C3 2864   2.223   2.754  10.184 -0.4003 -0.7971  0.1748
   22SAPC    HX 2865   2.187   2.672  10.118  0.7750  0.8677 -2.7333
   22SAPC    HY 2866   2.334   2.757  10.174 -0.5185  1.6400 -1.2560
   22SAPC   O31 2867   2.151   2.863  10.133 -0.8063 -0.0855 -0.5592
   22SAPC   C31 2868   2.224   2.955  10.064  0.7572  1.2103 -0.8842
   22SAPC   O32 2869   2.340   2.946  10.046 -0.2459 -0.1759 -0.6005
   22SAPC   C32 2870   2.134   3.064  10.010  0.0753 -0.2542 -0.3250
   22SAPC   H2X 2871   2.123   3.134  10.095  2.0728 -0.6554  0.3207
   22SAPC   H2Y 2872   2.031   3.026   9.994 -0.4310 -0.7392  3.2696
   22SAPC   C23 2873   1.711   2.811  10.403  0.1274 -0.4278 -0.0911
   22SAPC   H3R 2874   1.678   2.902  10.458 -1.6633 -0.5933 -0.8161
   22SAPC   H3S 2875   1.631   2.735  10.420  0.7455 -1.7260 -2.5545
   22SAPC   C24 2876   1.719   2.831  10.244 -0.0460  0.0309  0.1226
   22SAPC   H4R 2877   1.752   2.744  10.183 -0.6913  0.8316 -1.4150
   22SAPC   H4S 2878   1.799   2.907  10.233  0.5206 -0.6091 -0.2539
   22SAPC   C25 2879   1.585   2.880  10.182 -1.0011  0.6006  0.1967
   22SAPC   H5R 2880   1.529   2.945  10.251 -0.5400 -0.7606  1.9520
   22SAPC   C26 2881   1.528   2.847  10.070  0.2831 -0.2636  0.1193
   22SAPC   H6R 2882   1.428   2.887  10.049  0.9702  1.8224  0.5847
   22SAPC   C27 2883   1.576   2.752   9.969 -0.2530 -0.7605  0.5192
   22SAPC   H7R 2884   1.498   2.743   9.891  0.8878  0.5846 -0.8350
   22SAPC   H7S 2885   1.584   2.649  10.011  2.7050 -0.6649  0.4017
   22SAPC   C28 2886   1.703   2.797   9.901 -0.2507  1.4074 -0.3072
   22SAPC   H8R 2887   1.765   2.873   9.951 -0.9471  1.6884  0.1510
   22SAPC   C29 2888   1.743   2.767   9.776 -0.0814  0.1428 -0.0239
   22SAPC   H9R 2889   1.841   2.806   9.745 -0.0623  1.2216  1.3115
   22SAPC  C210 2890   1.673   2.684   9.670  0.3078  0.3942  0.4484
   22SAPC  H10R 2891   1.590   2.622   9.709  2.1859 -1.8446  1.0523
   22SAPC  H10S 2892   1.742   2.610   9.625  0.8650  0.5344  1.0635
   22SAPC  C211 2893   1.608   2.777   9.565  0.0427 -0.0341 -0.6132
   22SAPC  H11R 2894   1.529   2.835   9.614  1.5580  0.6811  1.1032
   22SAPC  C212 2895   1.627   2.787   9.433  0.4537  0.6631  1.7460
   22SAPC  H12R 2896   1.576   2.865   9.374  1.9133 -0.8254 -1.8316
   22SAPC  C213 2897   1.730   2.699   9.365 -0.3990 -0.2042  0.3072
   22SAPC  H13R 2898   1.699   2.593   9.376  0.3414 -0.6323 -1.3027
   22SAPC  H13S 2899   1.835   2.705   9.399 -0.7622  0.2048  1.3827
   22SAPC  C214 2900   1.732   2.717   9.214  0.0038 -0.4062  0.6566
   22SAPC  H14R 2901   1.823   2.763   9.173 -0.6562 -0.6647 -1.1796
   22SAPC  C215 2902   1.637   2.697   9.122 -0.1399 -0.0992 -0.1603
   22SAPC  H15R 2903   1.658   2.725   9.017 -0.0731 -0.9168 -0.3747
   22SAPC  C216 2904   1.498   2.639   9.136  0.2310 -0.3945 -0.4917
   22SAPC  H16R 2905   1.475   2.593   9.235 -0.4145 -0.8227 -0.8360
   22SAPC  H16S 2906   1.486   2.562   9.057  0.4882 -0.0992 -0.8182
   22SAPC  C217 2907   1.390   2.755   9.101 -0.3734 -0.1474 -0.1036
   22SAPC  H17R 2908   1.431   2.827   9.028 -0.7398 -0.7074 -0.8726
   22SAPC  H17S 2909   1.368   2.810   9.195 -0.6537  0.6094 -0.6070
   22SAPC  C218 2910   1.260   2.701   9.041  0.7161  0.4989 -0.0204
   22SAPC  H18R 2911   1.175   2.769   9.058 -0.9195 -1.3422 -0.4211
   22SAPC  H18S 2912   1.231   2.604   9.086  2.2907 -0.2010 -0.4337
   22SAPC  C219 2913   1.277   2.679   8.888  0.0770 -0.0845  0.0577
   22SAPC  H19R 2914   1.335   2.587   8.865 -1.7352 -0.9085 -1.4970
   22SAPC  H19S 2915   1.327   2.773   8.853 -1.3449  0.5773 -0.2575
   22SAPC  C220 2916   1.145   2.645   8.814 -0.0865 -0.6045 -0.5564
   22SAPC  H20R 2917   1.076   2.721   8.858 -0.2047 -1.3464  0.5771
   22SAPC  H20S 2918   1.113   2.543   8.842 -0.3590 -0.1510  0.8771
   22SAPC  H20T 2919   1.137   2.659   8.704  1.7392  0.2851 -0.6225
   22SAPC   C33 2920   2.201   3.126   9.885 -0.3846 -0.8080  0.3339
   22SAPC   H3X 2921   2.307   3.150   9.908 -0.4535 -0.7704  0.6157
   22SAPC   H3Y 2922   2.150   3.223   9.868  0.1332 -0.4275  0.8829
   22SAPC   C34 2923   2.189   3.048   9.757 -0.6156  0.5989 -0.2230
   22SAPC   H4X 2924   2.106   2.974   9.758 -0.7997  0.8045 -0.1677
   22SAPC   H4Y 2925   2.283   2.989   9.750 -0.5303  0.5796  0.8925
   22SAPC   C35 2926   2.169   3.138   9.638  0.4689  0.1443  0.1929
   22SAPC   H5X 2927   2.261   3.196   9.618  0.0964  1.0890  1.1279
   22SAPC   H5Y 2928   2.097   3.216   9.670  1.2874  0.5753  1.0137
   22SAPC   C36 2929   2.114   3.060   9.509  0.2326  0.6466  0.6326
   22SAPC   H6X 2930   2.013   3.030   9.543  0.5900 -1.3144  0.0987
   22SAPC   H6Y 2931   2.166   2.964   9.489 -3.7959 -1.5155 -0.5903
   22SAPC   C37 2932   2.103   3.148   9.379  0.1361 -0.1687 -0.5614
   22SAPC   H7X 2933   2.201   3.146   9.327 -0.8340  0.7730 -2.5208
   22SAPC   H7Y 2934   2.096   3.259   9.389 -0.6687 -0.2872  0.2857
   22SAPC   C38 2935   1.995   3.095   9.286 -0.1743 -0.2713 -0.3312
   22SAPC   H8X 2936   1.903   3.149   9.317 -0.7326 -1.5787  0.3949
   22SAPC   H8Y 2937   1.959   2.990   9.291 -0.5224 -0.2018 -1.1389
   22SAPC   C39 2938   2.037   3.095   9.140 -0.7401 -0.6411 -0.1699
   22SAPC   H9X 2939   2.123   3.025   9.131  0.8616  0.7478  2.9136
   22SAPC   H9Y 2940   2.068   3.195   9.104  0.1195 -1.4482 -1.7558
   22SAPC  C310 2941   1.923   3.053   9.043  1.0808 -0.2797 -0.3623
   22SAPC  H10X 2942   1.841   3.127   9.037  1.4636  0.4022  1.9338
   22SAPC  H10Y 2943   1.872   2.967   9.091 -0.5382 -0.0583 -1.6366
   22SAPC  C311 2944   1.973   3.018   8.897  0.3944  0.6329  0.3219
   22SAPC  H11X 2945   2.058   2.947   8.908  0.2848  0.7899  2.5142
   22SAPC  H11Y 2946   2.010   3.108   8.843  0.2389 -0.4639 -1.7113
   22SAPC  C312 2947   1.863   2.949   8.830 -0.1491 -0.3235 -0.8439
   22SAPC  H12X 2948   1.793   3.032   8.806  1.7399  1.8117  0.5964
   22SAPC  H12Y 2949   1.809   2.869   8.886 -0.5590  0.5036 -0.0342
   22SAPC  C313 2950   1.906   2.897   8.689  0.2328 -0.0636 -0.1309
   22SAPC  H13X 2951   1.967   2.805   8.702  0.6099  0.0113 -1.2929
   22SAPC  H13Y 2952   1.976   2.973   8.650  1.0000 -1.8897 -2.5421
   22SAPC  C314 2953   1.786   2.879   8.590  0.2196 -0.5855  0.2249
   22SAPC  H14X 2954   1.818   2.823   8.500  1.5233 -2.4352  1.7603
   22SAPC  H14Y 2955   1.763   2.984   8.560 -0.7658 -1.2835 -1.6608
   22SAPC  C315 2956   1.661   2.807   8.647 -0.1971  0.6190 -0.6252
   22SAPC  H15X 2957   1.626   2.851   8.742 -1.9307 -0.9666 -0.4750
   22SAPC  H15Y 2958   1.674   2.700   8.675 -0.9517  0.8217  0.5550
   22SAPC  C316 2959   1.560   2.814   8.532  0.4506 -0.3483  0.6020
   22SAPC  H16X 2960   1.613   2.770   8.444  1.3123  2.3167 -0.2964
   22SAPC  H16Y 2961   1.544   2.921   8.509 -2.6515 -0.9668 -0.6500
   22SAPC  C317 2962   1.423   2.741   8.558 -0.0773 -0.5319  0.6914
   22SAPC  H17X 2963   1.364   2.794   8.635 -0.9218  0.5166 -0.6368
   22SAPC  H17Y 2964   1.440   2.640   8.601 -1.0125 -1.4989 -1.0740
   22SAPC  C318 2965   1.337   2.725   8.425 -0.4051 -0.1451  0.0849
   22SAPC  H18X 2966   1.321   2.823   8.376  0.8937 -1.0198 -2.2448
   22SAPC  H18Y 2967   1.241   2.676   8.450 -0.7785  0.3872 -0.2917
   22SAPC  H18Z 2968   1.401   2.674   8.349 -2.4133  0.9580 -2.5011
   23SAPC     N 2969   2.227   5.567  10.489  0.3336 -0.0075 -0.0872
   23SAPC   C12 2970   2.332   5.467  10.522  0.2054 -0.2073 -0.7365
   23SAPC  H12A 2971   2.429   5.514  10.517  0.2898 -0.4188 -1.1259
   23SAPC  H12B 2972   2.346   5.390  10.448  2.9767  1.0396 -1.6302
   23SAPC   C13 2973   2.198   5.666  10.598 -0.3523 -0.1477  0.2984
   23SAPC  H13A 2974   2.292   5.706  10.635 -0.6637 -0.4618  1.4679
   23SAPC  H13B 2975   2.145   5.747  10.551  0.1245  0.5790  0.9756
   23SAPC  H13C 2976   2.142   5.621  10.679 -0.9372 -0.9388 -0.5222
   23SAPC   C14 2977   2.275   5.642  10.368 -0.0755  0.0148 -0.7561
   23SAPC  H14A 2978   2.205   5.718  10.338 -1.1726 -1.4614 -2.1020
   23SAPC  H14B 2979   2.378   5.675  10.378  0.7553 -1.8166 -2.5414
   23SAPC  H14C 2980   2.281   5.582  10.278 -0.9301 -0.8259 -0.2714
   23SAPC   C15 2981   2.095   5.501  10.442 -0.7053  0.0984  0.0943
   23SAPC  H15A 2982   2.030   5.584  10.417 -0.4008  0.9331  1.8610
   23SAPC  H15B 2983   2.107   5.441  10.354 -1.7298  1.5468 -1.0788
   23SAPC  H15C 2984   2.046   5.445  10.521 -0.3392  1.4199  1.3002
   23SAPC   C11 2985   2.340   5.403  10.663 -0.0674 -0.0359 -0.2425
   23SAPC  H11A 2986   2.258   5.329  10.681  0.1103  0.1050  1.3532
   23SAPC  H11B 2987   2.318   5.483  10.737 -1.2754 -0.3756 -0.2069
   23SAPC     P 2988   2.518   5.213  10.637 -0.2895 -0.1521 -0.3833
   23SAPC   O13 2989   2.656   5.185  10.691  0.1391 -0.1243  0.6018
   23SAPC   O14 2990   2.410   5.110  10.655  0.0226 -0.3495 -0.0368
   23SAPC   O12 2991   2.470   5.357  10.685  0.7250  0.7785  0.2646
   23SAPC   O11 2992   2.529   5.225  10.481  0.0263 -0.6431  0.1948
   23SAPC    C1 2993   2.612   5.318  10.414 -0.6347  0.4456 -0.2070
   23SAPC    HA 2994   2.544   5.385  10.357 -2.4313 -2.3130 -1.4928
   23SAPC    HB 2995   2.657   5.386  10.490 -1.1956 -1.9721  2.4618
   23SAPC    C2 2996   2.731   5.252  10.338 -0.3494 -0.7007 -0.0828
   23SAPC    HS 2997   2.776   5.334  10.277  3.1022 -1.1888  1.5493
   23SAPC   O21 2998   2.689   5.152  10.236  0.4498  0.0751  0.4183
   23SAPC   C21 2999   2.597   5.192  10.148 -0.2949  0.0122  0.5292
   23SAPC   O22 3000   2.564   5.313  10.127 -0.6468  0.6182 -0.0076
   23SAPC   C22 3001   2.547   5.077  10.061 -0.0688  0.8992 -0.3834
   23SAPC   H2R 3002   2.573   4.983  10.114  2.0574  0.6008 -1.8213
   23SAPC   H2S 3003   2.438   5.089  10.077  0.3119  1.6702  2.0931
   23SAPC    C3 3004   2.846   5.194  10.428  0.7148  0.6249  0.8417
   23SAPC    HX 3005   2.793   5.148  10.514 -1.3577 -1.1342 -1.2334
   23SAPC    HY 3006   2.907   5.278  10.467  0.0083  0.8079  1.5684
   23SAPC   O31 3007   2.916   5.081  10.362 -0.6225 -0.0205 -0.5856
   23SAPC   C31 3008   2.982   5.106  10.253  0.2750 -0.1134 -0.3587
   23SAPC   O32 3009   2.995   5.213  10.200  0.1999  0.5816  0.1188
   23SAPC   C32 3010   3.038   4.970  10.203  0.0818  0.1504 -0.3898
   23SAPC   H2X 3011   2.978   4.931  10.118  0.4533 -1.1151 -0.0928
   23SAPC   H2Y 3012   3.041   4.902  10.291 -0.5497  1.4951  0.7104
   23SAPC   C23 3013   2.583   5.088   9.916  0.1746 -0.0235  0.2828
   23SAPC   H3R 3014   2.628   4.996   9.873 -1.4571 -0.6323 -0.2188
   23SAPC   H3S 3015   2.653   5.174   9.910 -2.1622  1.9609 -0.1868
   23SAPC   C24 3016   2.466   5.121   9.825  0.3499 -0.4183 -0.8479
   23SAPC   H4R 3017   2.382   5.170   9.878  1.6778  1.3175 -0.2485
   23SAPC   H4S 3018   2.436   5.031   9.767  0.8868  1.0492 -3.5575
   23SAPC   C25 3019   2.508   5.217   9.716  0.5459 -0.5267 -0.2019
   23SAPC   H5R 3020   2.507   5.323   9.747  0.0660 -0.1479 -1.4673
   23SAPC   C26 3021   2.543   5.190   9.590 -0.1636 -0.7767 -0.5613
   23SAPC   H6R 3022   2.570   5.272   9.523  0.2846  1.1218  1.8184
   23SAPC   C27 3023   2.552   5.055   9.524  0.3085 -0.0250 -0.0159
   23SAPC   H7R 3024   2.461   5.043   9.461  0.4589 -0.5936 -0.1302
   23SAPC   H7S 3025   2.560   4.974   9.600  1.2738 -0.4470 -0.5544
   23SAPC   C28 3026   2.663   5.035   9.419  0.0223 -0.4559  0.5443
   23SAPC   H8R 3027   2.764   5.029   9.463  0.4165  0.1310 -0.2485
   23SAPC   C29 3028   2.656   5.025   9.279  0.2581  1.0182 -0.2764
   23SAPC   H9R 3029   2.751   5.006   9.229  0.6934  0.3958  0.7460
   23SAPC  C210 3030   2.535   5.039   9.188 -0.0625 -0.7226  0.4459
   23SAPC  H10R 3031   2.449   5.003   9.250 -1.3303 -1.7874 -1.8126
   23SAPC  H10S 3032   2.542   4.967   9.104  0.6088 -0.8060  0.5674
   23SAPC  C211 3033   2.503   5.174   9.123 -0.5717 -0.1188 -0.3548
   23SAPC  H11R 3034   2.437   5.240   9.181 -0.0833  1.1111 -1.1605
   23SAPC  C212 3035   2.558   5.226   9.013  0.6916  0.4852 -0.4163
   23SAPC  H12R 3036   2.531   5.326   8.976  0.7242  0.9375  0.7607
   23SAPC  C213 3037   2.670   5.178   8.930 -0.1087  0.3572 -0.8130
   23SAPC  H13R 3038   2.707   5.077   8.958 -0.3503  0.1143 -1.3449
   23SAPC  H13S 3039   2.759   5.239   8.959 -0.5354  1.2500 -1.3391
   23SAPC  C214 3040   2.645   5.192   8.781 -0.0886 -0.3709 -0.3967
   23SAPC  H14R 3041   2.668   5.292   8.739 -0.5458 -0.5568 -1.1249
   23SAPC  C215 3042   2.600   5.084   8.708 -0.5858 -0.2564  0.6505
   23SAPC  H15R 3043   2.586   5.092   8.599  1.8298 -0.5556  0.2690
   23SAPC  C216 3044   2.568   4.942   8.758 -0.2885 -0.0760  0.4795
   23SAPC  H16R 3045   2.531   4.934   8.862 -0.4398 -2.5533  0.2885
   23SAPC  H16S 3046   2.666   4.889   8.756  0.6840  1.6199  0.5634
   23SAPC  C217 3047   2.477   4.854   8.670 -0.9533  0.5581  0.1346
   23SAPC  H17R 3048   2.481   4.753   8.716 -1.3889  1.2946  1.8395
   23SAPC  H17S 3049   2.509   4.828   8.566 -0.0892 -1.4323  0.8458
   23SAPC  C218 3050   2.328   4.913   8.651 -0.0165  0.3153  0.6272
   23SAPC  H18R 3051   2.337   5.022   8.631 -1.1003  0.5763  1.4847
   23SAPC  H18S 3052   2.290   4.911   8.756 -0.7455  2.8532  0.4784
   23SAPC  C219 3053   2.236   4.837   8.550  0.5894  0.5102 -0.8197
   23SAPC  H19R 3054   2.262   4.858   8.444 -1.7786  3.2133 -0.9748
   23SAPC  H19S 3055   2.134   4.879   8.564  0.7045  0.8508 -0.9811
   23SAPC  C220 3056   2.235   4.685   8.573 -0.6570  0.7411  0.4259
   23SAPC  H20R 3057   2.331   4.647   8.614 -0.6980  0.8285  0.6049
   23SAPC  H20S 3058   2.198   4.624   8.488 -1.4393  1.6162  0.1228
   23SAPC  H20T 3059   2.168   4.667   8.660 -0.8942  0.7942  0.2559
   23SAPC   C33 3060   3.181   4.980  10.135  0.9780  0.1729  0.1073
   23SAPC   H3X 3061   3.215   4.875  10.117  0.4094  0.0685 -0.3857
   23SAPC   H3Y 3062   3.260   5.031  10.194  0.1498  0.3531  1.0837
   23SAPC   C34 3063   3.164   5.040   9.991  0.1422  0.3991  0.7858
   23SAPC   H4X 3064   3.133   5.147   9.997  0.1440  0.5195 -0.8951
   23SAPC   H4Y 3065   3.091   4.975   9.938 -0.6254 -0.5126  2.8733
   23SAPC   C35 3066   3.307   5.028   9.928  0.3216  0.3148 -0.1216
   23SAPC   H5X 3067   3.339   4.922   9.925  0.3477  0.3421 -1.0166
   23SAPC   H5Y 3068   3.379   5.080   9.995  0.0280  0.2325  0.2537
   23SAPC   C36 3069   3.318   5.070   9.784  0.2834 -1.1605 -0.1713
   23SAPC   H6X 3070   3.425   5.053   9.758  0.5525  2.7442 -2.3071
   23SAPC   H6Y 3071   3.296   5.178   9.791  0.7503 -1.0462 -0.4543
   23SAPC   C37 3072   3.233   4.995   9.685  0.3422 -0.5060  0.2689
   23SAPC   H7X 3073   3.126   5.019   9.702  0.7782  1.6793  0.2160
   23SAPC   H7Y 3074   3.233   4.884   9.693 -0.4963 -0.4319  1.6280
   23SAPC   C38 3075   3.253   5.040   9.533  0.2633 -1.0694  0.1857
   23SAPC   H8X 3076   3.341   4.987   9.489 -1.1580 -0.9461 -3.1300
   23SAPC   H8Y 3077   3.268   5.149   9.544 -1.2070 -0.8642  0.2680
   23SAPC   C39 3078   3.135   5.011   9.438 -0.4446  0.8112 -1.0509
   23SAPC   H9X 3079   3.044   5.052   9.487 -0.2940 -1.0106  0.9183
   23SAPC   H9Y 3080   3.113   4.902   9.431 -1.5641  0.9373  0.0606
   23SAPC  C310 3081   3.166   5.052   9.288 -0.0435  0.0404  0.3352
   23SAPC  H10X 3082   3.264   5.009   9.259  0.0695  0.9590 -0.7332
   23SAPC  H10Y 3083   3.181   5.162   9.292 -0.3079  0.0517  1.4255
   23SAPC  C311 3084   3.071   5.016   9.171  0.3357  0.0705 -0.0998
   23SAPC  H11X 3085   2.972   5.063   9.190  0.7469  1.1248 -0.5286
   23SAPC  H11Y 3086   3.067   4.905   9.164  0.5712  0.0648 -0.1252
   23SAPC  C312 3087   3.120   5.061   9.029  0.3821 -0.6209 -0.4285
   23SAPC  H12X 3088   3.230   5.049   9.020  1.0622  2.4091  2.2564
   23SAPC  H12Y 3089   3.095   5.169   9.033  1.3191 -0.3283 -1.8069
   23SAPC  C313 3090   3.027   5.027   8.916 -0.0675  0.4122  0.4534
   23SAPC  H13X 3091   3.072   5.098   8.843  1.4994 -1.2129 -0.2315
   23SAPC  H13Y 3092   2.926   5.066   8.940  1.2658  2.5621  3.2972
   23SAPC  C314 3093   3.039   4.887   8.857 -0.7536  0.6567  0.0967
   23SAPC  H14X 3094   2.988   4.807   8.915  0.9690  0.0608  0.8496
   23SAPC  H14Y 3095   3.144   4.858   8.874 -1.2400  0.5266  3.5562
   23SAPC  C315 3096   2.999   4.882   8.711  0.3265 -0.1500 -0.2750
   23SAPC  H15X 3097   3.065   4.955   8.659 -2.2480  1.9036 -0.8501
   23SAPC  H15Y 3098   2.905   4.935   8.684  1.1944  0.4858 -2.1792
   23SAPC  C316 3099   3.006   4.747   8.647  0.6061  0.1667  0.1830
   23SAPC  H16X 3100   2.914   4.689   8.670 -0.4695 -0.3789 -4.5481
   23SAPC  H16Y 3101   3.093   4.689   8.687  0.3295  0.5238  1.3252
   23SAPC  C317 3102   3.015   4.752   8.496  0.7199 -0.4153 -0.2276
   23SAPC  H17X 3103   3.025   4.652   8.449  2.1271 -0.4284  0.0519
   23SAPC  H17Y 3104   3.107   4.809   8.467 -0.0489  0.2291 -1.4719
   23SAPC  C318 3105   2.898   4.828   8.429  0.2165 -0.3709 -0.4146
   23SAPC  H18X 3106   2.905   4.831   8.318 -1.5023  0.1902 -0.5431
   23SAPC  H18Y 3107   2.893   4.929   8.474  0.2056 -0.2609 -0.6574
   23SAPC  H18Z 3108   2.802   4.779   8.456 -0.0832 -0.0250 -0.8261
   24SAPC     N 3109   6.420   6.356  11.198  0.0717  0.7029 -0.0242
   24SAPC   C12 3110   6.527   6.464  11.201  0.0765  0.3942  0.3493
   24SAPC  H12A 3111   6.592   6.440  11.284  0.6913 -3.8550 -1.1185
   24SAPC  H12B 3112   6.491   6.562  11.228 -1.4448 -0.1946  0.5305
   24SAPC   C13 3113   6.316   6.394  11.094 -0.2666 -0.1933 -0.0782
   24SAPC  H13A 3114   6.265   6.483  11.128  1.4257 -0.1192  2.5134
   24SAPC  H13B 3115   6.354   6.406  10.993  1.4501 -1.5885  0.3721
   24SAPC  H13C 3116   6.240   6.318  11.085 -0.0531 -0.3728 -0.3778
   24SAPC   C14 3117   6.485   6.224  11.156  0.0298  0.5247  0.7765
   24SAPC  H14A 3118   6.505   6.243  11.052 -0.0147  0.6406  0.7890
   24SAPC  H14B 3119   6.567   6.206  11.223  1.0376  0.4286 -0.4530
   24SAPC  H14C 3120   6.407   6.149  11.164  0.5049 -0.3378 -1.8514
   24SAPC   C15 3121   6.356   6.347  11.332  0.1391  0.7676  0.2322
   24SAPC  H15A 3122   6.295   6.435  11.344 -1.7422 -0.4952  0.3313
   24SAPC  H15B 3123   6.296   6.257  11.329 -1.1680  1.5397  1.6737
   24SAPC  H15C 3124   6.427   6.340  11.414 -0.4155  1.1867  0.7536
   24SAPC   C11 3125   6.609   6.483  11.081  0.5031 -0.7218 -0.4435
   24SAPC  H11A 3126   6.554   6.448  10.991  0.5885 -0.0190 -0.7755
   24SAPC  H11B 3127   6.702   6.423  11.080  1.6399  0.6720  3.4665
   24SAPC     P 3128   6.556   6.734  11.013  0.2597 -0.4008 -0.2483
   24SAPC   O13 3129   6.430   6.738  11.102 -0.2540  0.2091  0.4624
   24SAPC   O14 3130   6.641   6.861  11.024  0.3813  0.3218  0.1679
   24SAPC   O12 3131   6.646   6.621  11.074 -0.3535 -0.3421  0.1073
   24SAPC   O11 3132   6.538   6.695  10.860  0.1287  0.0133 -0.2540
   24SAPC    C1 3133   6.517   6.800  10.764 -0.4397 -0.6126  0.0254
   24SAPC    HA 3134   6.589   6.883  10.776  1.7945 -2.7117  2.4639
   24SAPC    HB 3135   6.539   6.762  10.662 -1.4795 -1.7924  0.2021
   24SAPC    C2 3136   6.374   6.867  10.773  0.0583  0.0895  0.3346
   24SAPC    HS 3137   6.396   6.947  10.847  0.6071  0.3992 -0.1552
   24SAPC   O21 3138   6.279   6.777  10.823 -0.1069  0.2409  0.3283
   24SAPC   C21 3139   6.166   6.806  10.886 -0.3304  0.0780 -1.0451
   24SAPC   O22 3140   6.119   6.916  10.901 -0.2292 -1.0254 -0.0837
   24SAPC   C22 3141   6.099   6.672  10.920  0.3431  0.2470 -0.5706
   24SAPC   H2R 3142   6.183   6.601  10.938  0.9897  1.1850  0.2294
   24SAPC   H2S 3143   6.061   6.688  11.023  0.0304  1.7701 -0.9024
   24SAPC    C3 3144   6.333   6.933  10.634 -0.1335  1.2023 -0.4633
   24SAPC    HX 3145   6.407   7.009  10.602  0.7912 -0.0332 -1.3368
   24SAPC    HY 3146   6.238   6.990  10.647 -0.5919 -0.0419  2.7170
   24SAPC   O31 3147   6.330   6.830  10.528 -0.4521  0.0140  0.1843
   24SAPC   C31 3148   6.206   6.784  10.504  0.2773 -0.3828  0.6774
   24SAPC   O32 3149   6.104   6.808  10.567 -0.1890  0.0398  0.1234
   24SAPC   C32 3150   6.230   6.685  10.388 -1.1571  0.1467  0.0227
   24SAPC   H2X 3151   6.263   6.589  10.435 -0.3548  0.9343  1.1303
   24SAPC   H2Y 3152   6.313   6.729  10.328  0.2579 -0.3414  1.5377
   24SAPC   C23 3153   6.004   6.629  10.816  0.4553  0.0175  0.5380
   24SAPC   H3R 3154   6.063   6.598  10.727 -1.8512  0.3361 -1.1936
   24SAPC   H3S 3155   5.930   6.707  10.787  1.3711  0.9016  0.5099
   24SAPC   C24 3156   5.932   6.504  10.861 -0.2551  0.1984  0.2786
   24SAPC   H4R 3157   5.895   6.538  10.960  0.5618  1.0172  0.3242
   24SAPC   H4S 3158   6.006   6.422  10.870  0.6870  0.9823 -0.1441
   24SAPC   C25 3159   5.817   6.473  10.773  0.9574  0.0985  0.4237
   24SAPC   H5R 3160   5.718   6.504  10.811  1.0920  3.0202 -1.3125
   24SAPC   C26 3161   5.825   6.440  10.645 -0.0389  0.8342 -0.5363
   24SAPC   H6R 3162   5.731   6.409  10.597 -2.6978  0.6722  4.2304
   24SAPC   C27 3163   5.954   6.410  10.561  0.3211  1.2833  0.0861
   24SAPC   H7R 3164   6.022   6.498  10.559 -0.4045  1.8446 -0.5451
   24SAPC   H7S 3165   5.918   6.396  10.456 -0.0361  1.6557  0.1586
   24SAPC   C28 3166   6.023   6.286  10.600  0.3754 -0.5150 -0.0874
   24SAPC   H8R 3167   5.987   6.242  10.694 -0.0858 -0.8568 -0.4228
   24SAPC   C29 3168   6.132   6.227  10.537 -0.5485 -0.8836 -0.2584
   24SAPC   H9R 3169   6.174   6.135  10.581 -0.6012 -0.7847  0.0045
   24SAPC  C210 3170   6.203   6.274  10.407  0.1428  0.4916 -0.6574
   24SAPC  H10R 3171   6.297   6.218  10.386  0.1166  0.8613 -1.8832
   24SAPC  H10S 3172   6.253   6.368  10.441  0.6609 -0.1938  0.5250
   24SAPC  C211 3173   6.124   6.286  10.281  0.1453 -0.4314 -0.0906
   24SAPC  H11R 3174   6.016   6.289  10.303  0.0836 -1.8255 -0.0698
   24SAPC  C212 3175   6.167   6.291  10.149 -0.3174 -0.3062 -0.8277
   24SAPC  H12R 3176   6.097   6.297  10.065  0.9049  2.3049 -1.7581
   24SAPC  C213 3177   6.309   6.278  10.114 -0.1337 -0.1383  0.2183
   24SAPC  H13R 3178   6.378   6.249  10.196 -1.0326  1.0071  1.4443
   24SAPC  H13S 3179   6.361   6.373  10.090  2.3369 -1.2376  0.9322
   24SAPC  C214 3180   6.327   6.182  10.002  0.8187  0.2212 -0.3466
   24SAPC  H14R 3181   6.340   6.074  10.018 -3.1936 -0.2773  0.4619
   24SAPC  C215 3182   6.318   6.215   9.868 -0.5804  0.0484 -0.8234
   24SAPC  H15R 3183   6.364   6.151   9.792 -1.3512  0.3702 -1.5721
   24SAPC  C216 3184   6.294   6.355   9.814 -0.0124  0.2205  0.3836
   24SAPC  H16R 3185   6.364   6.378   9.731 -1.9225  1.5498 -0.9380
   24SAPC  H16S 3186   6.330   6.436   9.881  0.2393  0.5591 -0.1565
   24SAPC  C217 3187   6.152   6.390   9.771 -0.0772  0.4043 -0.0697
   24SAPC  H17R 3188   6.143   6.499   9.755 -3.0495  0.6540  2.5112
   24SAPC  H17S 3189   6.088   6.356   9.855 -1.1642  0.9277 -0.6708
   24SAPC  C218 3190   6.111   6.325   9.628  0.1444  0.0725 -0.3182
   24SAPC  H18R 3191   6.024   6.381   9.588 -0.5133 -0.6445  0.0829
   24SAPC  H18S 3192   6.075   6.222   9.647  2.5069 -1.1593 -1.9427
   24SAPC  C219 3193   6.216   6.331   9.519 -0.5136  1.0333  0.3294
   24SAPC  H19R 3194   6.314   6.283   9.544 -0.9431  0.0216  0.1144
   24SAPC  H19S 3195   6.227   6.437   9.488 -0.1786  1.3031  1.3260
   24SAPC  C220 3196   6.168   6.258   9.392 -0.2985  0.0253 -0.4606
   24SAPC  H20R 3197   6.238   6.275   9.307 -1.7692 -1.5263 -2.0463
   24SAPC  H20S 3198   6.071   6.290   9.349 -1.2126  0.5193  1.7827
   24SAPC  H20T 3199   6.163   6.149   9.412  1.2431  0.3484  2.3624
   24SAPC   C33 3200   6.106   6.679  10.282 -0.2930  0.4824  0.6503
   24SAPC   H3X 3201   6.013   6.640  10.328 -0.6278 -0.5324 -0.8058
   24SAPC   H3Y 3202   6.136   6.605  10.205  0.3474  0.1969  1.1678
   24SAPC   C34 3203   6.087   6.819  10.219  0.1501 -0.0588  0.0508
   24SAPC   H4X 3204   6.183   6.857  10.178  0.9997  0.6998  2.5318
   24SAPC   H4Y 3205   6.062   6.894  10.296  1.6989  0.2594  0.2816
   24SAPC   C35 3206   5.980   6.829  10.113  1.0283  0.3730  0.0177
   24SAPC   H5X 3207   5.990   6.931  10.071  3.5233 -0.8784 -2.7603
   24SAPC   H5Y 3208   5.883   6.817  10.167  0.9533 -2.0228 -0.5363
   24SAPC   C36 3209   5.989   6.730   9.997 -0.2498 -0.2030 -0.2217
   24SAPC   H6X 3210   5.954   6.628  10.024 -2.6540  1.1214  2.1704
   24SAPC   H6Y 3211   6.099   6.718   9.984 -0.0064 -1.0727  2.1354
   24SAPC   C37 3212   5.903   6.771   9.877  0.2543  0.4285 -0.0883
   24SAPC   H7X 3213   5.939   6.872   9.849  1.0034  0.4529  0.8855
   24SAPC   H7Y 3214   5.798   6.778   9.911  0.6853  1.5732  1.0949
   24SAPC   C38 3215   5.912   6.686   9.745 -0.3405  0.3093 -0.6017
   24SAPC   H8X 3216   5.908   6.579   9.775 -1.9028  0.5625  0.1576
   24SAPC   H8Y 3217   6.012   6.699   9.697 -0.7973 -1.1983 -2.0733
   24SAPC   C39 3218   5.796   6.732   9.657  0.7401 -0.2018 -0.1671
   24SAPC   H9X 3219   5.804   6.843   9.659 -0.4131 -0.0637 -1.6131
   24SAPC   H9Y 3220   5.698   6.696   9.695  1.0052  0.0469  0.7921
   24SAPC  C310 3221   5.806   6.672   9.513  0.4767 -0.3599  0.6481
   24SAPC  H10X 3222   5.819   6.562   9.528  1.6309 -0.5317 -1.4001
   24SAPC  H10Y 3223   5.891   6.721   9.461 -1.5000  1.7300 -0.7938
   24SAPC  C311 3224   5.673   6.690   9.425 -0.2930  0.5724 -0.4288
   24SAPC  H11X 3225   5.598   6.636   9.486 -0.5131  1.1472 -0.1798
   24SAPC  H11Y 3226   5.676   6.619   9.340  0.8629 -1.2154  1.0295
   24SAPC  C312 3227   5.647   6.837   9.389  0.3148 -0.2271 -0.0348
   24SAPC  H12X 3228   5.732   6.863   9.323  0.5187  0.7311  0.5856
   24SAPC  H12Y 3229   5.657   6.892   9.485 -1.5365 -1.8937  1.1985
   24SAPC  C313 3230   5.517   6.869   9.321 -0.0435  0.7583 -0.1453
   24SAPC  H13X 3231   5.436   6.898   9.392  1.1777  0.7303  1.3226
   24SAPC  H13Y 3232   5.485   6.780   9.262 -0.0893  0.1353  0.8001
   24SAPC  C314 3233   5.513   6.999   9.232  0.3884  0.3519  0.1633
   24SAPC  H14X 3234   5.594   7.001   9.156  0.1013  1.7674 -0.1284
   24SAPC  H14Y 3235   5.526   7.095   9.286  2.5963  0.1221  0.1605
   24SAPC  C315 3236   5.374   7.011   9.161  0.8408  0.0894  0.2749
   24SAPC  H15X 3237   5.290   6.989   9.231  1.0464 -1.5816  0.0371
   24SAPC  H15Y 3238   5.367   6.930   9.086  1.0131 -0.1284  0.4957
   24SAPC  C316 3239   5.347   7.142   9.094 -0.4330  0.3981 -0.6289
   24SAPC  H16X 3240   5.355   7.213   9.180  1.6951 -2.0467  1.3536
   24SAPC  H16Y 3241   5.245   7.133   9.051 -0.5538 -0.8660 -0.1322
   24SAPC  C317 3242   5.447   7.190   8.990 -0.2099  0.5326  0.5286
   24SAPC  H17X 3243   5.543   7.212   9.042  0.2760 -0.5788  0.1213
   24SAPC  H17Y 3244   5.413   7.288   8.949  0.2957  1.4694  2.2348
   24SAPC  C318 3245   5.465   7.085   8.878  0.5392 -0.2183 -0.0029
   24SAPC  H18X 3246   5.555   7.108   8.816 -0.8233 -0.8795 -2.3647
   24SAPC  H18Y 3247   5.376   7.086   8.811  1.6428 -0.5329 -1.5232
   24SAPC  H18Z 3248   5.484   6.982   8.913  1.2887  0.3687  1.4336
   25SAPC     N 3249   2.185   3.333   6.111  0.6222 -0.0210  0.4990
   25SAPC   C12 3250   2.093   3.404   6.013  0.0246 -0.1126 -0.1498
   25SAPC  H12A 3251   2.134   3.402   5.913  0.3849 -1.4244  0.0047
   25SAPC  H12B 3252   2.095   3.507   6.046 -0.2110 -0.3261  0.5236
   25SAPC   C13 3253   2.127   3.339   6.249 -0.4730 -0.2151 -0.0780
   25SAPC  H13A 3254   2.138   3.246   6.303 -0.6844 -0.1891  0.0133
   25SAPC  H13B 3255   2.171   3.420   6.304  0.7982 -0.1141 -1.2060
   25SAPC  H13C 3256   2.021   3.363   6.256 -0.3676  1.0447 -1.9853
   25SAPC   C14 3257   2.207   3.191   6.070  0.0803 -0.1228 -0.5577
   25SAPC  H14A 3258   2.256   3.197   5.974  1.1212  3.9568  0.0549
   25SAPC  H14B 3259   2.259   3.132   6.144 -0.9909 -1.4633 -0.8169
   25SAPC  H14C 3260   2.113   3.140   6.056  0.4828 -0.7929 -0.8830
   25SAPC   C15 3261   2.317   3.394   6.115 -0.2327  0.8236 -0.5536
   25SAPC  H15A 3262   2.381   3.353   6.191  0.2628 -0.8120 -1.8003
   25SAPC  H15B 3263   2.365   3.384   6.019  1.2359 -2.4152  0.3933
   25SAPC  H15C 3264   2.322   3.499   6.140 -1.3253  0.9872 -0.9719
   25SAPC   C11 3265   1.947   3.366   6.004  0.2798 -0.4373  0.0054
   25SAPC  H11A 3266   1.904   3.420   5.917  1.3627 -1.9606 -1.5528
   25SAPC  H11B 3267   1.883   3.383   6.093 -0.0658  0.4627 -0.4110
   25SAPC     P 3268   1.829   3.127   5.970  0.1714  0.2370  0.2816
   25SAPC   O13 3269   1.734   3.144   5.859  0.1450  0.0407 -0.4898
   25SAPC   O14 3270   1.878   2.994   5.992  0.0704 -0.1790  0.1397
   25SAPC   O12 3271   1.947   3.229   5.955 -0.7904 -0.0679 -0.9147
   25SAPC   O11 3272   1.763   3.169   6.101  0.3791  0.0423  0.3444
   25SAPC    C1 3273   1.841   3.160   6.217  0.2434  0.2554  0.2351
   25SAPC    HA 3274   1.951   3.172   6.209  0.1641  1.8332  1.2701
   25SAPC    HB 3275   1.809   3.245   6.280 -0.9207 -0.1518  0.2226
   25SAPC    C2 3276   1.804   3.040   6.304 -0.3823 -0.1413 -0.2421
   25SAPC    HS 3277   1.811   2.949   6.241 -1.1841  0.0352 -0.6005
   25SAPC   O21 3278   1.669   3.058   6.361  0.4503  0.3505  0.6379
   25SAPC   C21 3279   1.617   2.944   6.409  0.4169  0.1814  0.2629
   25SAPC   O22 3280   1.652   2.833   6.372  0.3181  0.0538 -0.4663
   25SAPC   C22 3281   1.507   2.975   6.509  0.0119  0.0377 -0.3107
   25SAPC   H2R 3282   1.439   3.053   6.469 -0.6391  0.1264  0.9152
   25SAPC   H2S 3283   1.452   2.881   6.532  0.1377  0.1678  0.5597
   25SAPC    C3 3284   1.919   3.022   6.412  0.0261  1.0140 -0.2663
   25SAPC    HX 3285   2.004   3.024   6.340  0.7547  2.0339  0.5999
   25SAPC    HY 3286   1.925   2.918   6.452  0.4359  1.6942  1.5041
   25SAPC   O31 3287   1.925   3.135   6.506 -0.1098  0.4291  0.3044
   25SAPC   C31 3288   2.039   3.133   6.582  0.4051 -1.2570 -0.0457
   25SAPC   O32 3289   2.110   3.039   6.596  0.1017  0.0068 -0.0262
   25SAPC   C32 3290   2.047   3.264   6.664  0.6750 -0.1057 -0.8601
   25SAPC   H2X 3291   2.046   3.355   6.600 -0.1428  0.8631  0.4753
   25SAPC   H2Y 3292   2.149   3.261   6.707 -0.0845 -0.8671  0.9999
   25SAPC   C23 3293   1.561   3.030   6.640  0.2195  0.6722 -1.3856
   25SAPC   H3R 3294   1.598   3.134   6.628  1.3117  0.4877  0.1772
   25SAPC   H3S 3295   1.646   2.964   6.666 -0.6854 -0.4292 -1.1739
   25SAPC   C24 3296   1.465   3.008   6.764  0.0514 -0.0158 -0.5525
   25SAPC   H4R 3297   1.425   2.905   6.760 -2.3155  0.8156 -0.1038
   25SAPC   H4S 3298   1.375   3.071   6.744  0.0708 -0.4047 -1.9683
   25SAPC   C25 3299   1.530   3.032   6.902 -0.7688 -0.0781  0.3370
   25SAPC   H5R 3300   1.628   2.981   6.905 -1.2406 -0.9673  0.7450
   25SAPC   C26 3301   1.488   3.094   7.009 -0.6508  0.6866 -0.6779
   25SAPC   H6R 3302   1.553   3.104   7.097 -1.0368  0.8797 -0.4151
   25SAPC   C27 3303   1.354   3.165   7.030 -0.4694  0.1279  0.1899
   25SAPC   H7R 3304   1.289   3.104   7.097  1.6656  0.0904  2.3689
   25SAPC   H7S 3305   1.290   3.181   6.941 -0.3814 -0.4963  0.0058
   25SAPC   C28 3306   1.391   3.295   7.088  0.0999  0.2758  0.2054
   25SAPC   H8R 3307   1.407   3.375   7.015 -2.6746  2.4063  1.7441
   25SAPC   C29 3308   1.393   3.333   7.215 -0.3188  0.3785 -0.1888
   25SAPC   H9R 3309   1.407   3.439   7.238 -2.2864  0.5484  0.4087
   25SAPC  C210 3310   1.361   3.239   7.331  0.6621  0.4634 -0.3489
   25SAPC  H10R 3311   1.443   3.244   7.406  0.9213 -0.9691 -0.5028
   25SAPC  H10S 3312   1.351   3.135   7.294  0.1159  0.4323 -0.1259
   25SAPC  C211 3313   1.238   3.286   7.406  0.3866  0.3928 -0.1119
   25SAPC  H11R 3314   1.149   3.324   7.353  0.6157  0.5157 -0.4111
   25SAPC  C212 3315   1.221   3.313   7.538  0.1927  0.6540 -0.0433
   25SAPC  H12R 3316   1.122   3.341   7.578  0.0596 -0.1919  0.2495
   25SAPC  C213 3317   1.317   3.295   7.648 -0.2390 -0.0599 -0.1644
   25SAPC  H13R 3318   1.422   3.304   7.611 -0.3198  0.7814 -0.2183
   25SAPC  H13S 3319   1.307   3.195   7.694 -1.1263  0.4687  0.8157
   25SAPC  C214 3320   1.312   3.395   7.763 -0.0823  0.5665  0.1261
   25SAPC  H14R 3321   1.220   3.453   7.749 -0.4940  0.2209  1.2834
   25SAPC  C215 3322   1.385   3.402   7.875 -0.2736  0.1278 -0.0660
   25SAPC  H15R 3323   1.366   3.488   7.941  0.6169 -0.3611  0.8537
   25SAPC  C216 3324   1.512   3.312   7.904  0.0761 -0.1227  0.4088
   25SAPC  H16R 3325   1.559   3.284   7.807  2.0618  0.1746  1.2447
   25SAPC  H16S 3326   1.486   3.227   7.970 -2.1796 -0.0302 -0.2524
   25SAPC  C217 3327   1.629   3.390   7.958  0.5145 -0.0590 -0.4289
   25SAPC  H17R 3328   1.713   3.322   7.986 -0.1901 -1.2139 -1.0389
   25SAPC  H17S 3329   1.596   3.441   8.050 -2.8799 -1.5318 -0.7038
   25SAPC  C218 3330   1.686   3.496   7.864 -0.0722  0.0104 -0.0845
   25SAPC  H18R 3331   1.630   3.588   7.894 -0.0972 -1.0787  3.6977
   25SAPC  H18S 3332   1.667   3.469   7.758 -0.3735  0.9499 -0.2778
   25SAPC  C219 3333   1.836   3.531   7.878  0.9926  0.2383  0.1812
   25SAPC  H19R 3334   1.861   3.615   7.810 -1.0702  0.6748 -0.1063
   25SAPC  H19S 3335   1.892   3.441   7.845 -0.2899 -0.0581 -1.2887
   25SAPC  C220 3336   1.874   3.568   8.022 -0.1410  0.2783  0.0859
   25SAPC  H20R 3337   1.804   3.641   8.069  0.5836  0.7204  0.4923
   25SAPC  H20S 3338   1.980   3.602   8.021 -0.2843  0.8094 -1.9392
   25SAPC  H20T 3339   1.856   3.476   8.082 -0.2732  1.1503  1.4369
   25SAPC   C33 3340   1.944   3.276   6.785 -0.1656 -1.1859 -0.0503
   25SAPC   H3X 3341   1.971   3.213   6.872 -1.2019 -0.3867  0.8714
   25SAPC   H3Y 3342   1.843   3.265   6.741  0.6972  1.0005 -2.9056
   25SAPC   C34 3343   1.943   3.421   6.848 -0.1948  0.6662  0.1445
   25SAPC   H4X 3344   1.920   3.486   6.761  1.0920  1.6099  0.4760
   25SAPC   H4Y 3345   2.044   3.447   6.887  0.0027 -0.0896  0.1653
   25SAPC   C35 3346   1.833   3.417   6.958 -0.4330 -0.4977 -0.1135
   25SAPC   H5X 3347   1.749   3.355   6.921  1.6716 -3.4079 -0.3829
   25SAPC   H5Y 3348   1.803   3.521   6.981 -0.4951 -0.3816 -0.7107
   25SAPC   C36 3349   1.875   3.366   7.091  0.3979 -0.0157 -0.1828
   25SAPC   H6X 3350   1.952   3.434   7.134  0.9678 -0.3783 -0.6056
   25SAPC   H6Y 3351   1.922   3.265   7.082 -0.4645 -0.3558 -1.0341
   25SAPC   C37 3352   1.765   3.361   7.197  0.0157 -0.5491 -0.2897
   25SAPC   H7X 3353   1.664   3.334   7.157 -0.2378 -0.3400  0.2031
   25SAPC   H7Y 3354   1.750   3.461   7.243  2.4268  0.3893 -1.3597
   25SAPC   C38 3355   1.814   3.269   7.314 -0.0302  1.0133  0.1925
   25SAPC   H8X 3356   1.923   3.280   7.331 -0.3383  1.4302  2.1349
   25SAPC   H8Y 3357   1.793   3.161   7.298 -1.1154  1.1641  0.5144
   25SAPC   C39 3358   1.738   3.287   7.441  0.3924 -0.3340  0.0926
   25SAPC   H9X 3359   1.636   3.324   7.417 -0.1966 -2.7018 -1.3720
   25SAPC   H9Y 3360   1.780   3.375   7.494  1.6889 -1.0744  0.3366
   25SAPC  C310 3361   1.740   3.172   7.542 -0.6621 -0.3936 -0.1938
   25SAPC  H10X 3362   1.689   3.088   7.490  0.6714 -1.6958  0.5458
   25SAPC  H10Y 3363   1.676   3.199   7.628  0.9513  0.6405  0.7493
   25SAPC  C311 3364   1.879   3.130   7.590 -0.1196  0.1649 -0.1944
   25SAPC  H11X 3365   1.952   3.130   7.506  3.0329  0.1991  2.3306
   25SAPC  H11Y 3366   1.877   3.025   7.626  1.8527 -0.2869 -1.2640
   25SAPC  C312 3367   1.931   3.227   7.697  0.1063  0.2124  0.7734
   25SAPC  H12X 3368   1.851   3.234   7.774  0.5905  0.1110  1.2972
   25SAPC  H12Y 3369   1.957   3.319   7.641  0.1413 -0.8804 -1.1043
   25SAPC  C313 3370   2.060   3.167   7.763  0.4278  0.0661 -0.8890
   25SAPC  H13X 3371   2.139   3.154   7.686  0.9800  2.1911 -0.7477
   25SAPC  H13Y 3372   2.037   3.071   7.815  0.7723  0.3061 -0.2843
   25SAPC  C314 3373   2.128   3.265   7.857  0.6175  0.3003 -0.4765
   25SAPC  H14X 3374   2.140   3.370   7.823 -0.0459 -0.2138 -2.3677
   25SAPC  H14Y 3375   2.230   3.222   7.874  0.9381  0.3697 -2.0874
   25SAPC  C315 3376   2.055   3.263   7.999 -0.3328 -0.0734 -0.5872
   25SAPC  H15X 3377   2.049   3.158   8.033 -0.1473  0.0358 -0.2171
   25SAPC  H15Y 3378   1.950   3.296   7.983 -1.0185 -2.5294 -1.5024
   25SAPC  C316 3379   2.128   3.343   8.103  0.2350 -0.4345 -0.0876
   25SAPC  H16X 3380   2.129   3.449   8.070  1.6124 -0.7234 -1.0584
   25SAPC  H16Y 3381   2.237   3.325   8.114  0.9937  2.6152 -1.5372
   25SAPC  C317 3382   2.061   3.324   8.238 -0.2482 -0.0196 -0.0374
   25SAPC  H17X 3383   2.092   3.232   8.292 -1.1333  0.1139  0.7389
   25SAPC  H17Y 3384   1.951   3.318   8.224 -0.4067  1.8953  0.0721
   25SAPC  C318 3385   2.099   3.446   8.316  0.0568  0.3948 -0.1786
   25SAPC  H18X 3386   2.207   3.448   8.342  0.5882 -0.8224 -2.0883
   25SAPC  H18Y 3387   2.044   3.454   8.413 -1.3604  2.2167 -1.0799
   25SAPC  H18Z 3388   2.089   3.541   8.260 -0.8271  1.0557  1.0411
   26SAPC     N 3389   2.103   4.057   6.265 -0.5400  0.5677 -0.6197
   26SAPC   C12 3390   2.177   3.991   6.153 -0.5102 -0.7006 -0.6658
   26SAPC  H12A 3391   2.234   4.066   6.100  2.9705 -3.2968 -0.9570
   26SAPC  H12B 3392   2.111   3.950   6.079  0.0441 -0.1768 -1.4660
   26SAPC   C13 3393   1.982   3.969   6.293  0.6314 -0.1580  0.1972
   26SAPC  H13A 3394   1.937   4.013   6.381  1.7684  0.4088  0.5142
   26SAPC  H13B 3395   1.904   3.967   6.218  1.6525 -0.9995 -0.8821
   26SAPC  H13C 3396   2.001   3.863   6.307 -1.9981 -0.4288  2.9145
   26SAPC   C14 3397   2.187   4.080   6.394  0.2400  0.0345  0.2806
   26SAPC  H14A 3398   2.266   4.148   6.366  0.2552 -0.8986 -2.2622
   26SAPC  H14B 3399   2.127   4.118   6.476  0.1304 -0.4100  0.4075
   26SAPC  H14C 3400   2.235   3.991   6.431  1.0857  0.3554 -0.0344
   26SAPC   C15 3401   2.051   4.191   6.222  0.0095  0.4497 -0.5888
   26SAPC  H15A 3402   1.995   4.226   6.308  0.5824 -0.9768  0.3901
   26SAPC  H15B 3403   2.136   4.255   6.205 -0.4546  1.0619 -0.6475
   26SAPC  H15C 3404   1.985   4.193   6.136 -0.2977  2.3311 -0.3673
   26SAPC   C11 3405   2.272   3.873   6.175  0.5926  0.7341 -0.5885
   26SAPC  H11A 3406   2.356   3.898   6.242  0.6796 -1.0772  0.0377
   26SAPC  H11B 3407   2.321   3.852   6.077 -0.2637 -0.1546 -0.8500
   26SAPC     P 3408   2.236   3.680   6.354  0.7686  0.0845  0.0995
   26SAPC   O13 3409   2.120   3.592   6.394  0.1246 -0.4762 -0.3220
   26SAPC   O14 3410   2.365   3.610   6.334 -0.0849  0.0384  0.4356
   26SAPC   O12 3411   2.199   3.759   6.219  0.6005  0.3761 -0.1069
   26SAPC   O11 3412   2.251   3.797   6.453 -0.0399 -0.2258 -0.3234
   26SAPC    C1 3413   2.258   3.790   6.593  0.0112 -0.5665  0.2304
   26SAPC    HA 3414   2.243   3.891   6.637  0.6905 -1.4391  2.6325
   26SAPC    HB 3415   2.168   3.735   6.629 -1.0621  0.4814 -0.7597
   26SAPC    C2 3416   2.401   3.751   6.637  0.2220  0.0604 -0.7411
   26SAPC    HS 3417   2.435   3.654   6.593  1.0180 -0.7114  1.4541
   26SAPC   O21 3418   2.416   3.746   6.781 -0.4724 -0.3261  0.8864
   26SAPC   C21 3419   2.339   3.661   6.837  0.8844  0.2128 -0.9147
   26SAPC   O22 3420   2.282   3.564   6.785 -0.4162 -0.5174 -0.5640
   26SAPC   C22 3421   2.339   3.691   6.992  0.1026 -0.2184 -0.0135
   26SAPC   H2R 3422   2.428   3.645   7.040 -0.2831  0.7003  1.6814
   26SAPC   H2S 3423   2.347   3.802   6.996  2.5806 -0.3223 -0.6479
   26SAPC    C3 3424   2.506   3.859   6.604 -0.9175 -0.6270  0.3323
   26SAPC    HX 3425   2.526   3.861   6.495  1.0820 -1.0722  0.6478
   26SAPC    HY 3426   2.607   3.831   6.641 -0.8783 -2.1029 -0.8223
   26SAPC   O31 3427   2.458   3.984   6.647 -0.3144 -0.6108 -0.4721
   26SAPC   C31 3428   2.560   4.067   6.680 -0.4341 -0.5591 -0.4120
   26SAPC   O32 3429   2.672   4.062   6.630  0.0196  0.3986  0.3180
   26SAPC   C32 3430   2.514   4.158   6.795  0.1038 -0.2169 -0.1170
   26SAPC   H2X 3431   2.404   4.155   6.778 -0.1397 -4.4571  1.0963
   26SAPC   H2Y 3432   2.556   4.259   6.777  1.2239 -0.6014  0.3083
   26SAPC   C23 3433   2.211   3.647   7.064 -0.1951  0.0242  0.0355
   26SAPC   H3R 3434   2.216   3.536   7.065  2.2203  0.0711  1.7220
   26SAPC   H3S 3435   2.124   3.686   7.008  1.0573 -1.0986 -2.9211
   26SAPC   C24 3436   2.219   3.680   7.216 -0.2710  0.3913 -0.2582
   26SAPC   H4R 3437   2.236   3.790   7.221 -0.3781  0.4352 -0.7901
   26SAPC   H4S 3438   2.307   3.624   7.255  1.2429  2.9757  0.2909
   26SAPC   C25 3439   2.089   3.642   7.279  0.1090 -0.6556 -0.5262
   26SAPC   H5R 3440   2.000   3.695   7.243 -1.5282 -1.5848  1.8688
   26SAPC   C26 3441   2.076   3.563   7.386  0.4103 -0.8241  0.0076
   26SAPC   H6R 3442   1.975   3.541   7.423  0.9207 -0.1888  1.8805
   26SAPC   C27 3443   2.177   3.485   7.460 -0.2204  0.3261 -0.1814
   26SAPC   H7R 3444   2.240   3.435   7.384  0.8688  0.9878  0.2706
   26SAPC   H7S 3445   2.118   3.402   7.504  0.0491  0.2139 -0.0357
   26SAPC   C28 3446   2.261   3.542   7.566 -0.4872  0.3568  1.1194
   26SAPC   H8R 3447   2.238   3.638   7.615  1.6179  1.0902  0.7828
   26SAPC   C29 3448   2.358   3.473   7.623 -0.0627 -0.5268  0.4219
   26SAPC   H9R 3449   2.410   3.516   7.710 -1.4581 -0.5131  1.2727
   26SAPC  C210 3450   2.397   3.327   7.601  0.1080  0.4700  0.1760
   26SAPC  H10R 3451   2.318   3.270   7.547  2.7163 -2.3790 -0.9680
   26SAPC  H10S 3452   2.407   3.281   7.701 -0.2424  1.0761  0.4935
   26SAPC  C211 3453   2.525   3.298   7.531  0.2415 -0.4383  0.0311
   26SAPC  H11R 3454   2.533   3.335   7.428  0.0255  0.9608  0.4925
   26SAPC  C212 3455   2.632   3.234   7.583  0.5689 -0.7163  0.6768
   26SAPC  H12R 3456   2.728   3.252   7.532  0.8731 -0.4251  1.3253
   26SAPC  C213 3457   2.647   3.166   7.718  0.5139 -0.1035  0.0889
   26SAPC  H13R 3458   2.700   3.071   7.698  1.3352  0.7010 -1.8824
   26SAPC  H13S 3459   2.553   3.138   7.768  1.9533  0.5236  3.3895
   26SAPC  C214 3460   2.736   3.245   7.810  0.1429 -0.0501  0.4332
   26SAPC  H14R 3461   2.755   3.352   7.790  3.3590  0.4587  4.7815
   26SAPC  C215 3462   2.796   3.199   7.915  0.1976  0.3713 -1.3557
   26SAPC  H15R 3463   2.864   3.270   7.966 -1.0571  0.9754 -0.4711
   26SAPC  C216 3464   2.791   3.060   7.978 -0.4185  0.2584  0.4348
   26SAPC  H16R 3465   2.893   3.034   8.013  0.2933  0.2756 -1.4851
   26SAPC  H16S 3466   2.757   2.985   7.903 -1.1044 -0.6338  1.6157
   26SAPC  C217 3467   2.700   3.048   8.106 -0.4926  0.3093 -0.4573
   26SAPC  H17R 3468   2.728   3.132   8.173 -0.0116 -1.5637  1.8473
   26SAPC  H17S 3469   2.740   2.959   8.161  0.1655 -0.6439 -2.3960
   26SAPC  C218 3470   2.550   3.022   8.082 -0.5491  0.2774  0.1948
   26SAPC  H18R 3471   2.511   3.098   8.011  0.5541 -0.1410 -0.8926
   26SAPC  H18S 3472   2.495   3.029   8.178 -0.7032  2.2479  0.0086
   26SAPC  C219 3473   2.525   2.887   8.030 -0.1768 -0.9714  0.5220
   26SAPC  H19R 3474   2.561   2.810   8.102  0.7069 -0.8564  0.2074
   26SAPC  H19S 3475   2.588   2.881   7.939 -0.7985 -0.5643  0.0516
   26SAPC  C220 3476   2.377   2.869   7.986 -0.3637  0.2616 -0.4288
   26SAPC  H20R 3477   2.358   2.763   7.962 -1.4543  0.2558  0.3837
   26SAPC  H20S 3478   2.345   2.930   7.899 -0.0849  2.0278  0.6527
   26SAPC  H20T 3479   2.313   2.891   8.074  1.6495  0.5990  1.0437
   26SAPC   C33 3480   2.539   4.118   6.944  0.3891  0.2380  0.5555
   26SAPC   H3X 3481   2.645   4.086   6.940  0.2062 -0.3455  0.1803
   26SAPC   H3Y 3482   2.478   4.027   6.962  1.2739 -0.5340 -0.2725
   26SAPC   C34 3483   2.500   4.215   7.052  0.3756 -0.3409 -0.5939
   26SAPC   H4X 3484   2.390   4.227   7.051  0.3856  0.4000  1.5051
   26SAPC   H4Y 3485   2.534   4.321   7.048 -1.1456  0.1651 -0.7202
   26SAPC   C35 3486   2.551   4.167   7.187 -0.2360  0.5068 -0.4418
   26SAPC   H5X 3487   2.661   4.158   7.194 -0.4314 -4.0251  0.4039
   26SAPC   H5Y 3488   2.512   4.065   7.210 -1.6471  1.0369 -0.3919
   26SAPC   C36 3489   2.508   4.261   7.301 -0.3071 -0.0267 -0.5967
   26SAPC   H6X 3490   2.400   4.283   7.282  0.3954  3.6454 -1.2545
   26SAPC   H6Y 3491   2.572   4.349   7.277  0.9694 -1.1823 -1.6262
   26SAPC   C37 3492   2.525   4.211   7.447 -0.0591  0.1172  0.2979
   26SAPC   H7X 3493   2.625   4.164   7.459 -0.6896 -1.6660 -1.0553
   26SAPC   H7Y 3494   2.446   4.139   7.478  0.4778 -0.2886  0.7385
   26SAPC   C38 3495   2.516   4.327   7.551 -0.1908 -0.1964  0.0406
   26SAPC   H8X 3496   2.587   4.403   7.513 -0.0880 -0.2814  0.0621
   26SAPC   H8Y 3497   2.565   4.288   7.643  0.5716 -0.9309 -0.6643
   26SAPC   C39 3498   2.375   4.398   7.570  0.2112  0.4287  0.9000
   26SAPC   H9X 3499   2.310   4.308   7.575  2.2086 -1.3286 -1.5607
   26SAPC   H9Y 3500   2.353   4.461   7.482 -2.1125 -0.9783  0.3801
   26SAPC  C310 3501   2.357   4.477   7.698 -0.4796 -1.0661  0.3965
   26SAPC  H10X 3502   2.355   4.410   7.786 -0.7130 -0.9069  0.5150
   26SAPC  H10Y 3503   2.259   4.531   7.705  0.2068  0.1477  1.1072
   26SAPC  C311 3504   2.464   4.588   7.715  0.4296 -0.8648 -0.2084
   26SAPC  H11X 3505   2.455   4.663   7.633 -1.2979 -0.4536  0.3139
   26SAPC  H11Y 3506   2.565   4.543   7.717  0.6863 -0.2762  0.2045
   26SAPC  C312 3507   2.445   4.671   7.844 -0.2288  0.2029 -0.1557
   26SAPC  H12X 3508   2.472   4.605   7.930  1.1101 -0.1580 -0.8426
   26SAPC  H12Y 3509   2.337   4.692   7.861 -0.2620  0.8803 -1.1315
   26SAPC  C313 3510   2.521   4.799   7.852  0.4396  0.3067 -0.3643
   26SAPC  H13X 3511   2.461   4.876   7.800  1.6820  2.0125  0.6530
   26SAPC  H13Y 3512   2.617   4.787   7.797  1.5041 -1.9898  1.7683
   26SAPC  C314 3513   2.553   4.844   7.999 -0.5993  0.5964  0.5895
   26SAPC  H14X 3514   2.619   4.767   8.045  2.0941  1.8860 -0.8889
   26SAPC  H14Y 3515   2.463   4.844   8.065  0.1816  0.2448  1.6770
   26SAPC  C315 3516   2.636   4.975   7.999 -0.1257 -0.5514  0.3882
   26SAPC  H15X 3517   2.578   5.055   7.948  1.8012 -0.3199 -1.6116
   26SAPC  H15Y 3518   2.740   4.974   7.961  0.1437 -0.1495  1.1058
   26SAPC  C316 3519   2.632   5.025   8.138 -0.8816  0.0873 -0.1838
   26SAPC  H16X 3520   2.684   4.947   8.199 -0.6158  0.2602 -0.1892
   26SAPC  H16Y 3521   2.530   5.032   8.183 -0.6659  1.6536  0.1201
   26SAPC  C317 3522   2.700   5.160   8.163 -1.0595  0.1080 -0.3803
   26SAPC  H17X 3523   2.641   5.239   8.113 -2.4680 -1.1793 -0.8364
   26SAPC  H17Y 3524   2.802   5.154   8.120 -1.5440  1.8797 -1.8928
   26SAPC  C318 3525   2.721   5.192   8.313 -0.5234  0.0514  0.3758
   26SAPC  H18X 3526   2.627   5.189   8.371 -1.7832 -2.5910 -1.5666
   26SAPC  H18Y 3527   2.783   5.282   8.330  1.7237 -0.8781 -2.1649
   26SAPC  H18Z 3528   2.793   5.117   8.353  1.9997  1.4060 -1.3324
   27SAPC     N 3529   5.350   4.581   6.666  0.3919  1.0577 -0.0675
   27SAPC   C12 3530   5.208   4.554   6.716 -0.0125 -0.7354 -0.0570
   27SAPC  H12A 3531   5.216   4.483   6.797  1.2950  0.2670  0.7317
   27SAPC  H12B 3532   5.154   4.497   6.641 -1.3846  0.1435  0.2203
   27SAPC   C13 3533   5.423   4.458   6.640 -0.6730 -0.4179 -0.6444
   27SAPC  H13A 3534   5.519   4.476   6.594 -0.2651  0.6294  0.5761
   27SAPC  H13B 3535   5.443   4.400   6.729  0.5198 -0.7231 -1.0910
   27SAPC  H13C 3536   5.376   4.388   6.572 -0.8496  1.0828 -2.1319
   27SAPC   C14 3537   5.352   4.665   6.552  0.1770 -0.3007  0.0762
   27SAPC  H14A 3538   5.283   4.643   6.472 -1.4992 -1.6538  1.8082
   27SAPC  H14B 3539   5.336   4.769   6.577 -0.7826 -0.1871 -0.9736
   27SAPC  H14C 3540   5.452   4.655   6.511  0.5587  0.2900  0.8372
   27SAPC   C15 3541   5.438   4.651   6.776 -0.0620 -0.3979 -0.2083
   27SAPC  H15A 3542   5.440   4.591   6.866 -3.2305  0.1519  0.3408
   27SAPC  H15B 3543   5.538   4.678   6.745 -0.1361  1.1607  0.7825
   27SAPC  H15C 3544   5.397   4.745   6.812  0.4430  0.4923 -1.8471
   27SAPC   C11 3545   5.122   4.677   6.740  0.2009  0.1767 -0.4260
   27SAPC  H11A 3546   5.108   4.736   6.647 -0.0727 -0.8746 -1.0792
   27SAPC  H11B 3547   5.162   4.752   6.811 -1.6662  2.6154 -1.7675
   27SAPC     P 3548   4.852   4.676   6.782  0.5591  0.0942 -0.0426
   27SAPC   O13 3549   4.835   4.816   6.821  0.1566 -0.6871  0.0053
   27SAPC   O14 3550   4.806   4.655   6.643 -0.3904  0.0008  0.3923
   27SAPC   O12 3551   5.001   4.625   6.791  0.1444  0.3852  0.2000
   27SAPC   O11 3552   4.769   4.586   6.879  0.0441 -0.1160  0.4882
   27SAPC    C1 3553   4.716   4.460   6.838  0.1923 -0.4964  0.2420
   27SAPC    HA 3554   4.653   4.464   6.746  0.3957  3.1687  0.1202
   27SAPC    HB 3555   4.799   4.397   6.802 -0.0887 -1.1739  0.7616
   27SAPC    C2 3556   4.649   4.389   6.968 -0.7853  0.0568 -0.1620
   27SAPC    HS 3557   4.556   4.443   6.995  0.6593  0.9910  3.4999
   27SAPC   O21 3558   4.739   4.389   7.084 -0.4216  0.4745 -0.2381
   27SAPC   C21 3559   4.732   4.499   7.158  1.0518  0.5257  0.6359
   27SAPC   O22 3560   4.654   4.592   7.148 -0.2463 -0.7851  0.8582
   27SAPC   C22 3561   4.834   4.488   7.269 -0.2779 -0.1044  0.5349
   27SAPC   H2R 3562   4.866   4.383   7.284 -0.0571 -0.5970 -2.7205
   27SAPC   H2S 3563   4.927   4.537   7.233  0.8692 -0.8526  2.3359
   27SAPC    C3 3564   4.598   4.248   6.942 -0.4812  0.3817 -0.4881
   27SAPC    HX 3565   4.669   4.171   6.905 -0.4899  0.6808 -1.1483
   27SAPC    HY 3566   4.510   4.251   6.874  0.1284 -0.1099 -1.3121
   27SAPC   O31 3567   4.545   4.188   7.067 -0.1537 -0.7524 -0.3359
   27SAPC   C31 3568   4.632   4.135   7.151 -0.5238  0.4376 -0.2959
   27SAPC   O32 3569   4.748   4.097   7.124 -0.0416 -0.4055 -0.6937
   27SAPC   C32 3570   4.577   4.135   7.292  0.1693 -0.1962  0.7217
   27SAPC   H2X 3571   4.510   4.047   7.303 -1.4456  0.9664  0.5202
   27SAPC   H2Y 3572   4.517   4.228   7.307  0.8456  0.4947 -0.6739
   27SAPC   C23 3573   4.779   4.545   7.407 -0.0296 -0.0336  0.1768
   27SAPC   H3R 3574   4.699   4.478   7.445 -0.3573 -1.1722 -2.3410
   27SAPC   H3S 3575   4.732   4.644   7.390 -1.4222 -1.0146 -2.0309
   27SAPC   C24 3576   4.901   4.566   7.499  0.3982  0.0440 -0.4534
   27SAPC   H4R 3577   4.880   4.656   7.559 -0.7819 -0.4128 -0.1571
   27SAPC   H4S 3578   4.986   4.597   7.434  0.0479  2.1235  0.0012
   27SAPC   C25 3579   4.931   4.437   7.580  0.2737  0.4386 -0.0263
   27SAPC   H5R 3580   4.979   4.356   7.523  2.2016  1.2944  0.3245
   27SAPC   C26 3581   4.896   4.411   7.706 -0.1722  0.3288  0.1915
   27SAPC   H6R 3582   4.923   4.312   7.746  0.0674 -0.0122 -0.7644
   27SAPC   C27 3583   4.819   4.502   7.800  0.0038  0.0638  0.0088
   27SAPC   H7R 3584   4.778   4.436   7.879 -0.0495 -0.6356 -0.5880
   27SAPC   H7S 3585   4.732   4.551   7.753 -1.6927 -1.7300  1.1230
   27SAPC   C28 3586   4.902   4.619   7.859  0.0663 -0.2281 -0.2572
   27SAPC   H8R 3587   4.982   4.653   7.791  0.9212  1.4326  1.4748
   27SAPC   C29 3588   4.907   4.666   7.987  0.4366 -0.5926 -0.0599
   27SAPC   H9R 3589   4.973   4.753   8.004  0.0066  0.0371 -1.4304
   27SAPC  C210 3590   4.823   4.608   8.101  0.4739  0.1042  0.2639
   27SAPC  H10R 3591   4.891   4.538   8.155  1.0814 -0.6130 -1.3737
   27SAPC  H10S 3592   4.738   4.548   8.061  1.8765 -1.3910 -0.5853
   27SAPC  C211 3593   4.762   4.711   8.197 -0.0276 -0.4523 -0.0014
   27SAPC  H11R 3594   4.755   4.815   8.162 -4.2588 -1.0049 -1.3146
   27SAPC  C212 3595   4.711   4.693   8.321 -0.7820  0.1529 -0.1066
   27SAPC  H12R 3596   4.669   4.783   8.368  1.2436  0.8378  0.5054
   27SAPC  C213 3597   4.697   4.559   8.392  0.4397 -0.0279 -0.0087
   27SAPC  H13R 3598   4.688   4.472   8.323  0.4518  0.9851 -1.3167
   27SAPC  H13S 3599   4.604   4.564   8.454  0.7955  0.0289  0.5248
   27SAPC  C214 3600   4.820   4.526   8.484  0.1835 -0.1534 -0.2810
   27SAPC  H14R 3601   4.911   4.540   8.424 -1.1508  3.0832 -1.7704
   27SAPC  C215 3602   4.827   4.480   8.614 -0.2614 -0.3556  0.2491
   27SAPC  H15R 3603   4.926   4.457   8.656 -0.8914 -1.6488  1.0804
   27SAPC  C216 3604   4.710   4.453   8.707 -0.1652  0.4253  0.5329
   27SAPC  H16R 3605   4.615   4.457   8.651 -1.0450  0.9058  2.0065
   27SAPC  H16S 3606   4.702   4.532   8.785  1.1286 -0.6249  1.7945
   27SAPC  C217 3607   4.731   4.321   8.784  0.0157  0.4265  0.1339
   27SAPC  H17R 3608   4.763   4.236   8.720 -2.9871 -0.5591 -0.2182
   27SAPC  H17S 3609   4.631   4.288   8.819  0.1644 -2.6175 -1.9279
   27SAPC  C218 3610   4.831   4.338   8.905  0.6139 -0.1946 -1.0359
   27SAPC  H18R 3611   4.813   4.443   8.939 -0.6044 -0.3443 -1.1885
   27SAPC  H18S 3612   4.937   4.348   8.871  1.3770 -1.2606  0.8328
   27SAPC  C219 3613   4.815   4.241   9.023 -0.5275  0.6431 -0.4518
   27SAPC  H19R 3614   4.892   4.259   9.100 -0.8265 -0.7109  0.1988
   27SAPC  H19S 3615   4.830   4.135   8.991 -0.9204  0.1506  0.8985
   27SAPC  C220 3616   4.679   4.242   9.100  0.1195 -0.0774 -0.0380
   27SAPC  H20R 3617   4.597   4.195   9.042 -1.0420  1.2766  0.4682
   27SAPC  H20S 3618   4.646   4.337   9.147  0.6329 -0.2478  0.6828
   27SAPC  H20T 3619   4.697   4.170   9.183  0.8404  0.6193  0.4269
   27SAPC   C33 3620   4.683   4.134   7.410 -0.1142 -0.6342 -0.2921
   27SAPC   H3X 3621   4.746   4.224   7.396  0.8742 -1.4187 -1.0182
   27SAPC   H3Y 3622   4.730   4.035   7.394 -0.4867 -1.7380  4.1373
   27SAPC   C34 3623   4.610   4.150   7.543  0.3970 -0.8111  0.7588
   27SAPC   H4X 3624   4.521   4.083   7.539  1.1924 -1.9163 -3.1428
   27SAPC   H4Y 3625   4.592   4.259   7.554 -1.1352 -0.5701 -2.6718
   27SAPC   C35 3626   4.694   4.094   7.653 -0.3680  0.5389 -0.3592
   27SAPC   H5X 3627   4.788   4.154   7.648 -0.2956  0.4412 -0.1761
   27SAPC   H5Y 3628   4.704   3.985   7.637 -0.1727  0.4736  0.1868
   27SAPC   C36 3629   4.635   4.123   7.791 -0.1346 -0.1082 -0.7635
   27SAPC   H6X 3630   4.543   4.061   7.795 -0.0434 -0.1920  0.4674
   27SAPC   H6Y 3631   4.607   4.230   7.797  2.5102  0.7943 -2.5415
   27SAPC   C37 3632   4.729   4.094   7.910  0.0134 -0.2453 -0.2039
   27SAPC   H7X 3633   4.811   4.168   7.918  0.7981 -1.2091  0.9581
   27SAPC   H7Y 3634   4.773   3.995   7.885  0.4584  0.8853 -4.7818
   27SAPC   C38 3635   4.653   4.093   8.048 -0.0389  0.3939 -0.2999
   27SAPC   H8X 3636   4.728   4.073   8.128 -1.3273  0.0239  0.8422
   27SAPC   H8Y 3637   4.581   4.010   8.060 -0.9427  1.1762 -0.1627
   27SAPC   C39 3638   4.570   4.221   8.082 -0.3724 -0.4529  0.1761
   27SAPC   H9X 3639   4.499   4.222   7.996  2.7104 -4.4668 -2.8464
   27SAPC   H9Y 3640   4.631   4.314   8.081  0.8399 -1.1515  2.3233
   27SAPC  C310 3641   4.494   4.203   8.211  0.3339  0.7908 -0.0838
   27SAPC  H10X 3642   4.407   4.137   8.190  0.1818  1.9552 -3.7870
   27SAPC  H10Y 3643   4.438   4.295   8.238  0.1301  0.4394  0.7469
   27SAPC  C311 3644   4.585   4.166   8.336  0.1171  0.2332  0.2403
   27SAPC  H11X 3645   4.663   4.245   8.346 -1.7322  2.1464  0.3500
   27SAPC  H11Y 3646   4.637   4.069   8.317  1.3715  0.5633  1.7410
   27SAPC  C312 3647   4.502   4.160   8.471 -0.4125  0.7897 -0.5870
   27SAPC  H12X 3648   4.406   4.111   8.445  0.9753 -1.2246 -2.2662
   27SAPC  H12Y 3649   4.478   4.257   8.518 -1.1791  0.4870 -0.3364
   27SAPC  C313 3650   4.563   4.070   8.581  0.6641 -0.3536 -0.1555
   27SAPC  H13X 3651   4.669   4.096   8.602  0.0670  0.8723  1.6253
   27SAPC  H13Y 3652   4.575   3.968   8.539  1.8885  0.2206 -1.2818
   27SAPC  C314 3653   4.464   4.059   8.710 -0.2459  0.3782 -0.2976
   27SAPC  H14X 3654   4.373   4.007   8.675  0.8250 -0.8728 -1.3318
   27SAPC  H14Y 3655   4.448   4.164   8.742  0.8293  0.4249  0.1496
   27SAPC  C315 3656   4.527   3.985   8.826 -0.3403 -0.1155 -0.5214
   27SAPC  H15X 3657   4.614   4.037   8.872 -1.0508  1.4971 -0.9159
   27SAPC  H15Y 3658   4.567   3.889   8.786  2.1186  0.1439  1.1061
   27SAPC  C316 3659   4.429   3.954   8.929 -0.2810  0.3894 -0.2100
   27SAPC  H16X 3660   4.350   3.887   8.888 -1.4258  0.5273  1.6724
   27SAPC  H16Y 3661   4.384   4.052   8.956 -1.4534 -0.2339  0.1976
   27SAPC  C317 3662   4.492   3.880   9.055 -0.0903  0.3579 -0.8063
   27SAPC  H17X 3663   4.575   3.934   9.105 -0.1043  0.5292 -0.9669
   27SAPC  H17Y 3664   4.531   3.779   9.031 -0.2652 -0.2774  1.4211
   27SAPC  C318 3665   4.385   3.862   9.169  0.0136  0.5399 -0.2326
   27SAPC  H18X 3666   4.293   3.809   9.136  0.5390  0.2455 -1.2645
   27SAPC  H18Y 3667   4.364   3.960   9.218 -3.2463 -0.4474  0.6223
   27SAPC  H18Z 3668   4.427   3.793   9.245  0.7454  1.3521  0.1119
   28SAPC     N 3669   5.234   1.673   6.163 -0.3593 -0.2181  0.4660
   28SAPC   C12 3670   5.141   1.561   6.212  0.2582 -0.5451  0.0757
   28SAPC  H12A 3671   5.162   1.539   6.316  2.3322 -2.9144 -0.7330
   28SAPC  H12B 3672   5.152   1.460   6.178 -0.8554 -0.5131 -0.4158
   28SAPC   C13 3673   5.214   1.703   6.013 -0.3896  0.8797  0.5418
   28SAPC  H13A 3674   5.108   1.708   5.992  0.2109  0.7663 -3.1656
   28SAPC  H13B 3675   5.275   1.786   5.983  0.2522  0.7787  1.5133
   28SAPC  H13C 3676   5.242   1.612   5.960  0.0589  0.7949  0.9214
   28SAPC   C14 3677   5.206   1.802   6.233  0.4171  0.0909  0.0295
   28SAPC  H14A 3678   5.101   1.824   6.247  0.8553  1.5890  1.3675
   28SAPC  H14B 3679   5.252   1.804   6.331  0.4328 -0.0017  0.0234
   28SAPC  H14C 3680   5.247   1.881   6.171  1.2701  0.0591  0.5337
   28SAPC   C15 3681   5.378   1.634   6.180  0.1140  0.2366 -0.0091
   28SAPC  H15A 3682   5.398   1.591   6.277  1.1330  1.4076  0.3187
   28SAPC  H15B 3683   5.406   1.554   6.112 -0.4208 -0.6131  0.7485
   28SAPC  H15C 3684   5.448   1.712   6.156  1.7867 -0.2419  2.8333
   28SAPC   C11 3685   4.990   1.579   6.192  0.4112  0.0565  0.2104
   28SAPC  H11A 3686   4.934   1.489   6.228  0.6904 -0.1519  0.1244
   28SAPC  H11B 3687   4.975   1.583   6.082 -0.0273 -0.1730  0.2565
   28SAPC     P 3688   4.894   1.702   6.406 -0.6761 -0.1175  0.0137
   28SAPC   O13 3689   4.950   1.828   6.470 -0.1001  0.0833 -0.0830
   28SAPC   O14 3690   4.747   1.676   6.410 -0.4580  0.7274  0.6380
   28SAPC   O12 3691   4.936   1.704   6.251 -0.4398  0.0808  0.3237
   28SAPC   O11 3692   4.974   1.576   6.463 -0.9053  0.1699  0.2240
   28SAPC    C1 3693   4.914   1.457   6.489  0.0617  0.0692  0.3775
   28SAPC    HA 3694   4.804   1.450   6.471  0.1080  1.0126 -0.3326
   28SAPC    HB 3695   4.973   1.375   6.444  1.6316 -0.0140  2.4206
   28SAPC    C2 3696   4.949   1.408   6.641  1.0437 -0.3166  0.3000
   28SAPC    HS 3697   4.921   1.302   6.660  1.4218 -0.3136  0.9025
   28SAPC   O21 3698   4.878   1.498   6.729  0.6019 -0.1145  0.7052
   28SAPC   C21 3699   4.753   1.466   6.736  1.5473 -0.3393  0.3999
   28SAPC   O22 3700   4.691   1.383   6.674  0.3053 -0.2593 -0.2017
   28SAPC   C22 3701   4.696   1.564   6.845 -0.1716  0.1962 -0.3977
   28SAPC   H2R 3702   4.779   1.594   6.913 -1.9700  2.4819  0.9639
   28SAPC   H2S 3703   4.644   1.643   6.787 -2.2747 -1.0180 -0.2492
   28SAPC    C3 3704   5.103   1.417   6.672  0.5597 -0.1337  0.2590
   28SAPC    HX 3705   5.122   1.523   6.646 -1.4261  0.6941  1.8899
   28SAPC    HY 3706   5.164   1.343   6.615 -0.1754  0.5190 -1.4574
   28SAPC   O31 3707   5.120   1.411   6.817 -0.4700 -0.4470  0.0286
   28SAPC   C31 3708   5.249   1.435   6.844  0.4550 -0.3033 -0.2203
   28SAPC   O32 3709   5.333   1.462   6.756  0.0840  0.1362  0.2444
   28SAPC   C32 3710   5.279   1.424   6.997  0.0020  0.9863 -0.3141
   28SAPC   H2X 3711   5.236   1.325   7.021 -2.4146  1.7033 -1.3501
   28SAPC   H2Y 3712   5.230   1.502   7.059  2.3292  0.4552  2.4104
   28SAPC   C23 3713   4.601   1.496   6.949  1.0218  0.0113 -0.2754
   28SAPC   H3R 3714   4.518   1.451   6.891  1.4185  0.7369 -1.4531
   28SAPC   H3S 3715   4.551   1.577   7.005  1.1012 -0.4069  0.4195
   28SAPC   C24 3716   4.666   1.386   7.030 -0.6125 -0.4027  0.4961
   28SAPC   H4R 3717   4.683   1.298   6.964 -0.6194  1.1579 -1.7003
   28SAPC   H4S 3718   4.767   1.414   7.067 -0.5443 -1.3432  1.0776
   28SAPC   C25 3719   4.578   1.349   7.147 -0.4912  0.3625 -0.6966
   28SAPC   H5R 3720   4.492   1.285   7.126 -1.5572  0.3035  3.1242
   28SAPC   C26 3721   4.592   1.390   7.273 -0.3632  0.2314  0.2571
   28SAPC   H6R 3722   4.515   1.359   7.345 -1.3646  2.3886  0.2102
   28SAPC   C27 3723   4.698   1.481   7.331 -0.1435 -0.5870 -0.2091
   28SAPC   H7R 3724   4.791   1.424   7.310 -0.1380 -1.5869  2.2999
   28SAPC   H7S 3725   4.681   1.496   7.439  0.5562 -0.1025 -0.1640
   28SAPC   C28 3726   4.704   1.631   7.282 -0.3567 -0.1395 -0.3130
   28SAPC   H8R 3727   4.605   1.679   7.280 -1.2061 -1.7370  0.9699
   28SAPC   C29 3728   4.817   1.696   7.244  0.2542  0.6490  0.5942
   28SAPC   H9R 3729   4.799   1.800   7.213 -0.9260  0.0687 -0.7982
   28SAPC  C210 3730   4.963   1.642   7.240 -0.0626  0.2050 -0.5941
   28SAPC  H10R 3731   4.970   1.546   7.185 -1.4329 -1.2783  1.6569
   28SAPC  H10S 3732   5.006   1.614   7.339 -0.1547  0.7148 -0.4054
   28SAPC  C211 3733   5.062   1.731   7.168 -0.1801  0.0677  0.1600
   28SAPC  H11R 3734   5.031   1.791   7.081 -1.4369 -1.5925 -0.5998
   28SAPC  C212 3735   5.195   1.740   7.197  1.2458 -0.4692  0.3462
   28SAPC  H12R 3736   5.247   1.819   7.142  1.3112  0.3407  1.5200
   28SAPC  C213 3737   5.256   1.662   7.309 -0.4102  0.4290  0.1005
   28SAPC  H13R 3738   5.365   1.674   7.290 -0.6883 -0.9496 -2.8830
   28SAPC  H13S 3739   5.241   1.553   7.297  1.1472  0.2047 -0.0745
   28SAPC  C214 3740   5.234   1.707   7.451  0.2121 -0.2687  0.1341
   28SAPC  H14R 3741   5.130   1.741   7.465 -0.0149 -0.1786 -1.5649
   28SAPC  C215 3742   5.316   1.707   7.557  0.0723 -0.3227 -0.0521
   28SAPC  H15R 3743   5.283   1.755   7.651  1.0895  0.5690 -0.1239
   28SAPC  C216 3744   5.460   1.673   7.564 -0.5820  0.1582 -0.6790
   28SAPC  H16R 3745   5.517   1.747   7.504 -0.0685  1.7825  1.6360
   28SAPC  H16S 3746   5.475   1.568   7.531  2.6472  0.4211 -0.4063
   28SAPC  C217 3747   5.504   1.673   7.710  0.5558  0.0551 -0.2250
   28SAPC  H17R 3748   5.419   1.619   7.757 -2.3209  1.8799 -2.9259
   28SAPC  H17S 3749   5.513   1.779   7.740 -0.3978 -0.0410  0.4523
   28SAPC  C218 3750   5.641   1.604   7.746 -0.0779 -0.5886 -0.0084
   28SAPC  H18R 3751   5.720   1.669   7.703  1.0071 -1.1342  1.0940
   28SAPC  H18S 3752   5.661   1.503   7.705  0.1303 -0.5883  0.0891
   28SAPC  C219 3753   5.664   1.599   7.896  0.4329 -0.1425 -0.1953
   28SAPC  H19R 3754   5.661   1.698   7.946 -0.9258 -0.9385  1.3931
   28SAPC  H19S 3755   5.767   1.560   7.914 -0.0140 -1.5640 -0.5489
   28SAPC  C220 3756   5.568   1.497   7.963  0.1219  0.1202 -0.1577
   28SAPC  H20R 3757   5.597   1.483   8.070  0.6048 -2.8932 -0.6127
   28SAPC  H20S 3758   5.586   1.399   7.915  0.4198  0.6357 -1.1148
   28SAPC  H20T 3759   5.463   1.532   7.954  0.2045  0.8792  1.3472
   28SAPC   C33 3760   5.426   1.414   7.038 -0.8482 -0.4971 -0.2085
   28SAPC   H3X 3761   5.472   1.512   7.065 -0.5601 -0.0895 -2.0127
   28SAPC   H3Y 3762   5.486   1.363   6.959 -0.3455  1.8117 -1.4178
   28SAPC   C34 3763   5.442   1.341   7.175 -0.1815  0.3432  0.3106
   28SAPC   H4X 3764   5.415   1.234   7.164 -0.7495  0.6413 -1.6282
   28SAPC   H4Y 3765   5.386   1.401   7.249 -2.3390  1.7860 -2.2984
   28SAPC   C35 3766   5.588   1.335   7.213  0.0096  0.1610  0.2688
   28SAPC   H5X 3767   5.621   1.438   7.190 -1.4522  0.0726 -2.6881
   28SAPC   H5Y 3768   5.636   1.263   7.144 -2.1149 -0.5169 -0.5913
   28SAPC   C36 3769   5.610   1.285   7.363 -0.0435  0.8686  0.4030
   28SAPC   H6X 3770   5.517   1.312   7.418  0.8373 -0.8907  2.9466
   28SAPC   H6Y 3771   5.701   1.337   7.401  0.7311 -0.6067  0.6492
   28SAPC   C37 3772   5.646   1.141   7.391 -0.1151 -0.0308  0.6604
   28SAPC   H7X 3773   5.727   1.106   7.323  1.6441  0.4192  2.4282
   28SAPC   H7Y 3774   5.552   1.089   7.361 -1.2995  1.5608  1.4841
   28SAPC   C38 3775   5.680   1.111   7.539 -0.1322  0.3809 -0.2024
   28SAPC   H8X 3776   5.595   1.148   7.600  0.0326  1.4810 -0.6193
   28SAPC   H8Y 3777   5.769   1.166   7.578  0.4402 -0.9663  0.4423
   28SAPC   C39 3778   5.685   0.958   7.560 -0.7639 -0.5536  0.0350
   28SAPC   H9X 3779   5.753   0.918   7.482 -1.5201 -1.6454 -0.0923
   28SAPC   H9Y 3780   5.585   0.911   7.554 -0.4524 -1.5529  1.9283
   28SAPC  C310 3781   5.731   0.928   7.699  0.3537  0.0790 -0.3436
   28SAPC  H10X 3782   5.821   0.990   7.722  0.1829 -0.3250  1.5582
   28SAPC  H10Y 3783   5.751   0.819   7.711 -0.8245 -0.0169  0.9426
   28SAPC  C311 3784   5.627   0.956   7.811  0.2317 -0.1181  1.1569
   28SAPC  H11X 3785   5.532   0.908   7.783  1.3784 -2.8602  1.6548
   28SAPC  H11Y 3786   5.617   1.067   7.815 -0.1833 -0.1527  1.0903
   28SAPC  C312 3787   5.654   0.900   7.949 -0.4334  0.5416 -0.3274
   28SAPC  H12X 3788   5.752   0.930   7.992 -0.3397 -0.6819  0.3840
   28SAPC  H12Y 3789   5.664   0.789   7.942 -0.2197  0.6189 -1.2919
   28SAPC  C313 3790   5.548   0.944   8.056 -1.2892 -0.1369 -0.8742
   28SAPC  H13X 3791   5.450   0.955   8.004 -0.7319  1.2036 -1.6820
   28SAPC  H13Y 3792   5.569   1.047   8.091  0.0543 -0.8896  0.7173
   28SAPC  C314 3793   5.543   0.856   8.182 -0.2142 -0.5826 -0.2267
   28SAPC  H14X 3794   5.644   0.844   8.224 -0.1830 -0.8259 -0.3712
   28SAPC  H14Y 3795   5.509   0.752   8.160 -1.3228 -0.0726 -1.0645
   28SAPC  C315 3796   5.473   0.917   8.300  0.2855  0.0428 -0.2377
   28SAPC  H15X 3797   5.366   0.937   8.277  1.1026  3.8832 -1.5424
   28SAPC  H15Y 3798   5.515   1.014   8.336  0.6413 -0.2271  0.0742
   28SAPC  C316 3799   5.477   0.824   8.413  0.1936 -0.8410 -0.3829
   28SAPC  H16X 3800   5.577   0.815   8.459  0.1599 -1.8199 -0.4837
   28SAPC  H16Y 3801   5.462   0.722   8.370  1.3016 -1.3410  0.3896
   28SAPC  C317 3802   5.374   0.870   8.520  0.1350  0.6682 -0.1085
   28SAPC  H17X 3803   5.280   0.879   8.462 -0.5412 -2.2135  0.3983
   28SAPC  H17Y 3804   5.408   0.969   8.559  0.5015  1.1697 -1.6254
   28SAPC  C318 3805   5.366   0.775   8.632  0.0281 -0.1790 -0.1540
   28SAPC  H18X 3806   5.460   0.776   8.691  0.4499 -0.9406 -0.7966
   28SAPC  H18Y 3807   5.365   0.672   8.591  1.7369  0.6877 -2.5502
   28SAPC  H18Z 3808   5.274   0.790   8.693 -1.3077 -2.8692 -1.3268
   29SAPC     N 3809   6.796   5.652   6.282  0.1901 -0.4452  0.4333
   29SAPC   C12 3810   6.783   5.503   6.310  0.3825  0.8805 -0.3734
   29SAPC  H12A 3811   6.725   5.465   6.227 -0.6302 -0.7764  1.0220
   29SAPC  H12B 3812   6.733   5.490   6.405  0.7950  0.7587 -0.1730
   29SAPC   C13 3813   6.879   5.669   6.157  0.5888  0.0775 -0.3517
   29SAPC  H13A 3814   6.818   5.648   6.070 -0.0955  0.6457 -0.0200
   29SAPC  H13B 3815   6.905   5.773   6.145 -0.7062  0.4687  0.0365
   29SAPC  H13C 3816   6.967   5.606   6.151  0.3000 -0.2231 -1.9208
   29SAPC   C14 3817   6.669   5.725   6.268 -0.1042  0.4401 -0.0730
   29SAPC  H14A 3818   6.686   5.832   6.263 -0.9174  0.5319 -3.0023
   29SAPC  H14B 3819   6.627   5.707   6.170 -1.9248  2.1082  0.3253
   29SAPC  H14C 3820   6.601   5.709   6.350 -1.9834 -2.3109 -2.0040
   29SAPC   C15 3821   6.867   5.708   6.396 -0.0329  0.1619 -0.4676
   29SAPC  H15A 3822   6.962   5.659   6.415 -0.9139 -1.7235 -0.6396
   29SAPC  H15B 3823   6.868   5.814   6.378  1.3215  0.0137 -1.4518
   29SAPC  H15C 3824   6.811   5.692   6.486  0.8438 -1.6326 -0.1762
   29SAPC   C11 3825   6.909   5.413   6.317  0.0176 -0.2632 -0.4862
   29SAPC  H11A 3826   6.973   5.447   6.401 -0.6231 -2.2045  0.8544
   29SAPC  H11B 3827   6.977   5.432   6.231  1.9816  1.8813  1.3863
   29SAPC     P 3828   6.815   5.208   6.465  0.0780  0.1339 -0.1210
   29SAPC   O13 3829   6.697   5.281   6.512 -0.0010  0.0434 -0.4323
   29SAPC   O14 3830   6.790   5.071   6.421 -0.3415 -0.6890  0.5332
   29SAPC   O12 3831   6.873   5.276   6.336 -0.4666 -0.2867  0.2193
   29SAPC   O11 3832   6.920   5.220   6.579  0.2496 -0.1227 -0.3718
   29SAPC    C1 3833   7.051   5.173   6.572  0.0384  0.3182 -0.3990
   29SAPC    HA 3834   7.055   5.062   6.568 -2.0128  0.1369  1.2458
   29SAPC    HB 3835   7.108   5.219   6.488 -0.1910  1.0553 -0.1581
   29SAPC    C2 3836   7.128   5.219   6.705  0.0825  0.5447  0.2492
   29SAPC    HS 3837   7.226   5.166   6.698 -1.5417 -2.9524  1.5895
   29SAPC   O21 3838   7.062   5.181   6.832  0.2720  0.8245  0.6734
   29SAPC   C21 3839   7.098   5.066   6.874  0.0362  0.1498 -0.0376
   29SAPC   O22 3840   7.157   4.978   6.809 -0.2573 -0.7221  0.0499
   29SAPC   C22 3841   7.040   5.048   7.015  0.2214  0.9035 -1.4760
   29SAPC   H2R 3842   6.992   5.145   7.037 -1.1978 -0.0333 -0.2640
   29SAPC   H2S 3843   6.963   4.968   7.017  0.5104  0.6325 -0.3741
   29SAPC    C3 3844   7.140   5.379   6.719  0.0190 -0.6624 -0.1162
   29SAPC    HX 3845   7.035   5.397   6.751 -0.5836 -2.7346 -0.7264
   29SAPC    HY 3846   7.157   5.420   6.617  2.1742 -0.1314  0.4021
   29SAPC   O31 3847   7.232   5.416   6.827 -0.0072 -0.1480  0.2446
   29SAPC   C31 3848   7.350   5.469   6.789  0.1863 -0.0732  0.3341
   29SAPC   O32 3849   7.390   5.463   6.674  0.6644  1.2039  0.3057
   29SAPC   C32 3850   7.425   5.533   6.910  0.0435  0.0710 -0.5383
   29SAPC   H2X 3851   7.413   5.643   6.913 -1.1009 -0.0399  2.1439
   29SAPC   H2Y 3852   7.528   5.494   6.897 -0.0640 -0.4604  0.1317
   29SAPC   C23 3853   7.156   5.012   7.114  0.6028 -0.8843  0.3184
   29SAPC   H3R 3854   7.202   5.110   7.139 -1.5751  0.5962 -1.0521
   29SAPC   H3S 3855   7.242   4.956   7.071  0.3888 -0.5859 -0.5177
   29SAPC   C24 3856   7.100   4.939   7.244 -0.2039  0.3418 -0.7686
   29SAPC   H4R 3857   7.047   4.844   7.221  0.2342 -0.2869  0.7592
   29SAPC   H4S 3858   7.026   5.006   7.294  1.7322  1.3430  0.8551
   29SAPC   C25 3859   7.209   4.901   7.337 -0.9545 -0.8520  0.4076
   29SAPC   H5R 3860   7.300   4.879   7.279 -0.0262  0.2544  1.3814
   29SAPC   C26 3861   7.210   4.911   7.465 -0.5109 -0.3516  1.0012
   29SAPC   H6R 3862   7.291   4.859   7.519 -1.2706 -1.5459  1.0530
   29SAPC   C27 3863   7.094   4.946   7.553  0.0988  0.1758 -0.5224
   29SAPC   H7R 3864   7.047   5.033   7.503 -3.1172 -1.8695 -1.3344
   29SAPC   H7S 3865   7.146   4.984   7.644  0.1303  0.4151 -0.6391
   29SAPC   C28 3866   6.997   4.830   7.584 -0.2087 -0.6111  0.1841
   29SAPC   H8R 3867   6.953   4.781   7.496  0.2291  1.4484 -1.2349
   29SAPC   C29 3868   6.977   4.778   7.710 -0.5138  0.6204  0.4369
   29SAPC   H9R 3869   6.903   4.696   7.715 -0.6709  0.7325  0.0027
   29SAPC  C210 3870   7.034   4.816   7.837 -0.4436 -0.0730 -0.4657
   29SAPC  H10R 3871   7.124   4.879   7.825 -0.0159 -0.9397 -2.1291
   29SAPC  H10S 3872   7.075   4.721   7.878 -0.5801 -1.0982 -2.5608
   29SAPC  C211 3873   6.927   4.888   7.917  0.4319  0.0209 -0.0311
   29SAPC  H11R 3874   6.858   4.958   7.867 -0.3698 -1.1988 -0.7000
   29SAPC  C212 3875   6.934   4.900   8.052 -0.1539 -0.2221 -0.3009
   29SAPC  H12R 3876   6.856   4.955   8.106  1.7550  1.2536  1.0789
   29SAPC  C213 3877   7.037   4.830   8.138 -0.2535  0.0755 -0.4084
   29SAPC  H13R 3878   7.068   4.905   8.214  0.0504  1.1967 -1.5840
   29SAPC  H13S 3879   7.131   4.812   8.081 -0.5556 -3.2084 -0.0165
   29SAPC  C214 3880   7.001   4.693   8.187 -0.5695  0.4023 -0.4099
   29SAPC  H14R 3881   6.975   4.626   8.104  0.0036  0.0240 -0.2889
   29SAPC  C215 3882   7.003   4.646   8.318  0.1474  0.0395 -0.1013
   29SAPC  H15R 3883   6.994   4.539   8.340 -3.0420 -0.3438 -2.5931
   29SAPC  C216 3884   7.045   4.721   8.440  0.2531 -0.2765  0.0928
   29SAPC  H16R 3885   7.002   4.679   8.533  1.8139  1.4535  1.6655
   29SAPC  H16S 3886   7.021   4.829   8.440 -0.7117 -0.4710 -0.6468
   29SAPC  C217 3887   7.199   4.721   8.448 -0.0914  0.1460  0.7521
   29SAPC  H17R 3888   7.238   4.798   8.378  0.4212  0.7577  1.6911
   29SAPC  H17S 3889   7.242   4.621   8.426 -2.0403 -0.5945  0.1136
   29SAPC  C218 3890   7.250   4.774   8.584  1.1081  0.0120  0.2801
   29SAPC  H18R 3891   7.211   4.710   8.666 -2.1615  0.8809 -0.4504
   29SAPC  H18S 3892   7.206   4.876   8.594 -1.7366 -0.9749 -1.0388
   29SAPC  C219 3893   7.397   4.780   8.598 -1.1676 -0.6043  0.2793
   29SAPC  H19R 3894   7.434   4.818   8.501 -0.6796  0.5361  0.9010
   29SAPC  H19S 3895   7.446   4.685   8.630  0.5293  0.0881 -0.1882
   29SAPC  C220 3896   7.436   4.882   8.705  0.2083  1.5035 -0.1877
   29SAPC  H20R 3897   7.546   4.879   8.717  0.3293  1.3187 -1.2662
   29SAPC  H20S 3898   7.390   4.862   8.804  0.2492  1.0691 -0.2533
   29SAPC  H20T 3899   7.412   4.983   8.666  0.2492  0.7745 -2.2158
   29SAPC   C33 3900   7.370   5.488   7.047 -0.2074  0.2147 -0.6658
   29SAPC   H3X 3901   7.365   5.379   7.064  0.9156  0.4293  1.4445
   29SAPC   H3Y 3902   7.268   5.527   7.066  0.4407  2.9484 -2.1895
   29SAPC   C34 3903   7.460   5.528   7.169 -0.3216 -0.2333 -0.0381
   29SAPC   H4X 3904   7.497   5.632   7.155 -2.2676  0.2846 -1.7781
   29SAPC   H4Y 3905   7.543   5.457   7.191  1.3691  1.9771  1.0383
   29SAPC   C35 3906   7.386   5.551   7.298  0.3053 -0.2586 -0.5313
   29SAPC   H5X 3907   7.289   5.605   7.290 -2.2491 -3.7029  2.8695
   29SAPC   H5Y 3908   7.444   5.618   7.366 -1.1355 -0.5857  1.0991
   29SAPC   C36 3909   7.349   5.425   7.379  0.0937 -0.1993  0.7364
   29SAPC   H6X 3910   7.436   5.356   7.383 -0.7369 -1.2567  1.1161
   29SAPC   H6Y 3911   7.266   5.376   7.325 -0.2498 -1.3018  2.2041
   29SAPC   C37 3912   7.318   5.461   7.527 -0.0918 -0.1531 -0.5624
   29SAPC   H7X 3913   7.263   5.557   7.537 -0.3813 -0.5107  1.8252
   29SAPC   H7Y 3914   7.405   5.462   7.596  1.0760 -0.1023 -2.0024
   29SAPC   C38 3915   7.230   5.347   7.586  0.8353 -0.0762 -0.7048
   29SAPC   H8X 3916   7.273   5.251   7.552  1.4711  0.5278 -1.6480
   29SAPC   H8Y 3917   7.123   5.355   7.556  0.3834  1.8150  1.1503
   29SAPC   C39 3918   7.231   5.340   7.736  0.5410  0.1144  0.1286
   29SAPC   H9X 3919   7.223   5.445   7.772 -4.1380  0.0338 -0.0588
   29SAPC   H9Y 3920   7.325   5.298   7.778  0.4929 -0.9627 -0.8095
   29SAPC  C310 3921   7.122   5.253   7.798 -0.1355 -0.1140  0.0344
   29SAPC  H10X 3922   7.140   5.145   7.783 -1.4200 -0.6870  2.1758
   29SAPC  H10Y 3923   7.032   5.291   7.745 -0.6178 -0.8591  0.3099
   29SAPC  C311 3924   7.099   5.274   7.949 -0.4908 -0.6740 -1.2716
   29SAPC  H11X 3925   7.004   5.225   7.980 -0.5120 -0.1049 -0.4177
   29SAPC  H11Y 3926   7.086   5.384   7.961 -0.7825 -0.8430  0.1105
   29SAPC  C312 3927   7.212   5.225   8.035 -0.1622 -0.4283  0.7733
   29SAPC  H12X 3928   7.306   5.263   7.990 -0.9177  0.5632 -0.0269
   29SAPC  H12Y 3929   7.211   5.114   8.032 -1.7312 -0.5149  2.6086
   29SAPC  C313 3930   7.194   5.276   8.176  0.3058 -0.1834  0.0286
   29SAPC  H13X 3931   7.099   5.235   8.216 -0.3184  0.2633 -0.9681
   29SAPC  H13Y 3932   7.193   5.387   8.188  1.8106 -0.2308  0.8656
   29SAPC  C314 3933   7.295   5.219   8.277 -0.2141  0.8663  0.4416
   29SAPC  H14X 3934   7.394   5.263   8.253  0.7759 -0.6641  1.4785
   29SAPC  H14Y 3935   7.301   5.112   8.247  0.8216  1.4467 -1.5859
   29SAPC  C315 3936   7.276   5.237   8.434  0.0921  0.5307  0.6093
   29SAPC  H15X 3937   7.343   5.161   8.480  0.5675 -0.9817 -2.2637
   29SAPC  H15Y 3938   7.173   5.207   8.461 -0.0634  0.0969 -0.3833
   29SAPC  C316 3939   7.298   5.383   8.488 -0.3089 -0.1138  0.3486
   29SAPC  H16X 3940   7.211   5.438   8.529  1.2108  2.0225  0.9030
   29SAPC  H16Y 3941   7.345   5.441   8.406 -1.0296  0.1869  0.1387
   29SAPC  C317 3942   7.399   5.395   8.610  0.5393  0.6224  0.0346
   29SAPC  H17X 3943   7.497   5.377   8.560 -0.0593 -2.0635 -0.3133
   29SAPC  H17Y 3944   7.379   5.317   8.687 -3.5541  1.2496 -0.2166
   29SAPC  C318 3945   7.390   5.534   8.681  0.2031  0.7719  0.1057
   29SAPC  H18X 3946   7.291   5.520   8.731  0.7857 -1.4472  0.7524
   29SAPC  H18Y 3947   7.398   5.607   8.598  0.1846  1.4632  0.7009
   29SAPC  H18Z 3948   7.468   5.540   8.760  1.9660 -2.2627 -1.2535
   30SAPC     N 3949   0.983   5.916   6.135  0.4231 -0.1368 -0.3179
   30SAPC   C12 3950   0.990   5.765   6.161  0.8432 -0.2591  0.3904
   30SAPC  H12A 3951   0.891   5.726   6.179  1.0474 -0.3533  1.3528
   30SAPC  H12B 3952   1.053   5.742   6.245  0.5326 -0.6939  0.5039
   30SAPC   C13 3953   1.117   5.982   6.121  0.0657 -0.1139 -0.1113
   30SAPC  H13A 3954   1.174   5.918   6.054 -1.4824  0.0399 -1.6463
   30SAPC  H13B 3955   1.103   6.078   6.074  2.9996  0.1713 -0.6107
   30SAPC  H13C 3956   1.161   6.005   6.217 -4.1619  2.1257  1.5423
   30SAPC   C14 3957   0.918   5.941   6.004  0.5560  0.0115 -0.0175
   30SAPC  H14A 3958   0.917   6.041   5.964  2.2677  0.0213 -0.1108
   30SAPC  H14B 3959   0.970   5.893   5.922  2.7820  1.6280  0.3950
   30SAPC  H14C 3960   0.813   5.912   6.008  0.8478 -1.5545 -1.9384
   30SAPC   C15 3961   0.908   5.990   6.247  0.0374  0.3430  0.5772
   30SAPC  H15A 3962   0.953   5.984   6.345  0.5019 -1.4285  0.2759
   30SAPC  H15B 3963   0.890   6.094   6.221  0.2380  0.1226 -0.4931
   30SAPC  H15C 3964   0.813   5.940   6.250  0.1299  0.0585 -0.5924
   30SAPC   C11 3965   1.052   5.679   6.048  0.3745  0.4788  0.5826
   30SAPC  H11A 3966   1.000   5.710   5.955  0.2413 -2.2391 -0.3421
   30SAPC  H11B 3967   1.025   5.572   6.062  1.2182  0.1529 -0.1952
   30SAPC     P 3968   1.289   5.612   6.124  0.4227  0.4558 -0.1768
   30SAPC   O13 3969   1.219   5.487   6.157 -0.0282  0.3534 -0.2095
   30SAPC   O14 3970   1.432   5.605   6.082  0.4197  0.2535 -0.0499
   30SAPC   O12 3971   1.195   5.702   6.039  0.1385 -0.3118  0.1423
   30SAPC   O11 3972   1.278   5.686   6.254 -0.1989 -0.7025 -0.6417
   30SAPC    C1 3973   1.362   5.793   6.302  0.8538  0.2909 -0.2839
   30SAPC    HA 3974   1.394   5.858   6.218 -0.7587  2.4472  0.6975
   30SAPC    HB 3975   1.293   5.858   6.360 -2.1270 -2.4729 -0.4134
   30SAPC    C2 3976   1.483   5.748   6.391 -0.0383 -0.0936 -0.7592
   30SAPC    HS 3977   1.569   5.727   6.324 -0.0328  0.9520 -1.1017
   30SAPC   O21 3978   1.446   5.640   6.475  0.6052 -0.4694  0.1266
   30SAPC   C21 3979   1.554   5.573   6.518  0.2561 -0.1088 -1.0587
   30SAPC   O22 3980   1.668   5.597   6.480 -0.0202 -0.1836  0.2051
   30SAPC   C22 3981   1.503   5.482   6.631 -0.6007 -0.5218 -0.2461
   30SAPC   H2R 3982   1.401   5.501   6.669 -1.1490 -0.9195 -1.4426
   30SAPC   H2S 3983   1.502   5.376   6.597 -2.5942  0.8877 -5.6035
   30SAPC    C3 3984   1.536   5.869   6.480  0.0739 -0.1770 -0.4303
   30SAPC    HX 3985   1.548   5.958   6.413 -0.4431  0.4354  0.2830
   30SAPC    HY 3986   1.634   5.840   6.523  0.1351  1.2739  0.4984
   30SAPC   O31 3987   1.440   5.900   6.578 -0.0262  0.5478  0.6180
   30SAPC   C31 3988   1.471   6.006   6.651  0.1195 -0.1445 -0.8553
   30SAPC   O32 3989   1.578   6.062   6.654 -0.2855  0.3275 -0.4150
   30SAPC   C32 3990   1.354   6.053   6.744  0.1519 -0.3133  0.6237
   30SAPC   H2X 3991   1.324   5.961   6.799  0.9646  0.3169  2.1890
   30SAPC   H2Y 3992   1.268   6.089   6.684  1.2016  0.0195 -0.7345
   30SAPC   C23 3993   1.588   5.501   6.757 -0.3090 -0.5957 -0.6236
   30SAPC   H3R 3994   1.692   5.475   6.730 -0.0919 -1.4671  0.9539
   30SAPC   H3S 3995   1.548   5.438   6.838  0.1695  1.7719  1.5758
   30SAPC   C24 3996   1.607   5.646   6.800 -0.1619 -0.3396 -0.3532
   30SAPC   H4R 3997   1.657   5.697   6.715 -1.5473 -0.1037 -1.0558
   30SAPC   H4S 3998   1.681   5.654   6.882 -0.4622 -2.2112  0.1502
   30SAPC   C25 3999   1.476   5.702   6.844  1.0297 -0.8231  0.3418
   30SAPC   H5R 4000   1.425   5.760   6.765  1.3512 -1.4355 -0.3296
   30SAPC   C26 4001   1.412   5.686   6.959 -0.6203  0.6077  0.6397
   30SAPC   H6R 4002   1.319   5.740   6.981 -1.8232 -1.4377  0.8142
   30SAPC   C27 4003   1.475   5.613   7.072  0.2317  0.6651 -0.3600
   30SAPC   H7R 4004   1.531   5.523   7.039  0.3936  1.2493 -1.7594
   30SAPC   H7S 4005   1.388   5.576   7.131  0.0736  4.8646  2.4409
   30SAPC   C28 4006   1.566   5.701   7.152 -0.1135  0.0676 -0.2398
   30SAPC   H8R 4007   1.647   5.754   7.100  1.0859 -1.3963  0.0675
   30SAPC   C29 4008   1.568   5.725   7.288  0.0610  0.0972  0.3886
   30SAPC   H9R 4009   1.643   5.792   7.332  0.6965 -1.0018  1.0412
   30SAPC  C210 4010   1.469   5.667   7.392 -0.2451  0.0416 -0.8463
   30SAPC  H10R 4011   1.391   5.607   7.339 -1.4181  1.2545 -0.5305
   30SAPC  H10S 4012   1.411   5.737   7.455  0.2462 -2.0667  2.1984
   30SAPC  C211 4013   1.537   5.573   7.490 -0.5159 -1.0199  0.4353
   30SAPC  H11R 4014   1.581   5.481   7.449 -1.3293 -1.2724  0.1017
   30SAPC  C212 4015   1.545   5.584   7.620  0.1851  0.2695 -0.0785
   30SAPC  H12R 4016   1.596   5.513   7.686 -1.3450 -0.2474  0.5871
   30SAPC  C213 4017   1.477   5.695   7.696 -0.4838 -1.0468  0.0372
   30SAPC  H13R 4018   1.447   5.658   7.796 -2.7217  1.4881  0.4033
   30SAPC  H13S 4019   1.377   5.713   7.652  0.5718  0.0881 -2.0755
   30SAPC  C214 4020   1.546   5.830   7.706  0.5704  0.5599  0.2898
   30SAPC  H14R 4021   1.582   5.872   7.611 -1.0775  0.6002 -0.3575
   30SAPC  C215 4022   1.561   5.900   7.813 -0.1629 -0.4072  0.7940
   30SAPC  H15R 4023   1.604   5.999   7.792 -0.3973 -0.6613 -1.0427
   30SAPC  C216 4024   1.524   5.870   7.957  0.5327 -0.0549 -0.2215
   30SAPC  H16R 4025   1.499   5.762   7.969 -0.2799  0.0946 -0.5124
   30SAPC  H16S 4026   1.436   5.930   7.987  0.9655 -0.6661  2.5573
   30SAPC  C217 4027   1.636   5.906   8.048 -0.4849 -0.5482 -0.4061
   30SAPC  H17R 4028   1.668   6.011   8.029  1.1346 -1.0299 -0.4789
   30SAPC  H17S 4029   1.727   5.843   8.037 -0.8204 -1.4572  1.6133
   30SAPC  C218 4030   1.578   5.887   8.188  0.1541  0.0497  0.3850
   30SAPC  H18R 4031   1.539   5.783   8.191  0.8033 -0.2551 -0.9877
   30SAPC  H18S 4032   1.481   5.941   8.192  0.3753  0.5788 -1.0039
   30SAPC  C219 4033   1.670   5.925   8.303 -0.7719 -0.0772  0.6447
   30SAPC  H19R 4034   1.681   6.035   8.296 -1.3871 -0.1300 -1.5199
   30SAPC  H19S 4035   1.770   5.875   8.298 -0.0158  1.3950  0.4432
   30SAPC  C220 4036   1.612   5.904   8.445 -0.3775 -0.0801  0.4130
   30SAPC  H20R 4037   1.668   5.974   8.510 -0.3766 -0.4856  0.8546
   30SAPC  H20S 4038   1.633   5.800   8.478 -0.7048 -0.7068 -1.2202
   30SAPC  H20T 4039   1.502   5.916   8.455 -0.2783  0.6958  0.6281
   30SAPC   C33 4040   1.388   6.143   6.862  0.9160 -0.4757 -0.0699
   30SAPC   H3X 4041   1.305   6.216   6.874  1.1928  0.1748 -1.9292
   30SAPC   H3Y 4042   1.470   6.205   6.823  0.4740  0.8573  1.0194
   30SAPC   C34 4043   1.423   6.060   6.989  0.7931 -0.0959  0.6596
   30SAPC   H4X 4044   1.515   6.001   6.968  0.7199 -0.2538  0.7778
   30SAPC   H4Y 4045   1.338   5.994   7.016 -0.3823 -0.0119 -2.5222
   30SAPC   C35 4046   1.451   6.147   7.114 -0.1353 -0.0020 -0.9094
   30SAPC   H5X 4047   1.361   6.209   7.134  0.8363  0.5664  2.1583
   30SAPC   H5Y 4048   1.526   6.223   7.084  0.6363 -1.3843 -2.7021
   30SAPC   C36 4049   1.497   6.068   7.235  0.0458  0.1390  0.6222
   30SAPC   H6X 4050   1.603   6.043   7.213 -0.1772 -2.1882  1.7906
   30SAPC   H6Y 4051   1.455   5.965   7.236  1.6992 -0.5856 -0.3927
   30SAPC   C37 4052   1.461   6.144   7.363  1.1171  0.5725 -0.0839
   30SAPC   H7X 4053   1.477   6.079   7.452 -0.0168 -2.2959 -1.8221
   30SAPC   H7Y 4054   1.355   6.176   7.360  0.8312 -0.2831  0.3884
   30SAPC   C38 4055   1.542   6.273   7.390 -0.3813 -0.0384  0.8390
   30SAPC   H8X 4056   1.522   6.339   7.303  0.3370  0.5837  1.1365
   30SAPC   H8Y 4057   1.649   6.243   7.388 -0.0631  1.0777  0.2370
   30SAPC   C39 4058   1.528   6.342   7.524 -0.3295  0.4033 -0.6277
   30SAPC   H9X 4059   1.434   6.401   7.523 -0.9565 -0.5622 -1.9533
   30SAPC   H9Y 4060   1.616   6.409   7.535  1.3785 -2.0562  2.1952
   30SAPC  C310 4061   1.541   6.257   7.649  0.7172 -0.1271  0.2891
   30SAPC  H10X 4062   1.635   6.198   7.643  0.2740 -1.3057  3.2646
   30SAPC  H10Y 4063   1.455   6.186   7.653 -1.7560  2.5959 -0.8004
   30SAPC  C311 4064   1.554   6.340   7.781  0.4093 -0.4059  0.3833
   30SAPC  H11X 4065   1.477   6.421   7.781 -0.0946 -0.8574 -0.9833
   30SAPC  H11Y 4066   1.650   6.395   7.780  0.6475 -0.8193  0.2399
   30SAPC  C312 4067   1.550   6.253   7.896 -0.4623  0.4511 -0.7190
   30SAPC  H12X 4068   1.619   6.167   7.880  0.3389  0.8510  0.4525
   30SAPC  H12Y 4069   1.454   6.196   7.898  0.2498 -0.8296  1.6839
   30SAPC  C313 4070   1.577   6.305   8.035 -0.2937  0.1506  0.2993
   30SAPC  H13X 4071   1.658   6.382   8.030 -1.2233  1.1662  0.6214
   30SAPC  H13Y 4072   1.602   6.228   8.110  0.1125  0.1987  0.2194
   30SAPC  C314 4073   1.458   6.386   8.078 -0.1693  0.7656  0.6610
   30SAPC  H14X 4074   1.377   6.318   8.113  0.1477  0.5556  0.9937
   30SAPC  H14Y 4075   1.414   6.448   7.997  0.2476 -0.3351 -0.4351
   30SAPC  C315 4076   1.480   6.487   8.191 -0.0120 -0.5017  0.8183
   30SAPC  H15X 4077   1.388   6.547   8.204  0.7322  0.6896  0.7023
   30SAPC  H15Y 4078   1.557   6.555   8.148 -0.2995 -0.0228  1.0561
   30SAPC  C316 4079   1.534   6.434   8.323 -0.0996  0.3001  0.2270
   30SAPC  H16X 4080   1.643   6.413   8.313  0.5631  1.6241  3.4885
   30SAPC  H16Y 4081   1.480   6.342   8.354  1.5459 -1.1093 -0.8084
   30SAPC  C317 4082   1.513   6.532   8.435  0.3032  0.0299 -0.8290
   30SAPC  H17X 4083   1.403   6.545   8.438  0.1349 -0.9052 -2.1083
   30SAPC  H17Y 4084   1.544   6.636   8.412 -2.1566  1.4570  1.6814
   30SAPC  C318 4085   1.551   6.480   8.571  0.8822  0.4111 -0.1252
   30SAPC  H18X 4086   1.522   6.551   8.652  0.8763 -0.6453  0.8262
   30SAPC  H18Y 4087   1.662   6.475   8.576  1.0999 -1.5484 -3.6863
   30SAPC  H18Z 4088   1.506   6.381   8.592  1.0380  0.3862  0.0983
   31SAPC     N 4089   3.130   6.566   6.098  0.3953  0.2353 -0.5506
   31SAPC   C12 4090   3.143   6.422   6.150  0.1558 -0.8012  0.3754
   31SAPC  H12A 4091   3.244   6.386   6.138  0.6787  0.5910  0.4451
   31SAPC  H12B 4092   3.093   6.356   6.081 -0.6382  1.1076 -0.9576
   31SAPC   C13 4093   2.981   6.619   6.087 -0.0075  0.0844 -0.2364
   31SAPC  H13A 4094   2.981   6.724   6.062  0.5690 -0.1379 -1.2280
   31SAPC  H13B 4095   2.941   6.567   6.001 -0.1372 -1.4069  0.6924
   31SAPC  H13C 4096   2.930   6.591   6.178  0.9085  1.8894  0.8899
   31SAPC   C14 4097   3.217   6.653   6.185 -0.4968 -0.1741  0.2166
   31SAPC  H14A 4098   3.316   6.612   6.176  0.8766  2.5733  1.3687
   31SAPC  H14B 4099   3.219   6.756   6.151  1.8645  0.5912  2.3631
   31SAPC  H14C 4100   3.192   6.665   6.290 -3.8457  0.2722 -0.5124
   31SAPC   C15 4101   3.184   6.574   5.957  0.3586 -0.5652  0.2217
   31SAPC  H15A 4102   3.136   6.504   5.890 -1.8165 -2.0449  3.0992
   31SAPC  H15B 4103   3.161   6.669   5.912  0.6356 -0.4068  0.4113
   31SAPC  H15C 4104   3.290   6.555   5.950  0.8418  1.5208  1.1532
   31SAPC   C11 4105   3.091   6.400   6.290  0.8284  0.0426  0.2532
   31SAPC  H11A 4106   2.981   6.409   6.289  0.6451 -1.7359 -1.6346
   31SAPC  H11B 4107   3.136   6.476   6.358 -0.6948  0.3373  0.9601
   31SAPC     P 4108   3.022   6.147   6.311 -0.5117 -0.5790 -0.0813
   31SAPC   O13 4109   2.925   6.178   6.203  0.2057 -0.5226 -0.0232
   31SAPC   O14 4110   3.098   6.022   6.308  0.5541 -0.4117 -0.4754
   31SAPC   O12 4111   3.129   6.268   6.326 -0.2666 -0.8677  0.5148
   31SAPC   O11 4112   2.939   6.158   6.449  0.1635 -0.2934 -0.0799
   31SAPC    C1 4113   2.991   6.219   6.568 -0.4575 -0.2394 -0.0877
   31SAPC    HA 4114   3.013   6.326   6.549  0.0004 -0.3277 -0.0616
   31SAPC    HB 4115   2.912   6.214   6.646  0.4635  1.5287  0.9967
   31SAPC    C2 4116   3.128   6.150   6.608 -0.8038  0.7004  0.5258
   31SAPC    HS 4117   3.198   6.148   6.522  0.1659 -0.8008  1.3173
   31SAPC   O21 4118   3.096   6.017   6.662 -0.6031 -0.2657  0.0398
   31SAPC   C21 4119   3.203   5.937   6.677 -0.5448  0.2965  0.6166
   31SAPC   O22 4120   3.317   5.973   6.647 -0.0096  0.3570 -0.3680
   31SAPC   C22 4121   3.164   5.797   6.709 -0.7022  0.0990 -0.1815
   31SAPC   H2R 4122   3.074   5.799   6.774  1.2450  2.7606  2.7734
   31SAPC   H2S 4123   3.141   5.744   6.614 -0.0742 -0.6032  0.0479
   31SAPC    C3 4124   3.201   6.239   6.722  0.2829  0.7763 -0.1485
   31SAPC    HX 4125   3.221   6.336   6.673  2.3962 -0.0280 -0.9817
   31SAPC    HY 4126   3.301   6.197   6.744  1.1097  2.0324 -1.3675
   31SAPC   O31 4127   3.117   6.262   6.836  0.6316  0.5317  0.3873
   31SAPC   C31 4128   3.126   6.177   6.937 -0.3789  0.0193 -0.2094
   31SAPC   O32 4129   3.212   6.096   6.955  0.2957 -0.2423  0.1873
   31SAPC   C32 4130   3.005   6.202   7.029  0.8932  0.2264 -0.3892
   31SAPC   H2X 4131   2.929   6.268   6.982 -0.2137  0.9339  2.1953
   31SAPC   H2Y 4132   3.044   6.258   7.117 -1.0777 -0.5815  1.1078
   31SAPC   C23 4133   3.280   5.725   6.769 -0.1821  0.8622 -0.6470
   31SAPC   H3R 4134   3.372   5.734   6.707  0.1333 -0.8498 -0.4708
   31SAPC   H3S 4135   3.240   5.622   6.774 -0.9445  1.1062 -1.3123
   31SAPC   C24 4136   3.306   5.762   6.911  0.3568 -0.0886  0.1057
   31SAPC   H4R 4137   3.211   5.749   6.968 -0.7143 -0.8494 -1.7491
   31SAPC   H4S 4138   3.319   5.872   6.917  0.3508 -0.1434  1.3535
   31SAPC   C25 4139   3.418   5.690   6.974 -0.6964 -0.3949 -0.9121
   31SAPC   H5R 4140   3.481   5.644   6.896  0.0519 -0.6476 -0.1773
   31SAPC   C26 4141   3.452   5.692   7.106 -0.2440  0.4176 -0.5927
   31SAPC   H6R 4142   3.543   5.639   7.141 -1.0650 -0.9279 -0.4205
   31SAPC   C27 4143   3.371   5.773   7.208  0.2638  0.3892  0.1188
   31SAPC   H7R 4144   3.341   5.711   7.295  1.5930 -2.0172 -1.0459
   31SAPC   H7S 4145   3.277   5.813   7.165 -1.0895 -0.3611  2.2498
   31SAPC   C28 4146   3.434   5.890   7.272 -0.2648  0.1526  0.1203
   31SAPC   H8R 4147   3.539   5.910   7.247  0.0556 -2.5169 -1.0120
   31SAPC   C29 4148   3.368   5.975   7.355 -0.0848 -0.0364 -0.3160
   31SAPC   H9R 4149   3.429   6.059   7.394 -0.2839  0.5742 -1.2831
   31SAPC  C210 4150   3.222   5.986   7.392 -0.0897  1.1622  0.0607
   31SAPC  H10R 4151   3.212   5.917   7.478  2.4047 -0.1649 -0.6298
   31SAPC  H10S 4152   3.154   5.953   7.310 -1.4390  3.5384  0.1347
   31SAPC  C211 4153   3.187   6.129   7.427  0.2499  0.8086  0.7821
   31SAPC  H11R 4154   3.232   6.204   7.360 -0.2804  2.0494  1.7832
   31SAPC  C212 4155   3.102   6.169   7.520 -0.1639 -0.3361  0.5215
   31SAPC  H12R 4156   3.093   6.275   7.547 -1.8983 -0.8042  1.9940
   31SAPC  C213 4157   3.010   6.086   7.606 -1.2182 -0.4149  0.4425
   31SAPC  H13R 4158   3.072   6.032   7.681 -2.0466 -3.8626 -1.1803
   31SAPC  H13S 4159   2.970   6.008   7.538  0.7997 -0.3020 -0.9448
   31SAPC  C214 4160   2.907   6.163   7.673  0.8544 -0.8753  0.1760
   31SAPC  H14R 4161   2.873   6.258   7.628  2.3018 -0.0182  0.8131
   31SAPC  C215 4162   2.848   6.133   7.793 -0.2808  0.1539 -0.7863
   31SAPC  H15R 4163   2.766   6.190   7.837  0.4817 -0.1178  1.0727
   31SAPC  C216 4164   2.881   6.020   7.886  0.5263  0.3594 -0.0751
   31SAPC  H16R 4165   2.959   5.959   7.835  1.0326 -0.1267  1.2561
   31SAPC  H16S 4166   2.781   5.975   7.904  0.0681  1.3550 -0.0600
   31SAPC  C217 4167   2.937   6.051   8.027  0.2976 -0.0127  0.1784
   31SAPC  H17R 4168   2.867   6.117   8.083  1.7343  1.2252  0.5704
   31SAPC  H17S 4169   3.027   6.111   8.004  0.2308  0.4593  1.0850
   31SAPC  C218 4170   2.976   5.934   8.111  0.3722  0.1298 -0.1141
   31SAPC  H18R 4171   3.045   5.873   8.049  0.1275  1.2578 -1.5469
   31SAPC  H18S 4172   2.889   5.867   8.127  1.5346 -1.3753  0.1553
   31SAPC  C219 4173   3.056   5.975   8.237  1.0945 -0.0364 -0.9949
   31SAPC  H19R 4174   3.007   6.042   8.311  4.9135  0.4201  1.3862
   31SAPC  H19S 4175   3.149   6.030   8.211  0.1279  1.9679 -0.3482
   31SAPC  C220 4176   3.107   5.851   8.312 -0.1138 -0.1477 -0.3810
   31SAPC  H20R 4177   3.197   5.796   8.276 -1.3593 -3.2705  0.9500
   31SAPC  H20S 4178   3.021   5.782   8.301  0.5487 -0.7581 -2.1177
   31SAPC  H20T 4179   3.116   5.875   8.420  0.1238  0.5076 -0.5426
   31SAPC   C33 4180   2.951   6.074   7.094  0.2948 -0.0360 -0.2197
   31SAPC   H3X 4181   3.036   6.012   7.131  1.1629 -1.9074 -4.6268
   31SAPC   H3Y 4182   2.908   6.001   7.022 -0.2629 -1.0514  1.1092
   31SAPC   C34 4183   2.849   6.103   7.200 -0.2253  0.0671  0.0902
   31SAPC   H4X 4184   2.752   6.137   7.158 -0.2688 -0.8405 -0.5777
   31SAPC   H4Y 4185   2.885   6.184   7.266 -0.2666  0.9505 -0.9501
   31SAPC   C35 4186   2.808   5.979   7.287  0.1864  0.3504  0.1579
   31SAPC   H5X 4187   2.886   5.931   7.351 -0.9444 -1.4805  0.2480
   31SAPC   H5Y 4188   2.785   5.893   7.221  0.9798  1.2840 -1.3928
   31SAPC   C36 4189   2.683   5.989   7.385 -0.5171 -0.0413  0.0995
   31SAPC   H6X 4190   2.598   6.057   7.363 -1.4827 -0.5080  2.1167
   31SAPC   H6Y 4191   2.732   6.027   7.477  0.9550 -1.5869  0.0032
   31SAPC   C37 4192   2.619   5.852   7.419 -0.3893 -0.1064  0.2957
   31SAPC   H7X 4193   2.705   5.786   7.395 -0.4501 -0.5417  1.2246
   31SAPC   H7Y 4194   2.541   5.829   7.343  0.7496 -2.9856 -0.1476
   31SAPC   C38 4195   2.576   5.845   7.561 -0.1906 -0.2849 -0.5648
   31SAPC   H8X 4196   2.654   5.884   7.631 -1.8860  0.1074  1.1877
   31SAPC   H8Y 4197   2.563   5.741   7.598 -1.6558 -0.0172 -0.2672
   31SAPC   C39 4198   2.452   5.931   7.572  0.1198  0.0074  0.4910
   31SAPC   H9X 4199   2.364   5.892   7.516  1.2810 -0.2748 -1.2049
   31SAPC   H9Y 4200   2.469   6.033   7.531 -0.5293  0.2650  0.8478
   31SAPC  C310 4201   2.410   5.950   7.722  0.4110 -0.1905  1.1917
   31SAPC  H10X 4202   2.362   6.049   7.737  2.4648  0.9031  1.0102
   31SAPC  H10Y 4203   2.511   5.952   7.769  0.0996  1.1409  1.8313
   31SAPC  C311 4204   2.314   5.839   7.778  0.1122 -0.1946  0.5028
   31SAPC  H11X 4205   2.356   5.740   7.749  0.4795  0.2616 -0.5744
   31SAPC  H11Y 4206   2.217   5.860   7.728  0.8770  1.1934 -0.4986
   31SAPC  C312 4207   2.286   5.857   7.923 -0.0153  0.5775  0.3784
   31SAPC  H12X 4208   2.236   5.955   7.939 -4.1667 -1.2558  0.0795
   31SAPC  H12Y 4209   2.375   5.848   7.989 -1.4195  0.9082  2.4023
   31SAPC  C313 4210   2.200   5.737   7.971  0.7870 -0.8565  0.3983
   31SAPC  H13X 4211   2.258   5.645   7.950 -0.7335 -1.6371 -0.5849
   31SAPC  H13Y 4212   2.108   5.725   7.910  0.3636 -1.2991  1.1180
   31SAPC  C314 4213   2.149   5.736   8.117 -0.5094 -0.1055 -0.4235
   31SAPC  H14X 4214   2.073   5.656   8.126 -0.8165  0.0995 -1.1096
   31SAPC  H14Y 4215   2.095   5.832   8.134 -0.4402 -0.1519  0.0753
   31SAPC  C315 4216   2.253   5.727   8.226  0.4082 -0.3769  0.3505
   31SAPC  H15X 4217   2.333   5.797   8.193 -1.2551  2.1342  1.3183
   31SAPC  H15Y 4218   2.299   5.626   8.219  2.0528  0.4644 -3.0326
   31SAPC  C316 4219   2.199   5.752   8.365 -0.5562 -0.9555 -0.6540
   31SAPC  H16X 4220   2.275   5.731   8.444 -1.8687 -0.1721  0.8855
   31SAPC  H16Y 4221   2.112   5.693   8.399 -1.3937  2.1098  3.2888
   31SAPC  C317 4222   2.149   5.900   8.391  0.0685  0.5062  0.3864
   31SAPC  H17X 4223   2.043   5.892   8.360 -0.1241 -2.1229  1.3951
   31SAPC  H17Y 4224   2.216   5.967   8.333 -2.0284  2.3988  0.0039
   31SAPC  C318 4225   2.142   5.949   8.535  0.6303 -0.6830 -0.3584
   31SAPC  H18X 4226   2.094   6.049   8.534  0.5633 -0.6867  1.0420
   31SAPC  H18Y 4227   2.245   5.962   8.576  0.7451 -0.2181 -0.7817
   31SAPC  H18Z 4228   2.079   5.879   8.592 -0.0392 -0.0653 -0.3277
   32SAPC     N 4229   4.996   0.017   6.563  0.0503  0.4354 -1.2361
   32SAPC   C12 4230   5.112  -0.088   6.544  0.4615 -0.4765  0.5087
   32SAPC  H12A 4231   5.129  -0.134   6.640 -0.8689 -1.6651  0.2065
   32SAPC  H12B 4232   5.200  -0.025   6.533  0.5536 -0.2470  2.3157
   32SAPC   C13 4233   5.038   0.116   6.677  0.0881  0.3420  0.0945
   32SAPC  H13A 4234   5.017   0.071   6.773  0.9707 -1.6312 -0.5975
   32SAPC  H13B 4235   5.137   0.151   6.653 -0.0598 -0.3079 -1.5875
   32SAPC  H13C 4236   4.975   0.203   6.665  0.7585  1.1194  1.8545
   32SAPC   C14 4237   4.964   0.111   6.453 -0.1792  0.2825  0.3820
   32SAPC  H14A 4238   4.877   0.163   6.492  0.0438  0.1658  1.0582
   32SAPC  H14B 4239   5.051   0.174   6.446 -0.1516  0.0865 -1.6005
   32SAPC  H14C 4240   4.942   0.054   6.364 -0.6376 -0.0659  0.7129
   32SAPC   C15 4241   4.870  -0.051   6.607 -0.2301  0.5011 -0.1365
   32SAPC  H15A 4242   4.870  -0.077   6.711 -0.5547  0.6666 -0.0965
   32SAPC  H15B 4243   4.784   0.013   6.593 -0.7177 -0.1334 -0.1145
   32SAPC  H15C 4244   4.845  -0.133   6.540 -1.3231  1.0799 -0.4530
   32SAPC   C11 4245   5.092  -0.179   6.417  0.3642  0.5735 -0.1329
   32SAPC  H11A 4246   5.051  -0.111   6.338  1.1217  2.5356  1.0917
   32SAPC  H11B 4247   5.015  -0.258   6.432 -0.1284  0.9395 -0.6626
   32SAPC     P 4248   5.273  -0.352   6.439  0.3249  0.4731 -0.1353
   32SAPC   O13 4249   5.165  -0.457   6.435 -0.4806  0.1466  0.5610
   32SAPC   O14 4250   5.393  -0.379   6.358  0.2340 -0.1873 -0.3422
   32SAPC   O12 4251   5.216  -0.224   6.373  0.5297 -0.3759  0.7624
   32SAPC   O11 4252   5.301  -0.305   6.591  0.2811 -0.2582  0.6981
   32SAPC    C1 4253   5.401  -0.372   6.673  0.4019 -0.3320  0.3021
   32SAPC    HA 4254   5.395  -0.483   6.667  0.6277 -0.2862 -1.1174
   32SAPC    HB 4255   5.503  -0.352   6.636  0.3086 -1.7207 -0.7946
   32SAPC    C2 4256   5.402  -0.325   6.821 -0.1896  0.3656  0.7993
   32SAPC    HS 4257   5.318  -0.370   6.879  0.8043 -1.6839  0.7375
   32SAPC   O21 4258   5.425  -0.176   6.823  0.2607  0.5280 -0.2572
   32SAPC   C21 4259   5.316  -0.109   6.869  0.2179 -0.3301 -0.0054
   32SAPC   O22 4260   5.203  -0.154   6.876  0.5886 -0.0211 -0.1990
   32SAPC   C22 4261   5.361   0.034   6.906  0.6945  0.4164  0.1192
   32SAPC   H2R 4262   5.471   0.027   6.917  0.8282  3.7812  2.3198
   32SAPC   H2S 4263   5.329   0.096   6.819  1.4866 -0.5037 -0.8558
   32SAPC    C3 4264   5.529  -0.380   6.880 -0.0739 -0.4207 -0.6795
   32SAPC    HX 4265   5.609  -0.318   6.835  1.9189 -2.8181 -0.6565
   32SAPC    HY 4266   5.545  -0.487   6.852  0.7377 -0.2919 -0.7126
   32SAPC   O31 4267   5.532  -0.364   7.029 -0.5301  0.3920  0.0634
   32SAPC   C31 4268   5.624  -0.298   7.089 -0.9367  0.5173 -0.3296
   32SAPC   O32 4269   5.718  -0.239   7.042  0.2368 -0.3199 -0.2702
   32SAPC   C32 4270   5.598  -0.320   7.239 -0.0298 -0.7162  0.7676
   32SAPC   H2X 4271   5.603  -0.425   7.275 -0.0784 -1.1498 -0.4263
   32SAPC   H2Y 4272   5.496  -0.280   7.255 -0.2200 -1.2721  0.9647
   32SAPC   C23 4273   5.307   0.095   7.034  0.7432  0.2667 -1.2543
   32SAPC   H3R 4274   5.196   0.089   7.039  0.8121 -0.2879 -0.0207
   32SAPC   H3S 4275   5.340   0.200   7.040 -0.4619  0.5999  0.3142
   32SAPC   C24 4276   5.364   0.023   7.162  0.0886 -0.3531 -0.0849
   32SAPC   H4R 4277   5.333  -0.084   7.168  0.8654 -0.5200  1.4795
   32SAPC   H4S 4278   5.303   0.079   7.236 -0.1437 -0.6217 -0.0705
   32SAPC   C25 4279   5.509   0.042   7.180 -0.4266  0.7334 -0.4808
   32SAPC   H5R 4280   5.572  -0.009   7.105  0.0540 -1.7071  1.4610
   32SAPC   C26 4281   5.566   0.120   7.268 -0.5266  0.4006 -0.0467
   32SAPC   H6R 4282   5.676   0.125   7.269 -0.4759 -0.2504 -0.6606
   32SAPC   C27 4283   5.488   0.200   7.367 -1.1245 -0.1397 -0.9427
   32SAPC   H7R 4284   5.398   0.246   7.320 -1.0846 -0.6397 -1.5118
   32SAPC   H7S 4285   5.542   0.292   7.398 -0.4357  0.4255 -3.6109
   32SAPC   C28 4286   5.443   0.119   7.493 -0.1348  0.7861  0.8639
   32SAPC   H8R 4287   5.449   0.010   7.480 -0.4586  0.7125  1.3073
   32SAPC   C29 4288   5.404   0.170   7.604 -0.5330 -0.3608 -0.2705
   32SAPC   H9R 4289   5.399   0.097   7.686  1.8451  0.3277  0.5497
   32SAPC  C210 4290   5.395   0.322   7.635  0.5290  0.4088  0.2596
   32SAPC  H10R 4291   5.337   0.324   7.730  0.8711 -2.4536  0.6014
   32SAPC  H10S 4292   5.322   0.388   7.582 -1.5097 -0.9336  1.2745
   32SAPC  C211 4293   5.522   0.395   7.673  0.2997 -0.7343 -0.0008
   32SAPC  H11R 4294   5.573   0.449   7.592  0.9036  3.6891  2.9069
   32SAPC  C212 4295   5.591   0.393   7.788  0.4476  0.0555  0.1568
   32SAPC  H12R 4296   5.680   0.457   7.796  1.5599 -1.3987 -0.0621
   32SAPC  C213 4297   5.543   0.323   7.911  0.3013 -0.1439  0.3664
   32SAPC  H13R 4298   5.636   0.277   7.950  1.0097  1.8068  1.0542
   32SAPC  H13S 4299   5.471   0.241   7.888 -0.1469  0.3459 -0.0126
   32SAPC  C214 4300   5.482   0.413   8.013 -0.2648 -0.2872  0.4566
   32SAPC  H14R 4301   5.373   0.403   8.002  0.0397 -2.7252 -1.2019
   32SAPC  C215 4302   5.546   0.492   8.103  0.1508  0.1299 -0.4406
   32SAPC  H15R 4303   5.483   0.553   8.170  0.8268  0.1458  0.1838
   32SAPC  C216 4304   5.688   0.507   8.113  0.6130  0.1911 -0.3206
   32SAPC  H16R 4305   5.713   0.588   8.041  0.8521 -1.3084 -1.9938
   32SAPC  H16S 4306   5.740   0.421   8.068  0.3282 -0.9629  1.4389
   32SAPC  C217 4307   5.729   0.531   8.258 -0.3176 -0.1892 -0.3933
   32SAPC  H17R 4308   5.671   0.611   8.308 -1.8941 -1.6098  0.1315
   32SAPC  H17S 4309   5.834   0.567   8.259 -0.6053  0.7681 -1.7036
   32SAPC  C218 4310   5.734   0.399   8.344 -0.3472  0.5312  0.1151
   32SAPC  H18R 4311   5.797   0.328   8.286  0.0620 -0.1230  1.3151
   32SAPC  H18S 4312   5.628   0.366   8.352 -0.2597 -0.8381 -2.9375
   32SAPC  C219 4313   5.778   0.414   8.489 -0.3934 -0.2320  0.4239
   32SAPC  H19R 4314   5.889   0.427   8.487 -0.1356 -2.1190 -0.3968
   32SAPC  H19S 4315   5.749   0.317   8.536 -1.4964  0.3336  0.9258
   32SAPC  C220 4316   5.709   0.526   8.574 -0.2314 -0.0501  0.1443
   32SAPC  H20R 4317   5.600   0.508   8.567 -0.3935  1.1979 -0.9481
   32SAPC  H20S 4318   5.724   0.621   8.518 -0.1624 -0.5437 -0.6969
   32SAPC  H20T 4319   5.741   0.528   8.680  1.1047 -0.3670 -0.2353
   32SAPC   C33 4320   5.694  -0.238   7.336 -0.0652  0.1569 -0.0164
   32SAPC   H3X 4321   5.717  -0.133   7.310  1.0653  0.3190  1.4975
   32SAPC   H3Y 4322   5.797  -0.278   7.348  0.3940  0.5608 -2.0946
   32SAPC   C34 4323   5.640  -0.230   7.481  0.2836  0.4598  0.4074
   32SAPC   H4X 4324   5.641  -0.325   7.537 -1.9143  1.4861  2.3483
   32SAPC   H4Y 4325   5.533  -0.200   7.476  0.6450  2.1421  1.7749
   32SAPC   C35 4326   5.720  -0.135   7.573 -0.8437 -0.4142  0.5081
   32SAPC   H5X 4327   5.712  -0.032   7.530  1.1136 -0.6223 -0.4474
   32SAPC   H5Y 4328   5.827  -0.164   7.566 -0.7344  0.0019  0.4035
   32SAPC   C36 4329   5.663  -0.138   7.716  0.1435 -0.4065 -0.1650
   32SAPC   H6X 4330   5.682  -0.240   7.755 -2.0189 -0.7621  0.0708
   32SAPC   H6Y 4331   5.553  -0.122   7.715  0.4077  1.6640 -1.1472
   32SAPC   C37 4332   5.716  -0.046   7.828 -0.0045  0.5923 -0.4046
   32SAPC   H7X 4333   5.711   0.058   7.789  0.4759  0.0735 -1.9453
   32SAPC   H7Y 4334   5.825  -0.064   7.843  0.1125  0.4524 -1.3330
   32SAPC   C38 4335   5.647  -0.069   7.968 -0.1857 -0.1578  0.4355
   32SAPC   H8X 4336   5.673  -0.172   8.001  0.6296 -0.2412 -0.4125
   32SAPC   H8Y 4337   5.537  -0.061   7.963 -0.1509 -0.1801 -0.8466
   32SAPC   C39 4338   5.694   0.019   8.084 -0.1441  0.1659 -0.0625
   32SAPC   H9X 4339   5.632   0.111   8.083 -2.2083 -1.1688 -0.4312
   32SAPC   H9Y 4340   5.800   0.047   8.067 -0.6143  2.1840  0.0386
   32SAPC  C310 4341   5.682  -0.065   8.213 -0.9535 -0.4946 -0.2085
   32SAPC  H10X 4342   5.764  -0.140   8.215  0.9279  1.4543  0.1141
   32SAPC  H10Y 4343   5.585  -0.117   8.199  0.1731 -2.6217 -0.5255
   32SAPC  C311 4344   5.695   0.022   8.339  0.4086  0.5905 -0.0752
   32SAPC  H11X 4345   5.621   0.104   8.323  0.2484  0.4180 -0.2220
   32SAPC  H11Y 4346   5.792   0.076   8.342 -0.1931  1.6745  0.7971
   32SAPC  C312 4347   5.665  -0.041   8.473  0.2567 -0.3673  0.0812
   32SAPC  H12X 4348   5.756  -0.105   8.480  0.1059 -0.7119 -0.9613
   32SAPC  H12Y 4349   5.580  -0.109   8.451  1.9522 -2.6934  0.3186
   32SAPC  C313 4350   5.657   0.051   8.590  1.1226  0.2199  0.2151
   32SAPC  H13X 4351   5.576   0.125   8.576  0.5519 -0.1044  1.5874
   32SAPC  H13Y 4352   5.757   0.100   8.596  1.5919 -0.1857 -2.7686
   32SAPC  C314 4353   5.634  -0.023   8.718 -0.4736  1.2091  0.0618
   32SAPC  H14X 4354   5.603  -0.125   8.688 -0.1432  1.6379 -1.8860
   32SAPC  H14Y 4355   5.571   0.043   8.781  0.6808  0.9331  1.5537
   32SAPC  C315 4356   5.760  -0.033   8.803  0.0472 -0.2898  0.1961
   32SAPC  H15X 4357   5.793   0.071   8.823 -1.2472  0.7832 -2.7556
   32SAPC  H15Y 4358   5.838  -0.091   8.749 -3.0843 -2.4143 -2.3797
   32SAPC  C316 4359   5.721  -0.098   8.945 -0.9425  0.5020 -0.1000
   32SAPC  H16X 4360   5.667  -0.016   8.998  0.5234  1.3375  0.1654
   32SAPC  H16Y 4361   5.815  -0.113   9.003 -0.9712 -2.8716 -0.7713
   32SAPC  C317 4362   5.647  -0.241   8.933  0.1688 -0.2325 -0.9180
   32SAPC  H17X 4363   5.708  -0.302   8.863  1.3434 -0.4345  0.2444
   32SAPC  H17Y 4364   5.544  -0.226   8.894  0.1458  1.8416 -0.1822
   32SAPC  C318 4365   5.643  -0.307   9.065  0.2577  0.1492  0.2520
   32SAPC  H18X 4366   5.567  -0.264   9.134 -0.1966 -0.7512  0.3343
   32SAPC  H18Y 4367   5.737  -0.311   9.123 -0.4758 -1.1725  1.4058
   32SAPC  H18Z 4368   5.596  -0.408   9.062  1.3366 -0.3759  0.6622
   33POPC     N 4369   1.673   1.157  10.903 -0.2289 -0.2946  0.0621
   33POPC   C12 4370   1.691   1.056  10.787 -0.0344  0.9842 -0.7451
   33POPC  H12A 4371   1.620   0.975  10.791  0.9909 -0.0190 -2.1396
   33POPC  H12B 4372   1.789   1.017  10.807 -0.8497 -0.7236  0.0582
   33POPC   C13 4373   1.665   1.075  11.026 -0.1802  0.0463  0.2077
   33POPC  H13A 4374   1.754   1.019  11.052 -0.1422 -1.2732 -2.4238
   33POPC  H13B 4375   1.637   1.122  11.119  2.1922  0.6448  0.6855
   33POPC  H13C 4376   1.583   1.008  11.010 -0.5375  0.6167 -0.4226
   33POPC   C14 4377   1.783   1.258  10.923 -0.3867 -0.2194 -0.0019
   33POPC  H14A 4378   1.796   1.314  10.831  0.0345  1.1252  0.8487
   33POPC  H14B 4379   1.759   1.317  11.010 -1.1437  1.1556 -1.0863
   33POPC  H14C 4380   1.882   1.220  10.937  0.1519 -0.0111 -2.7348
   33POPC   C15 4381   1.548   1.230  10.875  0.2101  0.0573 -0.1749
   33POPC  H15A 4382   1.461   1.169  10.856 -0.9866  1.6215  0.1080
   33POPC  H15B 4383   1.565   1.282  10.782  0.9908 -0.1027 -0.1243
   33POPC  H15C 4384   1.521   1.299  10.953 -1.1300  0.6338 -1.1156
   33POPC   C11 4385   1.693   1.106  10.641  0.3787  0.0592  0.8797
   33POPC  H11A 4386   1.605   1.161  10.603  1.2005 -0.7007 -2.4823
   33POPC  H11B 4387   1.689   1.010  10.584  1.9401 -0.3031  1.3188
   33POPC     P 4388   1.947   1.081  10.598  0.2467  0.0178 -0.0757
   33POPC   O13 4389   1.967   1.006  10.723 -0.7548 -0.3520  0.0879
   33POPC   O14 4390   2.062   1.160  10.547  0.3911  0.7179  0.0828
   33POPC   O12 4391   1.814   1.181  10.618  0.3951  0.0632 -0.0719
   33POPC   O11 4392   1.901   0.980  10.485 -0.5807 -0.1882 -0.2038
   33POPC    C1 4393   1.960   0.994  10.356 -0.1166  0.2418 -0.2772
   33POPC    HA 4394   2.069   0.974  10.349  0.0783  1.3321 -0.4898
   33POPC    HB 4395   1.911   0.920  10.290 -1.1281 -1.6148  2.3954
   33POPC    C2 4396   1.921   1.135  10.283 -0.6390  0.3788 -0.0319
   33POPC    HS 4397   1.956   1.218  10.348  0.9948  0.8787 -1.4786
   33POPC   O21 4398   1.774   1.141  10.267 -0.4869  0.2084 -0.2656
   33POPC   C21 4399   1.723   1.259  10.293  1.0036 -0.2186 -0.6420
   33POPC   O22 4400   1.780   1.365  10.323 -0.1395  0.4609 -0.0344
   33POPC   C22 4401   1.573   1.246  10.275  0.0837 -0.5132 -0.6664
   33POPC   H2R 4402   1.524   1.247  10.375 -1.1147  2.3819 -1.1920
   33POPC   H2S 4403   1.556   1.148  10.226 -4.6393 -1.0161  1.4252
   33POPC    C3 4404   1.979   1.152  10.131 -0.4540 -0.6027  0.1558
   33POPC    HX 4405   1.937   1.065  10.076 -0.3165 -1.2595  1.0685
   33POPC    HY 4406   2.087   1.126  10.132 -0.1389  0.5669 -0.8874
   33POPC   O31 4407   1.960   1.277  10.058 -0.0888  0.3496  0.0716
   33POPC   C31 4408   2.032   1.378  10.098 -0.5821  0.0462  0.1757
   33POPC   O32 4409   2.112   1.381  10.188 -0.3817 -0.4112 -0.2249
   33POPC   C32 4410   1.993   1.495  10.019  0.4164 -1.0317  0.1752
   33POPC   H2X 4411   1.958   1.578  10.084 -0.5602 -1.9501  0.8679
   33POPC   H2Y 4412   1.901   1.477   9.959 -1.4453 -0.5190  2.6663
   33POPC   C23 4413   1.520   1.356  10.180  0.7363 -0.1856 -0.1741
   33POPC   H3R 4414   1.548   1.459  10.212 -1.4526  1.3167 -2.6007
   33POPC   H3S 4415   1.411   1.341  10.196  0.9408 -2.4988 -0.7329
   33POPC   C24 4416   1.543   1.328  10.029 -0.1707  0.8462 -0.0263
   33POPC   H4R 4417   1.530   1.220  10.007 -1.6382  0.5000  2.2397
   33POPC   H4S 4418   1.645   1.364  10.004  0.1558 -0.3364 -0.4796
   33POPC   C25 4419   1.441   1.408   9.945 -0.1658  0.0732 -1.0510
   33POPC   H5R 4420   1.462   1.516   9.961 -0.7502  0.3058 -1.7641
   33POPC   H5S 4421   1.338   1.385   9.980  0.2935 -0.0088  0.2791
   33POPC   C26 4422   1.445   1.382   9.794 -0.1390  0.3255  0.2030
   33POPC   H6R 4423   1.394   1.459   9.732 -0.3592 -0.8659 -1.1287
   33POPC   H6S 4424   1.396   1.286   9.768  0.6205  0.5287 -2.1687
   33POPC   C27 4425   1.591   1.376   9.738  0.1201  0.3446 -0.2060
   33POPC   H7R 4426   1.652   1.292   9.777  3.2519  1.9614 -1.2994
   33POPC   H7S 4427   1.656   1.462   9.767 -0.7089  0.9178 -0.0097
   33POPC   C28 4428   1.593   1.372   9.588  0.0574  0.4933  0.3238
   33POPC   H8R 4429   1.692   1.399   9.547 -0.4860  1.1012 -0.6446
   33POPC   H8S 4430   1.533   1.459   9.552 -0.9980 -1.0575 -1.8989
   33POPC   C29 4431   1.545   1.242   9.527  0.5434 -0.3704 -0.0298
   33POPC   H91 4432   1.537   1.154   9.593 -0.2675 -0.8516 -0.7505
   33POPC  C210 4433   1.507   1.219   9.398 -0.4907 -0.0957 -0.3505
   33POPC  H101 4434   1.474   1.119   9.369  0.8056 -0.3167 -1.1335
   33POPC  C211 4435   1.507   1.323   9.286  0.1884  0.5257  0.2633
   33POPC  H11R 4436   1.606   1.318   9.236  0.3303  0.5049  0.5438
   33POPC  H11S 4437   1.488   1.423   9.331 -1.5288  0.6897 -0.7479
   33POPC  C212 4438   1.401   1.306   9.177  0.0570  0.4875 -0.1177
   33POPC  H12R 4439   1.409   1.392   9.107 -0.0510 -0.3708 -1.2170
   33POPC  H12S 4440   1.299   1.308   9.220 -0.8119  0.2686 -2.0858
   33POPC  C213 4441   1.437   1.179   9.102  0.4644 -0.0195  0.0976
   33POPC  H13R 4442   1.436   1.090   9.168  1.2389  0.0346  0.1889
   33POPC  H13S 4443   1.543   1.192   9.070  0.7749 -2.4299 -0.0114
   33POPC  C214 4444   1.358   1.143   8.977 -0.3638 -0.0560 -0.1267
   33POPC  H14R 4445   1.315   1.234   8.930 -2.2001 -0.7917  0.0238
   33POPC  H14S 4446   1.270   1.079   9.000 -0.5249 -0.4971 -1.8039
   33POPC  C215 4447   1.427   1.065   8.864  0.8934  0.7572 -0.2372
   33POPC  H15R 4448   1.477   0.978   8.913  0.5190  0.2846 -0.6822
   33POPC  H15S 4449   1.507   1.127   8.819  2.0638 -1.4827 -1.4398
   33POPC  C216 4450   1.313   1.025   8.772  0.4632 -0.8693 -0.2802
   33POPC  H16R 4451   1.250   1.116   8.762  1.6945  0.4077  2.3979
   33POPC  H16S 4452   1.249   0.951   8.825 -0.4984  1.1926  1.5672
   33POPC  C217 4453   1.351   0.956   8.637  0.3091 -0.3712 -1.0998
   33POPC  H17R 4454   1.354   0.846   8.655 -4.3438 -0.4204  0.9304
   33POPC  H17S 4455   1.449   1.000   8.610  0.1111 -0.3890 -1.8808
   33POPC  C218 4456   1.255   0.985   8.518 -0.8135  0.8101  0.4846
   33POPC  H18R 4457   1.303   0.945   8.427 -0.4864 -0.1218  1.0580
   33POPC  H18S 4458   1.235   1.092   8.496 -3.1114  0.5714  1.1857
   33POPC  H18T 4459   1.152   0.944   8.525 -1.3563  1.2022 -3.0401
   33POPC   C33 4460   2.098   1.543   9.915  0.3962  0.3167 -0.5536
   33POPC   H3X 4461   2.138   1.457   9.856  0.2413  0.8830 -1.5060
   33POPC   H3Y 4462   2.176   1.593   9.976 -2.6429  1.6776  2.5142
   33POPC   C34 4463   2.044   1.654   9.824  0.5921 -0.2176 -1.0256
   33POPC   H4X 4464   2.004   1.739   9.883  2.1686 -0.8349  1.0463
   33POPC   H4Y 4465   1.956   1.619   9.766 -1.7819 -0.3375  2.3914
   33POPC   C35 4466   2.149   1.711   9.722 -0.1002  0.0749  0.7682
   33POPC   H5X 4467   2.191   1.626   9.664  2.0820 -0.1206  2.5282
   33POPC   H5Y 4468   2.230   1.770   9.769 -0.1656 -0.0573  1.0521
   33POPC   C36 4469   2.091   1.812   9.613 -0.0932 -0.0270  0.1073
   33POPC   H6X 4470   2.067   1.906   9.668 -1.0771 -0.1177 -0.1524
   33POPC   H6Y 4471   1.997   1.776   9.564 -0.2554  0.8813 -0.2723
   33POPC   C37 4472   2.190   1.838   9.505 -0.5884 -0.3354  0.3360
   33POPC   H7X 4473   2.202   1.748   9.440 -1.5977 -0.3233  0.1172
   33POPC   H7Y 4474   2.288   1.871   9.546  0.3319 -1.2591 -1.0255
   33POPC   C38 4475   2.150   1.955   9.410 -0.7328  0.7173  0.1883
   33POPC   H8X 4476   2.145   2.049   9.469  1.7678  1.2356 -0.3105
   33POPC   H8Y 4477   2.048   1.930   9.375 -0.0068 -2.4245 -0.0218
   33POPC   C39 4478   2.234   1.960   9.282 -0.6067 -0.2676  0.2495
   33POPC   H9X 4479   2.212   1.863   9.233 -1.3138  0.3781 -0.7487
   33POPC   H9Y 4480   2.341   1.965   9.309 -0.4956 -2.2204  0.3311
   33POPC  C310 4481   2.201   2.081   9.193  0.4010  0.1967  0.2306
   33POPC  H10X 4482   2.199   2.179   9.245 -0.8441  1.2641 -1.6907
   33POPC  H10Y 4483   2.094   2.057   9.173  1.3937 -3.2095 -1.8034
   33POPC  C311 4484   2.275   2.079   9.064  0.7181  0.1971  0.2993
   33POPC  H11X 4485   2.264   1.977   9.022 -4.2500 -0.4134  2.4326
   33POPC  H11Y 4486   2.383   2.096   9.084  0.5773  1.5156  0.0434
   33POPC  C312 4487   2.218   2.175   8.956  0.5057 -0.5007 -0.8860
   33POPC  H12X 4488   2.258   2.276   8.979  0.6923 -0.8977  0.6481
   33POPC  H12Y 4489   2.108   2.177   8.946  0.4528  0.1012 -0.2668
   33POPC  C313 4490   2.270   2.156   8.812 -0.1199  0.5129  0.9978
   33POPC  H13X 4491   2.227   2.067   8.762 -0.2071  0.2030  1.6114
   33POPC  H13Y 4492   2.380   2.146   8.823 -0.1272 -1.0367 -0.0887
   33POPC  C314 4493   2.249   2.284   8.726  0.5530  0.8602  0.9162
   33POPC  H14X 4494   2.325   2.273   8.645 -0.5836 -0.3616 -0.0408
   33POPC  H14Y 4495   2.269   2.378   8.782 -0.5389  1.2782  0.6405
   33POPC  C315 4496   2.109   2.287   8.669 -0.1161 -0.4669 -0.6719
   33POPC  H15X 4497   2.035   2.300   8.752 -1.4711  0.7080 -1.9901
   33POPC  H15Y 4498   2.077   2.198   8.611 -3.2985  0.3351 -0.3626
   33POPC  C316 4499   2.113   2.405   8.571 -0.3783  0.4614  0.3808
   33POPC  H16X 4500   2.176   2.387   8.481 -3.7303  0.8825 -2.2684
   33POPC  H16Y 4501   2.145   2.505   8.607 -1.1930  1.4160 -1.4187
   33POPC  H16Z 4502   2.008   2.424   8.537 -1.0973 -0.3131  2.0681
   34POPC     N 4503   2.120   1.732  10.610  0.1074  0.2175  0.1621
   34POPC   C12 4504   2.128   1.775  10.470  0.3803 -0.6235  0.0521
   34POPC  H12A 4505   2.126   1.689  10.405 -1.0046 -0.2558 -0.4239
   34POPC  H12B 4506   2.224   1.821  10.450 -0.5174  1.1861 -0.2993
   34POPC   C13 4507   2.140   1.857  10.699  0.4126  0.1274  0.3783
   34POPC  H13A 4508   2.129   1.845  10.806  2.4549  0.8291  0.7075
   34POPC  H13B 4509   2.239   1.899  10.697  0.3473  0.5922  3.2419
   34POPC  H13C 4510   2.070   1.934  10.670  0.8314  0.0713 -0.8313
   34POPC   C14 4511   1.990   1.662  10.642  0.1008 -0.1474 -0.1590
   34POPC  H14A 4512   1.983   1.570  10.586  2.6033 -0.7222  0.3341
   34POPC  H14B 4513   1.979   1.639  10.746  0.7813  0.4092  0.0457
   34POPC  H14C 4514   1.908   1.731  10.635 -0.1523 -0.4277  0.0673
   34POPC   C15 4515   2.239   1.636  10.637 -0.0568  0.4139  0.0625
   34POPC  H15A 4516   2.330   1.677  10.598 -0.1554  3.8605  2.9751
   34POPC  H15B 4517   2.217   1.541  10.591 -0.0868  1.2121 -1.6477
   34POPC  H15C 4518   2.237   1.621  10.744 -2.6000 -1.0078 -0.0871
   34POPC   C11 4519   2.037   1.885  10.411 -0.0745  0.6264 -0.2034
   34POPC  H11A 4520   1.927   1.874  10.429 -0.0148 -0.9511 -0.6917
   34POPC  H11B 4521   2.033   1.888  10.300  1.8043  1.1562 -0.2760
   34POPC     P 4522   2.191   2.084  10.431 -0.1615 -0.1452  0.3072
   34POPC   O13 4523   2.300   1.985  10.442  0.3391  0.5925  0.0196
   34POPC   O14 4524   2.199   2.198  10.523 -0.5123 -0.5707  0.4301
   34POPC   O12 4525   2.059   2.011  10.464 -0.5505  0.2543 -0.3896
   34POPC   O11 4526   2.171   2.140  10.285  0.2256  0.3243  0.3971
   34POPC    C1 4527   2.043   2.183  10.237 -0.0551 -0.6823  1.0233
   34POPC    HA 4528   2.031   2.294  10.232  0.3221 -0.6796 -2.5296
   34POPC    HB 4529   1.958   2.132  10.286  0.2580 -1.4803  0.7419
   34POPC    C2 4530   2.030   2.140  10.089  0.0330  0.5745 -0.6747
   34POPC    HS 4531   2.027   2.029  10.083  0.5320  0.4319  1.0613
   34POPC   O21 4532   2.133   2.199  10.014 -0.2837 -0.0377  0.1419
   34POPC   C21 4533   2.207   2.112   9.954 -0.1964  0.0212  0.1471
   34POPC   O22 4534   2.202   1.988   9.964 -0.4241 -0.5033  0.2496
   34POPC   C22 4535   2.322   2.184   9.884  0.4447 -0.8843 -0.6376
   34POPC   H2R 4536   2.418   2.151   9.929 -0.3191 -0.1333  1.6699
   34POPC   H2S 4537   2.321   2.295   9.891  0.8223 -0.8603 -0.8715
   34POPC    C3 4538   1.898   2.195  10.029 -0.3473  0.3816 -1.3296
   34POPC    HX 4539   1.900   2.305  10.041  1.1806  0.1470  1.3281
   34POPC    HY 4540   1.813   2.153  10.088  0.5098  1.3028  0.6594
   34POPC   O31 4541   1.877   2.137   9.893 -0.2277 -0.0447  0.2385
   34POPC   C31 4542   1.879   2.224   9.793  0.3246 -0.2324  0.4539
   34POPC   O32 4543   1.904   2.347   9.800  0.0976  0.4390 -0.3754
   34POPC   C32 4544   1.867   2.162   9.661 -0.5558  0.0772 -0.6879
   34POPC   H2X 4545   1.784   2.089   9.673  0.6415 -0.9855  1.7118
   34POPC   H2Y 4546   1.952   2.097   9.630 -1.6068 -1.0238 -1.3562
   34POPC   C23 4547   2.320   2.144   9.739 -0.7812 -0.2158  0.3750
   34POPC   H3R 4548   2.221   2.166   9.695 -1.4407 -2.9718  0.3159
   34POPC   H3S 4549   2.319   2.034   9.731 -1.9350 -0.1756 -0.2126
   34POPC   C24 4550   2.427   2.210   9.656 -0.3319  0.2760 -0.1221
   34POPC   H4R 4551   2.521   2.152   9.665 -1.3574 -1.1492  2.6755
   34POPC   H4S 4552   2.447   2.311   9.698  2.1185  0.6422 -1.9318
   34POPC   C25 4553   2.385   2.224   9.509 -0.5770 -0.1284  0.0432
   34POPC   H5R 4554   2.293   2.286   9.509  0.9306  2.2537 -0.6397
   34POPC   H5S 4555   2.367   2.127   9.459 -1.0724  0.8860 -1.8232
   34POPC   C26 4556   2.491   2.307   9.433 -0.1305  0.4193 -0.1409
   34POPC   H6R 4557   2.590   2.262   9.457  1.6168  3.7645 -0.5377
   34POPC   H6S 4558   2.482   2.409   9.476  0.1086  0.6506 -0.6299
   34POPC   C27 4559   2.486   2.310   9.279  0.0626 -0.0378 -0.0912
   34POPC   H7R 4560   2.393   2.369   9.263  0.3860  0.9033  1.2892
   34POPC   H7S 4561   2.473   2.210   9.234 -3.3484  1.4428 -2.8880
   34POPC   C28 4562   2.611   2.373   9.215 -0.0465 -0.7305 -0.0158
   34POPC   H8R 4563   2.608   2.356   9.105 -1.7210 -1.8765  0.1525
   34POPC   H8S 4564   2.701   2.321   9.254  1.6540  0.6345 -1.9043
   34POPC   C29 4565   2.607   2.519   9.250 -0.2223  0.7107  0.4419
   34POPC   H91 4566   2.506   2.564   9.247 -0.2094  0.7064 -0.2129
   34POPC  C210 4567   2.715   2.586   9.285  0.6573 -0.2271 -0.5256
   34POPC  H101 4568   2.709   2.694   9.304  0.4431 -0.1316 -1.1178
   34POPC  C211 4569   2.848   2.532   9.312 -0.8439  0.2399 -0.1025
   34POPC  H11R 4570   2.858   2.434   9.363  0.9186  1.3999  1.9225
   34POPC  H11S 4571   2.901   2.598   9.383  1.4704 -2.8794  1.3200
   34POPC  C212 4572   2.929   2.509   9.181 -0.0891 -0.4426  0.3119
   34POPC  H12R 4573   2.864   2.443   9.119 -1.6844  0.2358  1.1957
   34POPC  H12S 4574   3.030   2.472   9.205  0.7011  0.3259 -1.6206
   34POPC  C213 4575   2.948   2.641   9.097 -0.4279  0.5708 -0.2267
   34POPC  H13R 4576   3.004   2.721   9.150 -1.2344  1.0062  0.0034
   34POPC  H13S 4577   2.851   2.687   9.068 -3.1720 -4.0670  0.4491
   34POPC  C214 4578   3.036   2.603   8.977  0.3003 -0.4422 -0.0208
   34POPC  H14R 4579   2.969   2.564   8.897  1.0314 -0.3010 -0.7195
   34POPC  H14S 4580   3.114   2.525   8.991  0.8790 -0.2957 -2.0483
   34POPC  C215 4581   3.099   2.731   8.920 -0.0212  0.4896  0.2511
   34POPC  H15R 4582   3.166   2.770   9.001  0.8880  0.3851 -0.4283
   34POPC  H15S 4583   3.016   2.802   8.904  0.1348  1.2341  2.3658
   34POPC  C216 4584   3.172   2.713   8.778 -0.1714 -0.1268 -0.2794
   34POPC  H16R 4585   3.097   2.692   8.699  0.8111  2.8674 -2.1870
   34POPC  H16S 4586   3.251   2.635   8.780  0.6028  0.5999 -1.1921
   34POPC  C217 4587   3.238   2.848   8.744  0.3561  0.7699 -0.2416
   34POPC  H17R 4588   3.312   2.863   8.825 -0.4100  2.4220  0.2128
   34POPC  H17S 4589   3.167   2.931   8.764  0.1815  0.2833  1.2321
   34POPC  C218 4590   3.309   2.853   8.610 -1.4885 -0.6361  0.2523
   34POPC  H18R 4591   3.393   2.926   8.607 -1.1074 -0.9502  1.8403
   34POPC  H18S 4592   3.245   2.888   8.527 -1.4968  1.8446  1.2022
   34POPC  H18T 4593   3.350   2.754   8.581  0.4188 -0.0180  0.6972
   34POPC   C33 4594   1.834   2.264   9.547 -0.1620 -0.9711 -0.0015
   34POPC   H3X 4595   1.921   2.330   9.532 -1.3490  0.5658 -0.3660
   34POPC   H3Y 4596   1.740   2.316   9.576 -0.8619 -1.4900 -1.2506
   34POPC   C34 4597   1.801   2.189   9.417 -0.4481  0.4822 -1.2068
   34POPC   H4X 4598   1.712   2.122   9.426 -0.7698  0.8244 -1.8022
   34POPC   H4Y 4599   1.884   2.115   9.412 -1.1554 -0.3532 -0.9908
   34POPC   C35 4600   1.790   2.265   9.289  0.4557  0.2201  0.1726
   34POPC   H5X 4601   1.883   2.324   9.269  0.6303  0.3376  1.2792
   34POPC   H5Y 4602   1.704   2.334   9.298  0.0112 -0.2351 -0.5107
   34POPC   C36 4603   1.763   2.177   9.157 -0.3509  0.2992 -0.0750
   34POPC   H6X 4604   1.660   2.135   9.161 -0.3094  0.2853  0.8497
   34POPC   H6Y 4605   1.842   2.099   9.154 -1.1760 -0.5581 -3.0223
   34POPC   C37 4606   1.784   2.265   9.038 -0.1528  0.3551  0.4755
   34POPC   H7X 4607   1.888   2.302   9.030 -0.3357  0.6508 -0.7301
   34POPC   H7Y 4608   1.720   2.353   9.060  0.9061  1.0263  0.9394
   34POPC   C38 4609   1.736   2.208   8.906  0.8205 -0.2718  0.0129
   34POPC   H8X 4610   1.639   2.156   8.920 -0.3052 -0.0632 -5.0706
   34POPC   H8Y 4611   1.799   2.128   8.862 -0.0182 -1.1218  0.3022
   34POPC   C39 4612   1.701   2.305   8.799  0.9813 -0.6513 -0.3203
   34POPC   H9X 4613   1.783   2.378   8.782  1.9630 -1.8609 -0.9936
   34POPC   H9Y 4614   1.606   2.354   8.828  1.1572 -1.1857  1.2495
   34POPC  C310 4615   1.684   2.228   8.665  0.5764 -0.2639 -0.5367
   34POPC  H10X 4616   1.618   2.141   8.682  0.3233  0.1216  0.4785
   34POPC  H10Y 4617   1.784   2.190   8.632 -0.3953 -2.4576 -1.1608
   34POPC  C311 4618   1.627   2.304   8.544  0.5247  0.0477  0.6224
   34POPC  H11X 4619   1.538   2.367   8.566 -0.1080 -0.0875 -1.3992
   34POPC  H11Y 4620   1.597   2.228   8.469  0.7301  0.0104  0.5783
   34POPC  C312 4621   1.723   2.387   8.467 -0.2109 -0.1971  0.5146
   34POPC  H12X 4622   1.828   2.352   8.475  0.5546  1.9425  0.6279
   34POPC  H12Y 4623   1.722   2.489   8.512  0.6261  0.2116 -0.3575
   34POPC  C313 4624   1.683   2.414   8.317  0.2466  0.3282 -0.0951
   34POPC  H13X 4625   1.749   2.493   8.279  2.9211 -0.9806  1.5054
   34POPC  H13Y 4626   1.578   2.452   8.314  0.0997 -0.0254  0.3247
   34POPC  C314 4627   1.695   2.303   8.209 -0.7881  0.1082 -0.1188
   34POPC  H14X 4628   1.637   2.327   8.117  1.3472  0.9267 -1.3203
   34POPC  H14Y 4629   1.643   2.212   8.246  1.8832 -0.5525  2.2996
   34POPC  C315 4630   1.829   2.259   8.171 -0.1716  0.4669 -0.6384
   34POPC  H15X 4631   1.840   2.170   8.105 -1.9076  0.7910 -1.4120
   34POPC  H15Y 4632   1.872   2.226   8.268 -1.0138 -1.5849 -0.9057
   34POPC  C316 4633   1.917   2.356   8.100 -0.0239  0.0994  1.1545
   34POPC  H16X 4634   2.016   2.315   8.069 -0.2215  0.6179 -0.2279
   34POPC  H16Y 4635   1.936   2.456   8.144 -0.2892  1.3000 -1.2641
   34POPC  H16Z 4636   1.858   2.379   8.008  0.7607  1.1856  0.9059
   35POPC     N 4637   0.538   0.060  10.964  0.3988  0.2518  0.6112
   35POPC   C12 4638   0.582  -0.000  10.828  0.1889  0.5142  0.3721
   35POPC  H12A 4639   0.492  -0.038  10.783 -0.7575  1.5568  1.3033
   35POPC  H12B 4640   0.651  -0.078  10.857 -0.4151 -0.3878 -0.5365
   35POPC   C13 4641   0.462  -0.034  11.052 -0.3685  0.0091  0.3963
   35POPC  H13A 4642   0.515  -0.125  11.079  1.6616  1.1652  0.4762
   35POPC  H13B 4643   0.438   0.023  11.140 -0.2705  1.2248 -0.3465
   35POPC  H13C 4644   0.374  -0.065  10.998  0.6385 -1.4106 -0.5304
   35POPC   C14 4645   0.662   0.103  11.039  0.8961 -0.0398 -0.0165
   35POPC  H14A 4646   0.633   0.133  11.138 -0.7650 -1.5629  0.0118
   35POPC  H14B 4647   0.736   0.025  11.039  0.2134 -0.7040  0.2920
   35POPC  H14C 4648   0.699   0.194  10.994 -3.4739  2.4426  0.7608
   35POPC   C15 4649   0.442   0.169  10.933  0.2658 -0.5414 -0.0262
   35POPC  H15A 4650   0.356   0.128  10.882 -1.5959  1.4934  1.3066
   35POPC  H15B 4651   0.496   0.239  10.871 -0.1011  0.3052  0.6066
   35POPC  H15C 4652   0.416   0.231  11.016 -0.3893 -0.8019 -0.0307
   35POPC   C11 4653   0.666   0.077  10.722 -0.1360 -0.2621 -0.3996
   35POPC  H11A 4654   0.612   0.169  10.691  0.1048  0.3365  0.8952
   35POPC  H11B 4655   0.671   0.021  10.626 -0.4495 -2.9170  1.0356
   35POPC     P 4656   0.901   0.005  10.792 -0.2955 -0.3394  0.2470
   35POPC   O13 4657   0.849  -0.109  10.874 -0.5472  0.5158 -0.3908
   35POPC   O14 4658   1.034   0.062  10.841 -0.0995  0.0760  0.2399
   35POPC   O12 4659   0.790   0.121  10.778  0.4764 -0.0421 -0.6531
   35POPC   O11 4660   0.917  -0.049  10.646  0.3489 -0.5369  0.2811
   35POPC    C1 4661   1.031  -0.014  10.561  0.9109 -1.0896  0.2868
   35POPC    HA 4662   1.060  -0.107  10.509 -0.5744 -1.9819  0.9767
   35POPC    HB 4663   1.114   0.036  10.616  0.1558 -1.1119  1.4820
   35POPC    C2 4664   0.973   0.066  10.446 -0.4672  0.6219  0.0561
   35POPC    HS 4665   1.059   0.071  10.376 -0.2223  0.3876  0.3379
   35POPC   O21 4666   0.926   0.187  10.495 -0.7436 -0.0437  0.3292
   35POPC   C21 4667   0.993   0.294  10.453  0.3195  0.1249  0.2202
   35POPC   O22 4668   1.100   0.289  10.389  0.6368 -0.2547  0.3029
   35POPC   C22 4669   0.908   0.421  10.481  0.1290  0.0573 -0.6086
   35POPC   H2R 4670   0.962   0.457  10.571  0.1880  1.6338 -1.2355
   35POPC   H2S 4671   0.804   0.390  10.506  0.4121 -1.4688 -1.2603
   35POPC    C3 4672   0.867   0.007  10.346  0.1209 -0.2804  0.0389
   35POPC    HX 4673   0.770   0.013  10.400  0.0043  1.9414 -0.3203
   35POPC    HY 4674   0.892  -0.100  10.331 -1.7961 -0.6244 -0.9324
   35POPC   O31 4675   0.876   0.074  10.216  0.1981  0.2722  0.8357
   35POPC   C31 4676   0.774   0.039  10.139  0.0629  0.6076 -0.0007
   35POPC   O32 4677   0.688  -0.044  10.157  0.5492 -0.2765  0.3121
   35POPC   C32 4678   0.770   0.147  10.038  0.4241 -0.3669 -0.0777
   35POPC   H2X 4679   0.873   0.176  10.006  0.6027 -0.8197  0.0849
   35POPC   H2Y 4680   0.729   0.235  10.092  0.0818 -2.1266  2.6810
   35POPC   C23 4681   0.911   0.537  10.378  0.0454 -0.0675 -0.2429
   35POPC   H3R 4682   1.009   0.553  10.329  0.6536 -0.2757  0.8992
   35POPC   H3S 4683   0.891   0.633  10.430 -0.2857  0.1772 -0.8046
   35POPC   C24 4684   0.810   0.506  10.266  0.3717 -0.1236 -0.3276
   35POPC   H4R 4685   0.708   0.500  10.310  0.0189  0.9345 -0.9554
   35POPC   H4S 4686   0.852   0.407  10.236  1.4505  0.4263 -0.6799
   35POPC   C25 4687   0.794   0.605  10.151 -0.0353  0.0138 -0.2866
   35POPC   H5R 4688   0.768   0.703  10.198 -3.2320 -0.8328 -0.0133
   35POPC   H5S 4689   0.714   0.586  10.076  0.8024  2.5468 -1.9755
   35POPC   C26 4690   0.927   0.617  10.070  0.7541 -0.4052  0.1056
   35POPC   H6R 4691   1.010   0.648  10.136 -0.0930  0.1909  0.9060
   35POPC   H6S 4692   0.915   0.693   9.990  0.5934  0.9584  1.3850
   35POPC   C27 4693   0.958   0.482   9.998  0.3015 -0.2756 -0.7770
   35POPC   H7R 4694   0.871   0.455   9.934  0.1811 -0.4211 -0.5514
   35POPC   H7S 4695   0.968   0.398  10.070  3.8579  0.3669 -0.3697
   35POPC   C28 4696   1.081   0.486   9.909 -0.4249 -0.0790  0.3189
   35POPC   H8R 4697   1.177   0.488   9.963  0.7122  1.4873 -1.6528
   35POPC   H8S 4698   1.090   0.579   9.850  1.5625  0.2433  1.0859
   35POPC   C29 4699   1.080   0.380   9.808 -0.7166  0.2376  0.9205
   35POPC   H91 4700   1.138   0.293   9.842  2.1058  2.3207  1.9080
   35POPC  C210 4701   1.033   0.383   9.678 -0.6454 -0.5389  0.4178
   35POPC  H101 4702   1.038   0.310   9.596 -2.7407  3.2057 -3.3737
   35POPC  C211 4703   0.967   0.509   9.620  0.0508 -0.5084  0.5907
   35POPC  H11R 4704   1.021   0.539   9.528 -0.6070  0.5841  0.5377
   35POPC  H11S 4705   0.991   0.596   9.684  1.5625  0.0315 -0.6514
   35POPC  C212 4706   0.820   0.478   9.596 -0.4566  0.1348 -0.4786
   35POPC  H12R 4707   0.772   0.578   9.591 -1.1343 -0.1766 -0.3200
   35POPC  H12S 4708   0.775   0.425   9.683  3.2799 -1.6073  0.6126
   35POPC  C213 4709   0.792   0.407   9.472  0.1946 -0.1792  0.1861
   35POPC  H13R 4710   0.689   0.367   9.459  0.8602 -0.9731 -3.9232
   35POPC  H13S 4711   0.853   0.315   9.481 -0.4879 -0.6083  0.4469
   35POPC  C214 4712   0.833   0.480   9.338 -0.4345  0.0510  0.2504
   35POPC  H14R 4713   0.940   0.455   9.321 -0.2825  0.8934 -0.0737
   35POPC  H14S 4714   0.835   0.586   9.369  2.5306 -0.5205  2.4337
   35POPC  C215 4715   0.750   0.443   9.213 -0.2545  0.3112 -0.3423
   35POPC  H15R 4716   0.787   0.502   9.126  0.4464 -0.3358 -0.5019
   35POPC  H15S 4717   0.647   0.484   9.216 -0.8338 -1.0792 -0.2943
   35POPC  C216 4718   0.733   0.298   9.192  0.2215  0.2899  0.0562
   35POPC  H16R 4719   0.673   0.286   9.099  1.7754  0.8937 -1.0813
   35POPC  H16S 4720   0.676   0.243   9.269  0.2341  1.2815  0.7915
   35POPC  C217 4721   0.861   0.234   9.156 -0.5117  0.9174  0.0279
   35POPC  H17R 4722   0.937   0.241   9.237  1.9455 -0.9593 -1.8958
   35POPC  H17S 4723   0.905   0.282   9.066 -1.5934  4.3771  1.2158
   35POPC  C218 4724   0.842   0.084   9.127  0.0585 -0.3375 -0.5299
   35POPC  H18R 4725   0.764   0.026   9.181  0.7255 -1.1362 -0.3958
   35POPC  H18S 4726   0.937   0.028   9.145  0.1292 -0.8716 -2.3352
   35POPC  H18T 4727   0.825   0.083   9.018  0.6917 -0.4989 -0.6297
   35POPC   C33 4728   0.692   0.097   9.913 -0.1271 -0.0762  0.0239
   35POPC   H3X 4729   0.586   0.087   9.943 -0.7013  0.2470 -1.7842
   35POPC   H3Y 4730   0.729  -0.003   9.882 -1.0483  0.0792 -1.6981
   35POPC   C34 4731   0.709   0.181   9.797 -0.1115 -0.3321 -0.3309
   35POPC   H4X 4732   0.816   0.173   9.768  0.6365  4.1135  0.5016
   35POPC   H4Y 4733   0.701   0.288   9.825  3.3616  0.1905 -0.8835
   35POPC   C35 4734   0.628   0.151   9.667  0.3726 -0.4687 -0.0957
   35POPC   H5X 4735   0.665   0.220   9.587  0.1072 -0.3164 -0.0859
   35POPC   H5Y 4736   0.523   0.175   9.691  1.0167 -0.6110  3.4054
   35POPC   C36 4737   0.653   0.005   9.619  0.4966  0.1417 -0.8869
   35POPC   H6X 4738   0.580  -0.060   9.671  0.0210  0.6551 -0.9034
   35POPC   H6Y 4739   0.756  -0.033   9.632 -0.0125 -1.3804 -1.1468
   35POPC   C37 4740   0.630  -0.024   9.470  0.5485 -0.2240 -0.1357
   35POPC   H7X 4741   0.671  -0.126   9.456 -1.7554 -1.5453  1.9139
   35POPC   H7Y 4742   0.692   0.050   9.415 -0.3961  1.7265  1.3011
   35POPC   C38 4743   0.488  -0.012   9.417 -0.2143 -0.2332  0.2416
   35POPC   H8X 4744   0.449   0.092   9.418  0.3660 -0.0147  1.4212
   35POPC   H8Y 4745   0.420  -0.077   9.475 -0.2864  0.0675  0.4939
   35POPC   C39 4746   0.471  -0.065   9.267 -0.1418  0.3938 -0.0375
   35POPC   H9X 4747   0.543  -0.147   9.244 -1.3766 -0.9507  0.7371
   35POPC   H9Y 4748   0.519   0.010   9.200  1.7239 -0.2340  0.5260
   35POPC  C310 4749   0.331  -0.111   9.227 -0.0594 -0.1743  0.1362
   35POPC  H10X 4750   0.259  -0.026   9.219 -1.6938 -1.5816 -0.9267
   35POPC  H10Y 4751   0.296  -0.176   9.309  1.1737  0.6374  1.3360
   35POPC  C311 4752   0.344  -0.175   9.086 -0.1465 -0.0390 -0.1005
   35POPC  H11X 4753   0.397  -0.272   9.090  0.7965  0.1883 -3.7652
   35POPC  H11Y 4754   0.415  -0.113   9.028 -1.1732  1.8835  0.6007
   35POPC  C312 4755   0.212  -0.161   9.001 -0.1462 -0.4544  0.5818
   35POPC  H12X 4756   0.222  -0.191   8.895  2.0829  1.6839  0.0698
   35POPC  H12Y 4757   0.195  -0.051   9.005 -1.2317 -0.6361  2.9866
   35POPC  C313 4758   0.090  -0.235   9.060 -0.6540  0.4851  0.3911
   35POPC  H13X 4759   0.075  -0.183   9.157  1.5933 -0.3930  1.2827
   35POPC  H13Y 4760   0.111  -0.344   9.072 -0.9067  0.1418 -1.8698
   35POPC  C314 4761  -0.043  -0.220   8.990  0.4249  0.0958  0.6423
   35POPC  H14X 4762  -0.028  -0.245   8.882  0.6462  1.3070  0.3816
   35POPC  H14Y 4763  -0.072  -0.114   9.004 -1.3500 -0.6151  3.0290
   35POPC  C315 4764  -0.159  -0.301   9.044 -0.0969 -0.0520  0.1236
   35POPC  H15X 4765  -0.165  -0.272   9.151  2.5022  2.8360 -0.3733
   35POPC  H15Y 4766  -0.145  -0.411   9.046  0.3893  0.0139  0.8141
   35POPC  C316 4767  -0.294  -0.267   8.980  0.3145  0.9617 -0.3052
   35POPC  H16X 4768  -0.375  -0.307   9.044 -0.2081  0.0712 -1.4881
   35POPC  H16Y 4769  -0.296  -0.312   8.878 -3.3254  1.0590 -0.3969
   35POPC  H16Z 4770  -0.298  -0.157   8.973  2.2215  1.2201  1.6167
   36POPC     N 4771   0.477   4.645  11.188 -0.2558 -0.2786 -0.0946
   36POPC   C12 4772   0.410   4.727  11.085 -0.5253  0.4121  0.0690
   36POPC  H12A 4773   0.482   4.756  11.009  0.3675  0.7775  1.0240
   36POPC  H12B 4774   0.376   4.822  11.122 -1.4804  0.4318 -0.7956
   36POPC   C13 4775   0.607   4.698  11.239 -0.2252  0.4606  0.2718
   36POPC  H13A 4776   0.603   4.805  11.257  2.8403  0.8037 -0.5449
   36POPC  H13B 4777   0.642   4.644  11.325 -1.0501  0.4403  0.5982
   36POPC  H13C 4778   0.678   4.684  11.158 -1.7685  0.4180 -1.1345
   36POPC   C14 4779   0.388   4.636  11.303  0.3533 -0.3745  0.0049
   36POPC  H14A 4780   0.380   4.729  11.358  0.5997 -0.2595 -0.1529
   36POPC  H14B 4781   0.287   4.609  11.276  0.2681 -0.5230  0.4568
   36POPC  H14C 4782   0.427   4.563  11.373 -0.1439  0.5231  1.2490
   36POPC   C15 4783   0.499   4.507  11.133  0.7179  0.3360 -0.4146
   36POPC  H15A 4784   0.417   4.469  11.074 -0.9427 -2.0146  3.0474
   36POPC  H15B 4785   0.508   4.426  11.204 -0.1119  1.3904  0.9462
   36POPC  H15C 4786   0.579   4.499  11.061  0.0444 -0.7299 -1.0760
   36POPC   C11 4787   0.293   4.663  11.013  0.4363 -0.2488 -0.0807
   36POPC  H11A 4788   0.319   4.571  10.956  1.0008  0.5622 -1.1563
   36POPC  H11B 4789   0.259   4.738  10.938 -0.7945  0.7096  1.3747
   36POPC     P 4790   0.059   4.719  11.134 -0.0367 -0.1730 -0.2631
   36POPC   O13 4791   0.081   4.855  11.081 -0.0412  0.3175 -0.7075
   36POPC   O14 4792   0.034   4.716  11.278  0.0385 -0.4999  0.0809
   36POPC   O12 4793   0.186   4.637  11.106 -0.3385 -0.1768  0.2203
   36POPC   O11 4794  -0.058   4.652  11.052  0.2081 -0.0952  0.0689
   36POPC    C1 4795  -0.048   4.557  10.951 -0.2071  0.0372 -0.0892
   36POPC    HA 4796  -0.106   4.464  10.972  0.4911 -0.2319  0.7050
   36POPC    HB 4797   0.058   4.525  10.940  0.1622  0.9815  0.6373
   36POPC    C2 4798  -0.107   4.616  10.817  0.2142 -0.3338 -0.2151
   36POPC    HS 4799  -0.101   4.538  10.739  3.1383 -1.4457  0.9745
   36POPC   O21 4800  -0.035   4.731  10.774  0.2752 -0.6338  0.3770
   36POPC   C21 4801   0.079   4.697  10.717  0.0289 -0.7180  0.1433
   36POPC   O22 4802   0.116   4.578  10.704  0.2013  0.0393 -0.1058
   36POPC   C22 4803   0.157   4.818  10.669  0.2199  0.1476 -0.3771
   36POPC   H2R 4804   0.175   4.881  10.758 -0.9664  0.0595 -0.0557
   36POPC   H2S 4805   0.092   4.879  10.603  0.2955  1.2766  0.5752
   36POPC    C3 4806  -0.258   4.659  10.850  0.0369 -0.4516  0.2707
   36POPC    HX 4807  -0.247   4.716  10.945  1.0083 -0.1983  0.0186
   36POPC    HY 4808  -0.318   4.568  10.870 -0.9682  0.0872 -0.1924
   36POPC   O31 4809  -0.313   4.737  10.746  0.4648  0.3772 -0.2140
   36POPC   C31 4810  -0.340   4.692  10.621 -0.1765  0.7904 -0.3745
   36POPC   O32 4811  -0.329   4.578  10.581  0.3153 -0.5762 -0.4112
   36POPC   C32 4812  -0.395   4.804  10.536 -0.3544 -0.1126  0.1436
   36POPC   H2X 4813  -0.313   4.875  10.511 -2.1381  1.5777 -1.0958
   36POPC   H2Y 4814  -0.479   4.850  10.592 -1.0714 -2.8017  1.4637
   36POPC   C23 4815   0.288   4.778  10.606 -0.1312 -0.6528  0.2636
   36POPC   H3R 4816   0.324   4.686  10.657 -0.4647 -1.1832 -0.4502
   36POPC   H3S 4817   0.375   4.845  10.622  0.2817 -1.0697 -0.2117
   36POPC   C24 4818   0.285   4.746  10.455  0.3686  0.1210 -0.6260
   36POPC   H4R 4819   0.300   4.842  10.401  0.3475  1.1596  1.1427
   36POPC   H4S 4820   0.185   4.704  10.429 -0.3204  1.7055 -0.6931
   36POPC   C25 4821   0.390   4.647  10.409  0.4500  0.2938 -0.6167
   36POPC   H5R 4822   0.378   4.569  10.488 -0.3026  1.6545  0.6677
   36POPC   H5S 4823   0.491   4.693  10.413  0.1180  1.2902 -2.5527
   36POPC   C26 4824   0.370   4.576  10.272 -0.2487 -0.3931 -0.6526
   36POPC   H6R 4825   0.380   4.645  10.185  0.0378 -1.1594 -1.2382
   36POPC   H6S 4826   0.271   4.527  10.272 -0.9302  0.8707  0.9395
   36POPC   C27 4827   0.476   4.467  10.246 -0.4104  0.4629  0.2721
   36POPC   H7R 4828   0.474   4.388  10.324  0.0001  0.8877  0.7286
   36POPC   H7S 4829   0.572   4.523  10.251  0.7549 -1.4914  0.3894
   36POPC   C28 4830   0.463   4.399  10.113 -0.0099  0.3658 -0.3177
   36POPC   H8R 4831   0.547   4.326  10.109  0.8391  1.2323  0.9571
   36POPC   H8S 4832   0.469   4.479  10.037  1.5924 -2.2614 -3.2145
   36POPC   C29 4833   0.335   4.324  10.094  0.3641  0.1541  0.4933
   36POPC   H91 4834   0.296   4.263  10.176 -1.6976 -2.2772 -2.1014
   36POPC  C210 4835   0.257   4.331   9.984 -0.2904 -0.7502 -0.1903
   36POPC  H101 4836   0.156   4.289   9.995 -0.3487 -0.3577  0.8202
   36POPC  C211 4837   0.281   4.414   9.861 -0.3377  1.3373 -0.2090
   36POPC  H11R 4838   0.326   4.511   9.893 -0.8791  0.6855  2.7952
   36POPC  H11S 4839   0.189   4.432   9.802  0.0665  1.0608 -0.9382
   36POPC  C212 4840   0.390   4.359   9.766 -0.1664  0.0334 -0.0874
   36POPC  H12R 4841   0.347   4.263   9.730 -0.5766  0.0404  0.3683
   36POPC  H12S 4842   0.482   4.349   9.829 -0.5959  0.5190  0.6350
   36POPC  C213 4843   0.402   4.451   9.647 -0.5200  0.0809  1.1137
   36POPC  H13R 4844   0.497   4.432   9.593 -1.4775 -0.9727 -0.3039
   36POPC  H13S 4845   0.393   4.555   9.684  0.7522  0.8360 -0.5591
   36POPC  C214 4846   0.292   4.433   9.542 -0.9293  0.0643  0.3974
   36POPC  H14R 4847   0.207   4.382   9.592 -0.5284 -1.0561 -0.0374
   36POPC  H14S 4848   0.325   4.367   9.459 -1.7942 -0.6794  0.6354
   36POPC  C215 4849   0.249   4.569   9.488  0.1775 -0.3827  0.2337
   36POPC  H15R 4850   0.342   4.618   9.452  1.2890 -3.4900 -1.5866
   36POPC  H15S 4851   0.207   4.624   9.574 -0.9531 -3.0487  1.4913
   36POPC  C216 4852   0.163   4.564   9.364 -0.1607 -0.1364  1.2411
   36POPC  H16R 4853   0.109   4.661   9.365 -0.7421 -0.4596  1.9226
   36POPC  H16S 4854   0.079   4.491   9.374  0.1915 -0.4405  2.0880
   36POPC  C217 4855   0.243   4.552   9.233 -0.6986 -0.2487  0.0593
   36POPC  H17R 4856   0.323   4.475   9.242 -1.4563 -1.3700 -2.1218
   36POPC  H17S 4857   0.301   4.645   9.216 -1.9675  0.2956 -1.4544
   36POPC  C218 4858   0.160   4.523   9.108 -0.2564  0.3224 -0.5826
   36POPC  H18R 4859   0.224   4.498   9.020  1.0050  0.6754  0.2035
   36POPC  H18S 4860   0.090   4.607   9.087 -1.1341  0.1471  1.4415
   36POPC  H18T 4861   0.084   4.443   9.122  1.1444 -0.7924  1.0705
   36POPC   C33 4862  -0.437   4.744  10.398 -0.0708 -0.0663  0.4566
   36POPC   H3X 4863  -0.519   4.670  10.415  0.5651 -0.4292  2.0967
   36POPC   H3Y 4864  -0.350   4.688  10.357  0.2052  0.4770  0.2948
   36POPC   C34 4865  -0.479   4.858  10.300 -0.2034 -0.5475  0.3425
   36POPC   H4X 4866  -0.403   4.938  10.304  0.7790 -1.4241 -0.3132
   36POPC   H4Y 4867  -0.560   4.902  10.362  1.4456 -0.5142  2.5959
   36POPC   C35 4868  -0.528   4.819  10.165  0.5063  0.8184 -0.1376
   36POPC   H5X 4869  -0.577   4.909  10.122  1.8184  1.2142 -0.8532
   36POPC   H5Y 4870  -0.596   4.731  10.159  2.7436 -1.0039 -0.3797
   36POPC   C36 4871  -0.413   4.797  10.064 -0.2727  0.7179  0.6119
   36POPC   H6X 4872  -0.373   4.695  10.085 -1.4678  0.2354  0.6370
   36POPC   H6Y 4873  -0.331   4.871  10.075  0.1083  0.6368 -1.3425
   36POPC   C37 4874  -0.477   4.810   9.923  0.1821 -0.0177  0.4883
   36POPC   H7X 4875  -0.518   4.913   9.922  1.2188  0.4416  2.1876
   36POPC   H7Y 4876  -0.560   4.739   9.902 -0.7747  1.3309 -0.4596
   36POPC   C38 4877  -0.362   4.807   9.819 -0.8067  0.4512  0.1473
   36POPC   H8X 4878  -0.313   4.708   9.831  0.7307  1.2599  0.8219
   36POPC   H8Y 4879  -0.287   4.884   9.847  0.9330 -0.7782 -1.0062
   36POPC   C39 4880  -0.398   4.809   9.668  0.4194  0.0465  0.3732
   36POPC   H9X 4881  -0.389   4.707   9.625  0.5632  0.5906 -0.9432
   36POPC   H9Y 4882  -0.322   4.874   9.619  0.2233 -0.2687 -0.3591
   36POPC  C310 4883  -0.532   4.876   9.630  0.3584 -0.1597  0.4662
   36POPC  H10X 4884  -0.554   4.975   9.675  0.6524  1.0209 -1.9023
   36POPC  H10Y 4885  -0.610   4.810   9.676 -1.4495  1.9245  0.5710
   36POPC  C311 4886  -0.558   4.882   9.476 -0.0716  0.9533  0.0544
   36POPC  H11X 4887  -0.667   4.899   9.465  0.2024  1.7021 -1.7771
   36POPC  H11Y 4888  -0.534   4.780   9.441 -3.7347 -0.1599  0.3817
   36POPC  C312 4889  -0.482   4.985   9.388 -0.2435  0.1014  0.4511
   36POPC  H12X 4890  -0.376   4.967   9.417 -0.2260  0.3673  0.5581
   36POPC  H12Y 4891  -0.514   5.087   9.421  0.4761  0.3931  0.2765
   36POPC  C313 4892  -0.498   4.971   9.240 -0.3740 -0.0734  0.0118
   36POPC  H13X 4893  -0.607   4.967   9.220 -0.3212  0.4217 -0.3860
   36POPC  H13Y 4894  -0.459   4.870   9.216 -1.1264 -0.6996  1.2907
   36POPC  C314 4895  -0.417   5.072   9.160 -0.7955  0.0634 -0.7464
   36POPC  H14X 4896  -0.321   5.072   9.215 -0.4063 -2.5266 -1.3246
   36POPC  H14Y 4897  -0.451   5.177   9.175  2.5747  1.1593  0.0663
   36POPC  C315 4898  -0.376   5.027   9.015  0.1473 -0.6544  0.1253
   36POPC  H15X 4899  -0.473   5.012   8.963 -0.4866  0.5640  0.9233
   36POPC  H15Y 4900  -0.321   4.930   9.013 -2.6482 -2.4956  2.5541
   36POPC  C316 4901  -0.307   5.142   8.942 -0.3379  0.7096  0.2412
   36POPC  H16X 4902  -0.220   5.174   9.004  0.4741 -1.0073  0.0327
   36POPC  H16Y 4903  -0.373   5.231   8.934  0.1629  1.2945  2.0570
   36POPC  H16Z 4904  -0.282   5.119   8.837  2.6178 -1.6073  1.3095
   37POPC     N 4905   5.899   0.339   6.472  0.0149  0.4263  0.4359
   37POPC   C12 4906   5.947   0.417   6.586 -0.5658 -0.2311  0.5091
   37POPC  H12A 4907   5.993   0.511   6.556  0.9529 -0.6948  1.3062
   37POPC  H12B 4908   6.031   0.366   6.630 -1.3449 -4.2529 -2.1435
   37POPC   C13 4909   5.858   0.198   6.512  0.0539 -0.0284 -0.1575
   37POPC  H13A 4910   5.821   0.147   6.424 -0.5159 -0.0353  0.0830
   37POPC  H13B 4911   5.930   0.145   6.572  0.1068  0.0599 -0.1427
   37POPC  H13C 4912   5.779   0.199   6.585  1.4354 -1.6267  1.4787
   37POPC   C14 4913   5.786   0.403   6.406  0.1269  0.0418 -0.5017
   37POPC  H14A 4914   5.699   0.392   6.469 -0.2741  1.0219 -0.8700
   37POPC  H14B 4915   5.800   0.509   6.393  2.7742 -0.2915 -0.9219
   37POPC  H14C 4916   5.770   0.375   6.303 -0.2170  0.7495 -0.6430
   37POPC   C15 4917   6.005   0.333   6.369 -0.0505  0.2293 -0.6829
   37POPC  H15A 4918   6.090   0.278   6.407 -0.6646 -0.0285  0.3883
   37POPC  H15B 4919   6.041   0.431   6.344  0.5869  0.3305  0.5577
   37POPC  H15C 4920   5.976   0.281   6.279  2.3684  0.7804 -1.8482
   37POPC   C11 4921   5.847   0.449   6.698 -0.4201 -0.0841 -1.0071
   37POPC  H11A 4922   5.788   0.539   6.671  0.0689  0.9840  1.2945
   37POPC  H11B 4923   5.902   0.483   6.787 -2.6851  1.9119 -0.2758
   37POPC     P 4924   5.610   0.348   6.724 -0.2374  0.3652  0.0793
   37POPC   O13 4925   5.556   0.212   6.707  0.0561  0.1574 -0.1905
   37POPC   O14 4926   5.572   0.438   6.617 -0.4562 -0.4256 -0.9147
   37POPC   O12 4927   5.762   0.349   6.741 -0.3122  0.5817  0.5478
   37POPC   O11 4928   5.545   0.409   6.857  0.1358 -0.3998  0.2578
   37POPC    C1 4929   5.594   0.376   6.984  0.0269 -0.9582 -0.8004
   37POPC    HA 4930   5.639   0.275   6.981  0.9659 -0.6065  0.6222
   37POPC    HB 4931   5.509   0.384   7.055 -0.4436  1.2394 -1.5263
   37POPC    C2 4932   5.705   0.477   7.026 -0.4320 -0.8843  0.1547
   37POPC    HS 4933   5.803   0.460   6.976  0.9442 -0.5692  2.6131
   37POPC   O21 4934   5.711   0.466   7.170  0.4882  0.0619 -0.2069
   37POPC   C21 4935   5.831   0.492   7.226 -0.2348 -0.7491  0.3280
   37POPC   O22 4936   5.939   0.503   7.166 -0.1332  0.4396  0.1004
   37POPC   C22 4937   5.794   0.522   7.371 -0.3423  0.0176 -0.7781
   37POPC   H2R 4938   5.717   0.448   7.403 -1.5731  2.0561  1.2542
   37POPC   H2S 4939   5.753   0.625   7.363  1.5630  0.7739 -1.3518
   37POPC    C3 4940   5.659   0.626   6.992  0.7053 -0.2785 -0.3436
   37POPC    HX 4941   5.557   0.646   7.031  0.5598 -0.5876 -0.5649
   37POPC    HY 4942   5.641   0.636   6.883 -1.1892 -0.1786 -0.0516
   37POPC   O31 4943   5.742   0.736   7.045  0.6207  0.3882 -0.3900
   37POPC   C31 4944   5.842   0.764   6.973 -0.0186 -0.4147  0.7215
   37POPC   O32 4945   5.865   0.731   6.855 -0.1679  0.4316 -0.1317
   37POPC   C32 4946   5.919   0.876   7.044  0.0301  0.0933 -0.2723
   37POPC   H2X 4947   5.862   0.971   7.059  0.8212  0.3742  1.0930
   37POPC   H2Y 4948   6.008   0.900   6.983 -0.2422  0.8979 -0.3659
   37POPC   C23 4949   5.911   0.507   7.474  0.5329 -0.0754 -0.0091
   37POPC   H3R 4950   6.002   0.564   7.446  0.3783  0.4668  0.5570
   37POPC   H3S 4951   5.948   0.404   7.488  3.3407  0.7411 -0.8422
   37POPC   C24 4952   5.864   0.563   7.610 -0.5668  0.3778  0.3848
   37POPC   H4R 4953   5.818   0.480   7.669  1.2536 -0.0385  1.2771
   37POPC   H4S 4954   5.778   0.633   7.618 -1.2390 -0.4089  0.1945
   37POPC   C25 4955   5.991   0.613   7.686 -0.1695 -0.4636 -0.0535
   37POPC   H5R 4956   6.012   0.710   7.635 -0.0882  0.8627  2.3766
   37POPC   H5S 4957   6.078   0.545   7.672  1.1420  0.9249  1.0797
   37POPC   C26 4958   5.971   0.626   7.837  0.0232 -0.4359  0.0174
   37POPC   H6R 4959   5.946   0.523   7.871 -0.3737  0.0485  1.2483
   37POPC   H6S 4960   5.884   0.687   7.867 -0.9579 -2.0421  0.5749
   37POPC   C27 4961   6.105   0.670   7.905  0.6489 -0.6985 -0.2011
   37POPC   H7R 4962   6.139   0.770   7.870  0.2374  0.5371  2.6785
   37POPC   H7S 4963   6.178   0.592   7.876  2.4382  0.5396  0.7875
   37POPC   C28 4964   6.100   0.669   8.056 -0.4768 -0.0889  0.4867
   37POPC   H8R 4965   6.200   0.697   8.097  1.2051 -3.2805 -1.0908
   37POPC   H8S 4966   6.079   0.566   8.093 -0.1822 -1.0318 -1.8502
   37POPC   C29 4967   6.007   0.773   8.098  0.0869  0.5040  0.1166
   37POPC   H91 4968   5.974   0.834   8.013  1.8298 -1.9656 -2.5128
   37POPC  C210 4969   5.977   0.808   8.220  0.1458  0.3774 -0.0471
   37POPC  H101 4970   5.901   0.886   8.241 -1.5525 -1.3678  0.6234
   37POPC  C211 4971   6.023   0.751   8.355  0.2891 -0.2540 -0.4584
   37POPC  H11R 4972   6.112   0.686   8.344  1.1746  1.1171 -1.7380
   37POPC  H11S 4973   5.951   0.677   8.398  0.4403  0.2684  0.7275
   37POPC  C212 4974   6.033   0.863   8.455 -0.0846  0.0663 -0.7973
   37POPC  H12R 4975   6.079   0.953   8.408  3.1476 -0.2685  1.4261
   37POPC  H12S 4976   6.104   0.836   8.536 -0.6135 -1.1427 -0.7139
   37POPC  C213 4977   5.897   0.901   8.517  0.4562  0.5073  0.2494
   37POPC  H13R 4978   5.865   0.812   8.576  1.7223  1.1459  1.9900
   37POPC  H13S 4979   5.816   0.918   8.443  0.8935 -0.5256 -0.5100
   37POPC  C214 4980   5.903   1.020   8.612  0.4978  0.7088  0.1712
   37POPC  H14R 4981   5.899   1.118   8.560 -0.2215  1.4726  1.5833
   37POPC  H14S 4982   5.990   1.009   8.681 -1.2099 -0.1432  2.3404
   37POPC  C215 4983   5.780   1.032   8.702 -0.7451 -0.1631 -0.8286
   37POPC  H15R 4984   5.765   0.938   8.760  0.7911  0.6991  1.0968
   37POPC  H15S 4985   5.687   1.037   8.642 -1.0195 -0.5725 -0.4420
   37POPC  C216 4986   5.805   1.146   8.798  0.3675 -0.3266 -0.0484
   37POPC  H16R 4987   5.909   1.138   8.836  0.8920 -0.4788 -1.4554
   37POPC  H16S 4988   5.739   1.135   8.887 -0.0057 -0.2652 -0.3123
   37POPC  C217 4989   5.772   1.290   8.744 -0.3668 -0.1304  0.5224
   37POPC  H17R 4990   5.688   1.306   8.674  1.9187  0.6430 -2.2267
   37POPC  H17S 4991   5.854   1.309   8.671  0.1583  3.1943  1.8060
   37POPC  C218 4992   5.801   1.404   8.848 -0.2196  0.2782 -0.4161
   37POPC  H18R 4993   5.903   1.382   8.884 -0.3231  1.1223  0.4489
   37POPC  H18S 4994   5.712   1.402   8.915 -0.3829 -1.4677 -0.6512
   37POPC  H18T 4995   5.807   1.502   8.795  0.2193 -0.4997 -1.8472
   37POPC   C33 4996   5.956   0.825   7.188  0.6620 -0.5957 -0.1258
   37POPC   H3X 4997   6.031   0.743   7.195  3.2129  1.1698 -3.3072
   37POPC   H3Y 4998   5.862   0.789   7.235  1.4666 -0.9998  1.2187
   37POPC   C34 4999   6.015   0.938   7.276 -0.3013  1.0026  0.0499
   37POPC   H4X 5000   5.938   1.018   7.286  0.9577  1.9485  3.1966
   37POPC   H4Y 5001   6.107   0.982   7.231 -0.5580  0.6393 -0.8504
   37POPC   C35 5002   6.047   0.872   7.410  0.2877  0.2751 -0.2661
   37POPC   H5X 5003   6.147   0.823   7.404 -0.4134 -1.3963  0.9698
   37POPC   H5Y 5004   5.981   0.789   7.444  1.6407 -0.8913 -0.3910
   37POPC   C36 5005   6.046   0.982   7.512  0.3060 -0.5498 -0.3180
   37POPC   H6X 5006   6.036   0.924   7.606 -0.6949 -1.8686 -1.1860
   37POPC   H6Y 5007   5.952   1.041   7.505  0.3564 -0.5015 -0.6004
   37POPC   C37 5008   6.174   1.070   7.506  0.4110  0.3990  0.8290
   37POPC   H7X 5009   6.157   1.170   7.552  0.4970  0.0799  1.5551
   37POPC   H7Y 5010   6.192   1.078   7.396  2.9290  0.7127  1.2167
   37POPC   C38 5011   6.299   1.010   7.568  0.1027 -0.3509  0.4537
   37POPC   H8X 5012   6.389   1.056   7.521 -0.7528 -0.1114 -1.0363
   37POPC   H8Y 5013   6.304   0.901   7.548 -2.8032 -0.5824  0.5433
   37POPC   C39 5014   6.296   1.029   7.719  0.2422 -0.7105 -0.4824
   37POPC   H9X 5015   6.190   1.005   7.741 -0.8132  2.2382 -1.8769
   37POPC   H9Y 5016   6.311   1.138   7.731 -1.9937 -0.4668  0.5577
   37POPC  C310 5017   6.403   0.955   7.794 -0.0866  0.3014 -0.5108
   37POPC  H10X 5018   6.498   1.004   7.765  0.0180  0.9259  0.7833
   37POPC  H10Y 5019   6.406   0.848   7.766  2.5059 -0.6969  2.8477
   37POPC  C311 5020   6.377   0.965   7.950 -0.0503 -0.0435 -0.2441
   37POPC  H11X 5021   6.280   0.921   7.979  0.6989 -1.6914 -0.0887
   37POPC  H11Y 5022   6.368   1.074   7.970 -1.7766 -0.5251  1.8937
   37POPC  C312 5023   6.496   0.905   8.026 -0.1703 -0.8741 -0.3668
   37POPC  H12X 5024   6.594   0.935   7.983  0.0977 -0.5255  0.4588
   37POPC  H12Y 5025   6.489   0.795   8.015 -1.0216 -0.6969 -1.8653
   37POPC  C313 5026   6.493   0.934   8.177  0.6658 -0.6169 -0.1511
   37POPC  H13X 5027   6.449   1.035   8.191  1.6843 -0.3799  1.5114
   37POPC  H13Y 5028   6.597   0.946   8.213  0.5323  1.7892 -0.4092
   37POPC  C314 5029   6.411   0.837   8.262 -0.4855 -0.1777 -0.2488
   37POPC  H14X 5030   6.321   0.794   8.212 -1.7056  0.2369  1.5092
   37POPC  H14Y 5031   6.393   0.892   8.356 -0.3782  0.8039 -0.7858
   37POPC  C315 5032   6.488   0.710   8.283  0.3220  0.4569 -0.6347
   37POPC  H15X 5033   6.596   0.725   8.302 -0.0339  1.0307  1.1753
   37POPC  H15Y 5034   6.482   0.646   8.193  1.6317  1.8692 -1.7558
   37POPC  C316 5035   6.429   0.625   8.404  0.4976 -0.3950  0.8940
   37POPC  H16X 5036   6.474   0.524   8.393 -2.4664 -2.0010  2.2506
   37POPC  H16Y 5037   6.318   0.616   8.400  0.5927 -1.5836  0.7772
   37POPC  H16Z 5038   6.450   0.670   8.504 -3.1595 -2.6651  2.9271
   38POPC     N 5039   0.188   5.065   6.071 -0.1906  0.2925 -0.2805
   38POPC   C12 5040   0.194   5.054   6.223 -0.8990  0.5059  0.1135
   38POPC  H12A 5041   0.093   5.054   6.260 -1.0824 -0.6489 -0.3209
   38POPC  H12B 5042   0.229   5.148   6.263  0.7979 -0.8315  1.9736
   38POPC   C13 5043   0.137   5.200   6.017  0.2080 -0.1573 -0.2164
   38POPC  H13A 5044   0.207   5.277   6.045  1.1277 -1.4448  1.1554
   38POPC  H13B 5045   0.118   5.203   5.911 -1.6603 -1.1327  0.0483
   38POPC  H13C 5046   0.046   5.230   6.066  0.8070 -0.2674  1.0116
   38POPC   C14 5047   0.324   5.040   6.008 -0.1092  0.0913 -0.9641
   38POPC  H14A 5048   0.306   5.001   5.909 -1.3299 -0.3791 -0.5831
   38POPC  H14B 5049   0.374   5.136   6.006  1.1597 -0.5064  0.5351
   38POPC  H14C 5050   0.387   4.968   6.057  0.4342  1.0572 -0.2205
   38POPC   C15 5051   0.090   4.964   6.010 -0.6374 -0.2340  0.1883
   38POPC  H15A 5052   0.139   4.868   5.999  1.2573  0.6575  0.4299
   38POPC  H15B 5053   0.070   4.997   5.909 -0.0169 -0.9923 -0.1862
   38POPC  H15C 5054  -0.007   4.954   6.056 -0.2834  0.2054  1.0736
   38POPC   C11 5055   0.272   4.931   6.277 -0.2993  0.0098 -0.3354
   38POPC  H11A 5056   0.238   4.845   6.214  2.4997  0.1855 -2.2405
   38POPC  H11B 5057   0.237   4.920   6.382 -0.7953 -0.0534 -0.5006
   38POPC     P 5058   0.508   5.040   6.334 -0.0538  0.2076  0.0581
   38POPC   O13 5059   0.454   5.178   6.316 -0.7140  0.3592  0.1247
   38POPC   O14 5060   0.645   5.016   6.279 -0.2940 -0.3532 -0.1316
   38POPC   O12 5061   0.411   4.942   6.257 -0.4242 -0.0192  0.1963
   38POPC   O11 5062   0.501   5.000   6.487  0.5228  0.0555 -0.0705
   38POPC    C1 5063   0.612   5.033   6.571  0.5052  0.3797 -0.0696
   38POPC    HA 5064   0.579   5.046   6.677  1.0936  1.1941  0.0293
   38POPC    HB 5065   0.658   5.130   6.542 -2.8485  1.9192 -0.7203
   38POPC    C2 5066   0.710   4.916   6.571  0.1108  0.6538  0.7364
   38POPC    HS 5067   0.733   4.900   6.463 -1.2561  2.4330  0.1299
   38POPC   O21 5068   0.651   4.802   6.633  0.2880 -0.0993 -0.1592
   38POPC   C21 5069   0.712   4.687   6.599 -0.6927 -0.0584  0.6967
   38POPC   O22 5070   0.819   4.669   6.543 -0.1338 -0.2970 -0.1701
   38POPC   C22 5071   0.610   4.574   6.617  0.4035 -0.4914 -0.2399
   38POPC   H2R 5072   0.591   4.528   6.517  3.2167  0.2605 -1.2326
   38POPC   H2S 5073   0.514   4.621   6.648  1.0470  1.9288 -1.6283
   38POPC    C3 5074   0.841   4.963   6.638  0.1923  0.0366 -0.0719
   38POPC    HX 5075   0.883   5.039   6.570  0.6227 -1.4193 -1.5149
   38POPC    HY 5076   0.920   4.885   6.643  1.6083  1.4884  1.0175
   38POPC   O31 5077   0.824   5.010   6.773  0.5019 -0.7434  0.4578
   38POPC   C31 5078   0.807   5.144   6.787  0.1273 -1.0510 -0.0179
   38POPC   O32 5079   0.834   5.231   6.706  0.1270  0.3198  0.4860
   38POPC   C32 5080   0.740   5.180   6.926  0.2911 -0.1524 -0.4785
   38POPC   H2X 5081   0.631   5.205   6.923  0.3391  0.2048  0.4411
   38POPC   H2Y 5082   0.799   5.269   6.956 -0.3719  0.9168 -2.1522
   38POPC   C23 5083   0.665   4.473   6.708  0.2254  0.6348  0.2590
   38POPC   H3R 5084   0.761   4.428   6.675 -0.4097 -0.2506 -0.4058
   38POPC   H3S 5085   0.591   4.391   6.708 -0.2258  1.0076  1.7675
   38POPC   C24 5086   0.691   4.524   6.857  0.2517  0.6498  1.1138
   38POPC   H4R 5087   0.791   4.573   6.864  1.5668 -1.5923 -0.4185
   38POPC   H4S 5088   0.706   4.425   6.905  0.7630  0.6637  0.9864
   38POPC   C25 5089   0.585   4.612   6.930  0.1034 -0.4361  0.6251
   38POPC   H5R 5090   0.492   4.554   6.913  1.8226 -3.1446 -0.2037
   38POPC   H5S 5091   0.565   4.708   6.877  0.7390  0.5123  2.0374
   38POPC   C26 5092   0.613   4.649   7.076  0.0827 -0.0434 -0.6143
   38POPC   H6R 5093   0.526   4.702   7.120  0.9776  0.1312  1.0401
   38POPC   H6S 5094   0.701   4.716   7.092  1.1852 -2.0914  3.0672
   38POPC   C27 5095   0.644   4.529   7.168 -0.2631 -0.1186  0.4883
   38POPC   H7R 5096   0.741   4.505   7.119 -0.5341  3.4345 -2.1631
   38POPC   H7S 5097   0.580   4.442   7.141 -1.4476  1.3145 -1.5677
   38POPC   C28 5098   0.657   4.558   7.318 -0.7081  0.5117  0.1906
   38POPC   H8R 5099   0.721   4.648   7.319 -0.7750  0.6508 -2.0076
   38POPC   H8S 5100   0.706   4.467   7.359 -0.4737  1.3155  1.7211
   38POPC   C29 5101   0.523   4.580   7.390 -0.4394  0.3918  0.2894
   38POPC   H91 5102   0.437   4.589   7.323  1.4127  4.1148 -1.9423
   38POPC  C210 5103   0.519   4.594   7.528  0.3479 -0.0713  0.0147
   38POPC  H101 5104   0.427   4.621   7.582  1.0656  0.4072  1.0248
   38POPC  C211 5105   0.635   4.575   7.621  0.2853  0.4285 -0.8928
   38POPC  H11R 5106   0.670   4.674   7.658 -0.4768 -0.1313  1.5210
   38POPC  H11S 5107   0.723   4.523   7.577  0.7065  0.1963  0.1846
   38POPC  C212 5108   0.598   4.488   7.745  0.2776 -0.0038 -0.3316
   38POPC  H12R 5109   0.691   4.454   7.794 -0.2210  0.2728  0.8250
   38POPC  H12S 5110   0.537   4.399   7.716  0.1801 -0.2890  0.7282
   38POPC  C213 5111   0.527   4.585   7.844  0.3406  0.1460  0.3817
   38POPC  H13R 5112   0.457   4.652   7.791  2.4413  1.4181 -0.9662
   38POPC  H13S 5113   0.606   4.653   7.882  0.9178 -0.9085  1.1277
   38POPC  C214 5114   0.446   4.511   7.956  0.2103 -0.4952 -0.2598
   38POPC  H14R 5115   0.358   4.459   7.912  0.9575 -0.6544 -1.6239
   38POPC  H14S 5116   0.408   4.576   8.037 -0.5566 -1.4369  0.1501
   38POPC  C215 5117   0.533   4.404   8.028 -0.4938 -0.0954 -0.1396
   38POPC  H15R 5118   0.633   4.439   8.062  0.3781 -0.5541 -2.1147
   38POPC  H15S 5119   0.555   4.325   7.953  0.5612 -1.6872  1.7540
   38POPC  C216 5120   0.458   4.339   8.138 -0.4501  0.0586  0.1704
   38POPC  H16R 5121   0.393   4.264   8.088  1.2490 -0.3081 -1.6532
   38POPC  H16S 5122   0.411   4.414   8.204 -0.3159  0.6360 -0.3871
   38POPC  C217 5123   0.547   4.244   8.224 -0.5152 -0.3254 -0.1140
   38POPC  H17R 5124   0.613   4.308   8.286 -2.4361  1.9033 -0.2118
   38POPC  H17S 5125   0.601   4.177   8.153 -0.6238 -0.6114  0.0715
   38POPC  C218 5126   0.460   4.141   8.310  0.3715 -0.1167 -0.1500
   38POPC  H18R 5127   0.519   4.061   8.358 -0.4188 -1.1301 -0.8255
   38POPC  H18S 5128   0.378   4.111   8.240  0.0286 -2.3447  1.1300
   38POPC  H18T 5129   0.417   4.204   8.391  0.4437 -0.7496  0.3858
   38POPC   C33 5130   0.737   5.068   7.035 -0.7038  0.5765  0.6685
   38POPC   H3X 5131   0.834   5.014   7.032 -1.8495 -1.5449 -0.0556
   38POPC   H3Y 5132   0.661   4.990   7.017  0.3296 -0.6082  1.2504
   38POPC   C34 5133   0.738   5.119   7.183  0.4195 -0.8605  0.6205
   38POPC   H4X 5134   0.634   5.152   7.200  0.3261 -1.0953  0.5106
   38POPC   H4Y 5135   0.796   5.214   7.188 -1.0670  0.1473 -0.3894
   38POPC   C35 5136   0.773   5.016   7.294  0.1996  0.0261  0.5805
   38POPC   H5X 5137   0.882   4.994   7.292  0.1744 -0.1729  1.2028
   38POPC   H5Y 5138   0.717   4.924   7.267 -0.0156  0.9099 -2.3109
   38POPC   C36 5139   0.740   5.063   7.442  0.4253  0.4301  0.1626
   38POPC   H6X 5140   0.632   5.088   7.455  0.6763  2.7207 -1.5157
   38POPC   H6Y 5141   0.800   5.152   7.470  1.3122  0.0783 -0.5663
   38POPC   C37 5142   0.769   4.958   7.547 -0.6583 -0.6234 -0.1806
   38POPC   H7X 5143   0.868   4.908   7.536 -0.3597  0.1090 -0.9513
   38POPC   H7Y 5144   0.691   4.880   7.535 -1.6002  0.4835 -1.6855
   38POPC   C38 5145   0.752   5.018   7.687  0.1830  0.2881 -0.3954
   38POPC   H8X 5146   0.653   5.069   7.692  0.0595 -0.0237  3.9870
   38POPC   H8Y 5147   0.834   5.089   7.714  1.2188 -1.1201  0.2936
   38POPC   C39 5148   0.730   4.908   7.786 -0.2064  1.0310 -0.4925
   38POPC   H9X 5149   0.812   4.832   7.792 -0.0703  1.2052 -0.1138
   38POPC   H9Y 5150   0.642   4.857   7.741 -0.4787  0.9222  0.1497
   38POPC  C310 5151   0.694   4.958   7.922 -0.0827  0.2371 -0.1401
   38POPC  H10X 5152   0.692   4.866   7.985  1.6895  0.1114 -0.2136
   38POPC  H10Y 5153   0.587   4.984   7.913 -0.6274 -1.5577  0.6588
   38POPC  C311 5154   0.784   5.065   7.992  0.0211  0.4186  0.1553
   38POPC  H11X 5155   0.728   5.114   8.074 -1.1581 -1.2665  0.4157
   38POPC  H11Y 5156   0.814   5.139   7.915 -1.3441 -0.2016 -1.0287
   38POPC  C312 5157   0.916   5.002   8.041  0.2072  0.3384 -0.0667
   38POPC  H12X 5158   0.977   4.980   7.951  0.5453 -1.3728  0.5469
   38POPC  H12Y 5159   0.897   4.910   8.100  0.2603 -0.6365 -1.5026
   38POPC  C313 5160   0.996   5.116   8.113  0.3886 -0.3730  0.1750
   38POPC  H13X 5161   0.984   5.207   8.050 -1.1716 -0.9964 -0.4678
   38POPC  H13Y 5162   1.104   5.096   8.132  0.0928 -1.5819  0.6484
   38POPC  C314 5163   0.948   5.129   8.259 -0.7399  0.0153 -0.6917
   38POPC  H14X 5164   0.924   5.029   8.303  0.9186  0.0812  0.4922
   38POPC  H14Y 5165   0.856   5.190   8.264  0.4067  1.7177  1.3932
   38POPC  C315 5166   1.060   5.195   8.350  0.2095 -0.4182  0.0766
   38POPC  H15X 5167   1.085   5.291   8.301  0.8296 -0.9271 -0.6134
   38POPC  H15Y 5168   1.142   5.120   8.348  1.9510  1.4125 -0.2354
   38POPC  C316 5169   0.998   5.219   8.478  0.3501 -0.2542 -0.0263
   38POPC  H16X 5170   0.960   5.119   8.508  0.5552 -0.5747 -0.7980
   38POPC  H16Y 5171   0.926   5.303   8.478 -1.1848 -1.5020 -1.5578
   38POPC  H16Z 5172   1.068   5.239   8.562 -0.9851  0.0237  1.0607
   39POPC     N 5173   3.172   0.609   6.328  0.6361 -0.2338 -0.1436
   39POPC   C12 5174   3.208   0.754   6.329  0.0612 -0.4891 -0.7459
   39POPC  H12A 5175   3.226   0.780   6.225  2.3025 -1.0231 -0.5396
   39POPC  H12B 5176   3.300   0.760   6.385  0.0344 -1.0179 -0.6390
   39POPC   C13 5177   3.278   0.529   6.268 -0.3072  0.2049 -0.2176
   39POPC  H13A 5178   3.243   0.427   6.265 -0.5664  0.2739  0.3162
   39POPC  H13B 5179   3.303   0.557   6.167 -0.0388 -1.3083 -0.5950
   39POPC  H13C 5180   3.374   0.524   6.317 -0.1695  0.5193 -0.4579
   39POPC   C14 5181   3.148   0.549   6.471 -0.5857  0.6277 -0.1201
   39POPC  H14A 5182   3.240   0.565   6.525 -0.3146 -0.6209 -0.1840
   39POPC  H14B 5183   3.062   0.597   6.515 -1.7577  0.4138 -2.0354
   39POPC  H14C 5184   3.134   0.442   6.468  0.3786  0.4627  0.7690
   39POPC   C15 5185   3.047   0.588   6.254 -0.0304 -0.0253  0.1107
   39POPC  H15A 5186   3.066   0.584   6.148  4.3374 -1.2594  0.7840
   39POPC  H15B 5187   2.971   0.660   6.282 -1.0440 -1.6364  1.7921
   39POPC  H15C 5188   3.015   0.488   6.280  1.8403 -0.9131 -0.8525
   39POPC   C11 5189   3.104   0.853   6.396  0.0689 -0.3018 -0.3025
   39POPC  H11A 5190   3.139   0.954   6.425 -3.7157  1.3263 -0.7684
   39POPC  H11B 5191   3.073   0.805   6.492 -0.1242 -0.5910 -0.5049
   39POPC     P 5192   2.972   0.911   6.181  0.1806 -0.0275  0.0820
   39POPC   O13 5193   2.844   0.864   6.119 -0.1672 -0.0676 -0.0974
   39POPC   O14 5194   3.098   0.892   6.104 -0.0162 -0.1793  0.0959
   39POPC   O12 5195   2.985   0.857   6.324 -0.4194  0.1682  0.0366
   39POPC   O11 5196   2.956   1.064   6.211 -0.5181 -0.3104 -0.3553
   39POPC    C1 5197   2.839   1.137   6.235  0.0464 -0.4187 -0.6914
   39POPC    HA 5198   2.757   1.090   6.177 -0.7249  2.1818 -1.8459
   39POPC    HB 5199   2.854   1.238   6.192  3.1409 -0.0926  0.8483
   39POPC    C2 5200   2.812   1.149   6.392 -0.2352  0.4215  0.6750
   39POPC    HS 5201   2.758   1.246   6.402  0.3893  1.1450 -2.0899
   39POPC   O21 5202   2.932   1.175   6.465 -0.3153  0.2792 -0.8165
   39POPC   C21 5203   3.020   1.267   6.433 -0.5609  0.2216  0.2210
   39POPC   O22 5204   2.993   1.367   6.370  0.0997 -0.1781  0.0421
   39POPC   C22 5205   3.156   1.217   6.492  0.6594 -0.3293  0.2718
   39POPC   H2R 5206   3.229   1.213   6.409  1.0226 -1.3334  0.6190
   39POPC   H2S 5207   3.143   1.116   6.536 -2.5072 -0.2791 -0.2909
   39POPC    C3 5208   2.734   1.031   6.460  0.2064  0.2569  0.2644
   39POPC    HX 5209   2.789   0.941   6.427 -1.2043 -0.0925 -1.2563
   39POPC    HY 5210   2.635   1.018   6.411  1.1387 -1.9405 -1.1346
   39POPC   O31 5211   2.728   1.033   6.606  0.2981 -0.0701  0.6223
   39POPC   C31 5212   2.663   1.140   6.650  0.0115 -0.2797 -0.7783
   39POPC   O32 5213   2.589   1.214   6.587  0.0013 -0.3270 -0.3158
   39POPC   C32 5214   2.670   1.134   6.804 -0.3495  0.5155 -0.0067
   39POPC   H2X 5215   2.597   1.053   6.825 -1.5634  0.8283 -2.6428
   39POPC   H2Y 5216   2.775   1.103   6.824 -0.8902 -3.3885 -2.2504
   39POPC   C23 5217   3.218   1.302   6.603  0.3363  0.1755  0.0177
   39POPC   H3R 5218   3.242   1.401   6.558 -0.9147 -0.9572 -3.4783
   39POPC   H3S 5219   3.316   1.254   6.622  0.7930  1.6494  1.6233
   39POPC   C24 5220   3.140   1.309   6.737 -0.1618 -0.1059  0.5707
   39POPC   H4R 5221   3.035   1.327   6.706 -0.5833  2.3628  2.9852
   39POPC   H4S 5222   3.179   1.397   6.794 -0.8824 -0.1471  1.1485
   39POPC   C25 5223   3.151   1.179   6.821  0.0617 -0.5899 -0.1165
   39POPC   H5R 5224   3.259   1.154   6.838  1.0693  1.8424 -2.3195
   39POPC   H5S 5225   3.104   1.099   6.760  1.4110 -0.3166 -1.5727
   39POPC   C26 5226   3.082   1.193   6.958  0.2372  0.2280  0.6047
   39POPC   H6R 5227   2.976   1.205   6.926  0.1775 -1.2142  0.1964
   39POPC   H6S 5228   3.114   1.285   7.011 -2.6582  1.3039  0.6968
   39POPC   C27 5229   3.093   1.066   7.045  0.0233  0.2798 -0.1048
   39POPC   H7R 5230   3.200   1.041   7.060 -0.2099 -1.9244 -1.5964
   39POPC   H7S 5231   3.058   0.978   6.987  0.0993  0.5383 -0.5504
   39POPC   C28 5232   3.009   1.074   7.172  0.0275 -0.1836 -0.8864
   39POPC   H8R 5233   3.011   0.976   7.225 -0.9066  0.7339  0.9371
   39POPC   H8S 5234   2.906   1.089   7.134 -0.4565 -0.5049  0.2603
   39POPC   C29 5235   3.065   1.185   7.263 -0.8996 -0.0346  0.2361
   39POPC   H91 5236   3.083   1.278   7.206  0.5585  0.4961  1.4849
   39POPC  C210 5237   3.076   1.192   7.396  0.1524 -0.3950 -0.9022
   39POPC  H101 5238   3.103   1.283   7.451 -0.1570 -1.1772  0.6183
   39POPC  C211 5239   3.042   1.068   7.485 -0.0415 -0.5365 -0.1897
   39POPC  H11R 5240   3.061   0.972   7.432  1.2323 -0.0217 -0.7169
   39POPC  H11S 5241   2.938   1.081   7.520 -0.9746  0.5998 -3.0816
   39POPC  C212 5242   3.139   1.080   7.608 -0.2772 -0.1776  0.0376
   39POPC  H12R 5243   3.132   1.181   7.655 -2.3388 -0.2480 -0.0643
   39POPC  H12S 5244   3.237   1.072   7.556 -0.9450 -0.2980 -1.2524
   39POPC  C213 5245   3.133   0.960   7.707  1.3676 -0.2870  0.7441
   39POPC  H13R 5246   3.172   0.870   7.653  1.9489  0.2004  0.3288
   39POPC  H13S 5247   3.027   0.944   7.733  0.9047  0.9726 -0.2853
   39POPC  C214 5248   3.213   0.976   7.838 -0.0712 -0.7781  0.1276
   39POPC  H14R 5249   3.179   1.057   7.905  0.9478  0.0837 -0.3728
   39POPC  H14S 5250   3.314   1.013   7.809 -0.2204  1.3450  2.0996
   39POPC  C215 5251   3.215   0.846   7.917 -0.1874 -0.3104  0.0466
   39POPC  H15R 5252   3.253   0.763   7.855 -0.8743 -2.1688  1.9816
   39POPC  H15S 5253   3.111   0.822   7.950  0.3038 -1.6096  0.7338
   39POPC  C216 5254   3.308   0.874   8.037 -0.1395  0.2931 -0.1081
   39POPC  H16R 5255   3.265   0.961   8.090  1.5915  1.5982 -0.7521
   39POPC  H16S 5256   3.409   0.909   8.006 -0.2136  0.8410  0.2502
   39POPC  C217 5257   3.311   0.763   8.146 -0.6219  0.2436  0.3582
   39POPC  H17R 5258   3.357   0.678   8.091  1.0138  1.2052  0.1457
   39POPC  H17S 5259   3.212   0.724   8.177 -0.9725  0.7872 -0.0630
   39POPC  C218 5260   3.394   0.804   8.268  0.7526  0.0333  0.2989
   39POPC  H18R 5261   3.386   0.728   8.349 -1.3827  0.4777  0.5384
   39POPC  H18S 5262   3.360   0.904   8.299  1.5588  1.2322 -2.3736
   39POPC  H18T 5263   3.501   0.817   8.240  0.7102 -0.1873  0.0256
   39POPC   C33 5264   2.632   1.260   6.877  0.8387 -0.3370 -0.2079
   39POPC   H3X 5265   2.543   1.308   6.830  0.3055 -0.0326  1.0729
   39POPC   H3Y 5266   2.718   1.329   6.872 -0.5571  1.4205 -2.2653
   39POPC   C34 5267   2.598   1.230   7.028  0.4366 -0.2964 -0.0712
   39POPC   H4X 5268   2.686   1.228   7.095  0.6128  0.5982 -0.2581
   39POPC   H4Y 5269   2.550   1.131   7.035 -0.8515  0.3483  0.4919
   39POPC   C35 5270   2.502   1.332   7.095  0.0267 -0.3252 -0.6291
   39POPC   H5X 5271   2.402   1.350   7.051 -0.5068  0.5426  0.8477
   39POPC   H5Y 5272   2.553   1.430   7.084 -0.3175 -0.1220 -0.4378
   39POPC   C36 5273   2.490   1.307   7.249 -0.9188  0.5440  0.4005
   39POPC   H6X 5274   2.586   1.317   7.304 -1.1118  0.3736  0.7681
   39POPC   H6Y 5275   2.443   1.207   7.263 -2.0272  1.1594  1.1850
   39POPC   C37 5276   2.399   1.413   7.314 -0.2275 -0.7529 -0.1508
   39POPC   H7X 5277   2.293   1.388   7.290 -0.1756 -1.7932  0.6150
   39POPC   H7Y 5278   2.421   1.516   7.278  1.8178 -1.1285 -0.0555
   39POPC   C38 5279   2.425   1.421   7.471 -0.4857 -0.2463  0.5732
   39POPC   H8X 5280   2.380   1.511   7.519 -0.2798 -0.1132  0.5169
   39POPC   H8Y 5281   2.530   1.420   7.508  0.7206 -0.0081 -2.5804
   39POPC   C39 5282   2.343   1.312   7.545 -0.0885  0.1990 -0.2448
   39POPC   H9X 5283   2.384   1.209   7.537 -0.4737  0.0855 -0.8491
   39POPC   H9Y 5284   2.248   1.308   7.487  0.5744 -0.2786 -1.3221
   39POPC  C310 5285   2.326   1.344   7.693  0.0073  0.1354  0.2310
   39POPC  H10X 5286   2.270   1.260   7.740 -0.7562  1.4336  1.7285
   39POPC  H10Y 5287   2.281   1.443   7.715  0.5559 -0.1846  3.1112
   39POPC  C311 5288   2.460   1.332   7.772  0.1029  0.4724 -0.6964
   39POPC  H11X 5289   2.521   1.421   7.749  1.0383  0.1319  0.3624
   39POPC  H11Y 5290   2.521   1.244   7.744 -0.0717 -0.0336  0.4392
   39POPC  C312 5291   2.430   1.328   7.923 -0.6410 -0.1016 -0.1633
   39POPC  H12X 5292   2.342   1.260   7.929 -0.5561 -0.4085 -1.8792
   39POPC  H12Y 5293   2.399   1.429   7.958 -0.2266  0.4505 -1.3370
   39POPC  C313 5294   2.542   1.266   8.012 -0.1026 -0.1708  0.1410
   39POPC  H13X 5295   2.624   1.341   8.016 -0.2442  0.2151 -2.3365
   39POPC  H13Y 5296   2.586   1.183   7.953 -3.2759 -0.4778 -2.0484
   39POPC  C314 5297   2.493   1.221   8.152  0.6344 -0.0269  0.3483
   39POPC  H14X 5298   2.416   1.141   8.146 -0.7331  1.3163 -0.8078
   39POPC  H14Y 5299   2.439   1.305   8.200  0.0203 -1.2103  1.7863
   39POPC  C315 5300   2.597   1.178   8.256  0.9653 -0.4464  0.3384
   39POPC  H15X 5301   2.658   1.271   8.263 -1.8506  1.5660 -0.3026
   39POPC  H15Y 5302   2.665   1.103   8.208 -0.9957 -0.1845 -3.1896
   39POPC  C316 5303   2.533   1.138   8.380  1.0804 -0.4757 -0.4884
   39POPC  H16X 5304   2.485   1.039   8.367  0.5725 -0.2678 -0.2076
   39POPC  H16Y 5305   2.459   1.214   8.413 -1.6182 -1.6506 -3.3459
   39POPC  H16Z 5306   2.607   1.134   8.464  1.4591 -0.8085 -0.8306
   40POPC     N 5307   3.309   5.214   5.926 -0.0372  0.3431  0.3049
   40POPC   C12 5308   3.162   5.206   5.931 -0.6315 -0.3451 -0.3090
   40POPC  H12A 5309   3.119   5.189   5.834  0.7464 -0.4481 -0.9293
   40POPC  H12B 5310   3.119   5.299   5.966  1.5050  0.8428 -0.6377
   40POPC   C13 5311   3.375   5.089   5.864  0.2935  0.5498  0.8057
   40POPC  H13A 5312   3.482   5.104   5.859  0.2387  0.5423 -0.9768
   40POPC  H13B 5313   3.358   5.003   5.927  1.9013  0.3056  0.9647
   40POPC  H13C 5314   3.341   5.075   5.763  0.6972  0.1566  0.7206
   40POPC   C14 5315   3.345   5.329   5.832 -0.0209  0.0844  0.0477
   40POPC  H14A 5316   3.453   5.340   5.830  0.1122 -0.9070  0.9303
   40POPC  H14B 5317   3.314   5.321   5.729 -1.0517 -2.4143  0.5061
   40POPC  H14C 5318   3.306   5.422   5.872  2.1122  0.8404  0.5347
   40POPC   C15 5319   3.372   5.243   6.059 -0.3758  0.2410  0.6148
   40POPC  H15A 5320   3.365   5.163   6.131 -3.9880 -0.9771 -0.8353
   40POPC  H15B 5321   3.319   5.321   6.112 -2.6583 -0.6298 -0.2499
   40POPC  H15C 5322   3.475   5.271   6.042 -0.1504 -0.2929  1.0771
   40POPC   C11 5323   3.106   5.090   6.022 -0.5099  0.8263  0.1474
   40POPC  H11A 5324   3.144   4.988   6.000 -1.0472  0.4858  0.7691
   40POPC  H11B 5325   2.996   5.079   6.010 -0.1749 -2.9237 -0.6025
   40POPC     P 5326   3.044   5.235   6.228 -0.0563 -0.1809 -0.6031
   40POPC   O13 5327   2.909   5.183   6.255 -0.4793 -0.1459 -0.0042
   40POPC   O14 5328   3.068   5.361   6.159 -0.4004  0.2235 -0.7480
   40POPC   O12 5329   3.134   5.119   6.159  0.2886 -0.2843  0.3947
   40POPC   O11 5330   3.109   5.256   6.371  0.3561 -0.7711 -0.9362
   40POPC    C1 5331   3.137   5.155   6.460  0.6477  1.0642  0.2989
   40POPC    HA 5332   3.247   5.139   6.461  0.7620  1.8433  0.7904
   40POPC    HB 5333   3.092   5.061   6.422 -0.7302  2.2230 -1.0586
   40POPC    C2 5334   3.088   5.199   6.611  0.0821  0.2611  0.0213
   40POPC    HS 5335   3.099   5.108   6.673 -1.3081 -0.3636 -0.6018
   40POPC   O21 5336   2.951   5.251   6.603  0.3427 -0.3321  0.2296
   40POPC   C21 5337   2.856   5.165   6.568 -0.9528 -0.1932  0.0211
   40POPC   O22 5338   2.876   5.045   6.567  0.6585  0.3592 -0.0147
   40POPC   C22 5339   2.727   5.243   6.548  0.2622 -0.3386 -0.1860
   40POPC   H2R 5340   2.726   5.264   6.439 -0.8526 -0.4867 -0.2223
   40POPC   H2S 5341   2.728   5.343   6.595  0.5094 -1.3939  2.1791
   40POPC    C3 5342   3.168   5.310   6.674  0.0196 -0.7899 -0.9219
   40POPC    HX 5343   3.172   5.406   6.619  1.1261 -0.0038  0.4907
   40POPC    HY 5344   3.270   5.266   6.669  1.0860  1.2441  1.3670
   40POPC   O31 5345   3.137   5.320   6.818  0.0250  0.2645  0.8072
   40POPC   C31 5346   3.045   5.410   6.845 -0.8227  0.3946 -0.8262
   40POPC   O32 5347   2.989   5.488   6.770  0.1971 -0.4765  0.1880
   40POPC   C32 5348   3.015   5.387   6.995 -0.8273 -0.6416  1.0199
   40POPC   H2X 5349   3.109   5.382   7.054  0.9716 -2.6004 -1.7644
   40POPC   H2Y 5350   2.984   5.281   7.009  2.8302 -1.8567  1.0150
   40POPC   C23 5351   2.604   5.165   6.588  0.0403  0.4067 -0.8351
   40POPC   H3R 5352   2.598   5.057   6.564 -0.4820  0.1236  0.4404
   40POPC   H3S 5353   2.516   5.219   6.548 -0.1470  2.2471  1.7571
   40POPC   C24 5354   2.582   5.152   6.739  0.7055  0.3486 -0.1119
   40POPC   H4R 5355   2.676   5.108   6.779  0.9879 -0.2367 -1.3698
   40POPC   H4S 5356   2.502   5.078   6.762  0.0017  1.0819 -0.1468
   40POPC   C25 5357   2.561   5.290   6.806  0.5468  0.4921  0.3534
   40POPC   H5R 5358   2.475   5.342   6.758 -1.5925 -3.2271 -0.2506
   40POPC   H5S 5359   2.646   5.361   6.805  0.4315  0.6340 -0.5834
   40POPC   C26 5360   2.523   5.258   6.949  0.2882 -0.3778  0.4170
   40POPC   H6R 5361   2.432   5.194   6.953  0.9535 -1.2563  2.2085
   40POPC   H6S 5362   2.501   5.352   7.003  2.7341  0.0369  0.8205
   40POPC   C27 5363   2.637   5.180   7.036  0.1831 -0.0349  0.9369
   40POPC   H7R 5364   2.722   5.248   7.018  1.8097 -2.0512  0.6683
   40POPC   H7S 5365   2.665   5.084   6.988  0.5918  1.7761 -2.7736
   40POPC   C28 5366   2.605   5.168   7.183  0.4190 -0.2421 -0.6180
   40POPC   H8R 5367   2.584   5.274   7.208  0.5563 -0.0491 -1.2911
   40POPC   H8S 5368   2.695   5.148   7.246 -0.1055 -2.3764 -0.4806
   40POPC   C29 5369   2.488   5.086   7.220  0.7407  0.6382  0.3065
   40POPC   H91 5370   2.411   5.084   7.141  1.7973  1.5898 -0.7831
   40POPC  C210 5371   2.474   5.020   7.337 -0.2966 -0.2037  0.8723
   40POPC  H101 5372   2.387   4.956   7.352  1.9565 -3.4573  1.0921
   40POPC  C211 5373   2.567   5.022   7.459 -0.0203  0.3324  0.2942
   40POPC  H11R 5374   2.672   5.034   7.424 -0.2107 -0.2257 -0.4910
   40POPC  H11S 5375   2.563   4.930   7.522 -2.7625  1.5173  2.0323
   40POPC  C212 5376   2.522   5.147   7.542 -0.4709  0.3681  0.3469
   40POPC  H12R 5377   2.421   5.112   7.573 -0.5499 -1.1422 -1.4036
   40POPC  H12S 5378   2.517   5.239   7.480  1.6074  0.5383  0.3707
   40POPC  C213 5379   2.611   5.185   7.652  0.0700 -0.4986 -0.8992
   40POPC  H13R 5380   2.712   5.201   7.609  0.9952 -0.8063  1.0465
   40POPC  H13S 5381   2.618   5.105   7.729 -0.9570  0.1486 -0.1084
   40POPC  C214 5382   2.549   5.309   7.720 -0.0084  0.1969 -0.3207
   40POPC  H14R 5383   2.456   5.277   7.770  1.4243 -1.2570  1.5653
   40POPC  H14S 5384   2.534   5.380   7.636 -0.1422  2.4662  1.5084
   40POPC  C215 5385   2.633   5.370   7.828 -0.1548 -0.1132  0.0225
   40POPC  H15R 5386   2.738   5.367   7.793 -0.5736 -1.7081 -1.2331
   40POPC  H15S 5387   2.635   5.289   7.905  4.0272  0.8262  1.1574
   40POPC  C216 5388   2.587   5.505   7.871 -0.2156  0.1447 -0.3298
   40POPC  H16R 5389   2.500   5.499   7.940  0.5038 -1.8347  0.4595
   40POPC  H16S 5390   2.555   5.572   7.788 -2.2277  1.0989  1.1235
   40POPC  C217 5391   2.685   5.585   7.959 -0.8481  0.5288  0.8574
   40POPC  H17R 5392   2.757   5.518   8.012 -0.6340 -0.7055 -0.9127
   40POPC  H17S 5393   2.630   5.640   8.038 -2.4256 -0.1251  0.2632
   40POPC  C218 5394   2.766   5.680   7.875  0.6343  0.2718 -0.1210
   40POPC  H18R 5395   2.698   5.749   7.819  1.9739  0.9832 -0.9165
   40POPC  H18S 5396   2.830   5.622   7.806 -0.2190  0.7140 -1.3256
   40POPC  H18T 5397   2.834   5.743   7.936 -0.0543 -0.0939  1.0602
   40POPC   C33 5398   2.915   5.498   7.045  0.1706  0.4107  0.5510
   40POPC   H3X 5399   2.818   5.501   6.992 -0.6200  0.2788  1.9372
   40POPC   H3Y 5400   2.967   5.595   7.031 -0.7758  0.6270 -2.0776
   40POPC   C34 5401   2.877   5.479   7.192  1.2256  0.1257  0.0679
   40POPC   H4X 5402   2.835   5.376   7.192  1.1821  0.1423 -0.1076
   40POPC   H4Y 5403   2.795   5.549   7.219  0.1792 -1.8088  2.2317
   40POPC   C35 5404   2.984   5.504   7.297 -0.1687 -0.1378 -0.9233
   40POPC   H5X 5405   3.008   5.610   7.276 -2.8359  0.4783 -1.1839
   40POPC   H5Y 5406   3.071   5.435   7.293 -0.0102  0.1133 -1.8835
   40POPC   C36 5407   2.926   5.493   7.442  0.1151 -0.2944  0.8139
   40POPC   H6X 5408   2.883   5.392   7.457  1.3161 -1.0918 -0.8549
   40POPC   H6Y 5409   2.841   5.565   7.447  0.0159 -0.3181 -0.4212
   40POPC   C37 5410   3.036   5.517   7.544 -0.6124  0.0579 -0.5863
   40POPC   H7X 5411   3.129   5.476   7.500  0.7208  1.8811  0.3738
   40POPC   H7Y 5412   3.022   5.474   7.645  4.0437 -1.8642 -0.4852
   40POPC   C38 5413   3.061   5.669   7.550  0.1344  0.4239  0.0771
   40POPC   H8X 5414   2.958   5.705   7.573 -0.6091 -1.3738 -0.2880
   40POPC   H8Y 5415   3.089   5.720   7.455  1.0970  0.7170  0.5097
   40POPC   C39 5416   3.158   5.716   7.662 -0.2391  0.3062 -0.3931
   40POPC   H9X 5417   3.135   5.689   7.767  0.7749  0.7143 -0.0477
   40POPC   H9Y 5418   3.149   5.826   7.664 -1.8578  0.1970 -0.7837
   40POPC  C310 5419   3.302   5.674   7.637  0.0798 -0.6932 -0.4207
   40POPC  H10X 5420   3.311   5.685   7.527 -1.4167  0.4515 -0.4535
   40POPC  H10Y 5421   3.304   5.565   7.660  1.7137 -1.4091 -3.4475
   40POPC  C311 5422   3.412   5.747   7.706 -0.5316 -0.5655 -0.5081
   40POPC  H11X 5423   3.406   5.731   7.816  1.3001 -1.1101 -0.4438
   40POPC  H11Y 5424   3.421   5.856   7.692  2.4137 -0.7462 -0.6943
   40POPC  C312 5425   3.544   5.678   7.685 -0.3604 -0.4861  0.0912
   40POPC  H12X 5426   3.540   5.572   7.719  0.4756 -0.3111  0.7882
   40POPC  H12Y 5427   3.626   5.726   7.743 -0.7962  1.3875 -0.7718
   40POPC  C313 5428   3.589   5.694   7.538  0.2412 -0.3100  0.4677
   40POPC  H13X 5429   3.562   5.798   7.510  2.4118  0.3872  0.7371
   40POPC  H13Y 5430   3.530   5.624   7.475  0.0046 -0.4500  0.8438
   40POPC  C314 5431   3.742   5.685   7.519 -0.3894  0.0372  0.5834
   40POPC  H14X 5432   3.771   5.584   7.555  0.3437  0.0367  0.0102
   40POPC  H14Y 5433   3.791   5.771   7.570 -1.3745  0.9332  0.0602
   40POPC  C315 5434   3.791   5.703   7.379  0.9867 -0.3740  0.7357
   40POPC  H15X 5435   3.752   5.799   7.338  0.0645 -0.9652  0.1745
   40POPC  H15Y 5436   3.732   5.628   7.323 -1.2188  1.6178  0.1842
   40POPC  C316 5437   3.935   5.690   7.338  0.1950 -0.3953 -0.1769
   40POPC  H16X 5438   3.988   5.780   7.377 -2.8298  1.1550  0.6126
   40POPC  H16Y 5439   3.950   5.695   7.228  1.4696 -2.3327 -0.1468
   40POPC  H16Z 5440   3.979   5.598   7.382 -1.1510 -0.6790  0.6326
   41CHL1    C3 5441   3.703   2.848  10.241 -0.3361 -0.0233 -0.7278
   41CHL1    H3 5442   3.731   2.954  10.220 -2.1577  0.8169  0.8307
   41CHL1    O3 5443   3.712   2.832  10.385  0.3865 -0.2170  0.3257
   41CHL1   H3' 5444   3.694   2.738  10.391  2.9766 -1.0993 -2.8242
   41CHL1    C4 5445   3.561   2.820  10.188  0.4363  0.0064  0.4858
   41CHL1   H4A 5446   3.537   2.712  10.193 -0.4684 -0.3026 -4.6710
   41CHL1   H4B 5447   3.479   2.874  10.240 -1.6727 -2.1035 -0.4620
   41CHL1    C5 5448   3.553   2.848  10.033 -0.0474 -0.1966 -0.0829
   41CHL1    C6 5449   3.472   2.948   9.989  0.0389 -0.2056  0.2292
   41CHL1    H6 5450   3.407   3.012  10.050  0.0726  0.3448 -0.3129
   41CHL1    C7 5451   3.453   2.981   9.846  0.1258  0.4745 -0.2439
   41CHL1   H7A 5452   3.346   2.990   9.818  0.4501  0.7634 -1.4064
   41CHL1   H7B 5453   3.509   3.074   9.823  2.4175 -0.9564 -0.8675
   41CHL1    C8 5454   3.519   2.870   9.750 -0.3980  0.9868 -0.2341
   41CHL1    H8 5455   3.456   2.778   9.757  0.3915  0.0238 -3.7897
   41CHL1   C14 5456   3.515   2.911   9.607 -0.0238  0.3027  0.1291
   41CHL1   H14 5457   3.570   3.008   9.602 -1.8750  1.3187 -2.2472
   41CHL1   C15 5458   3.377   2.948   9.545 -0.1881 -0.5845 -0.4407
   41CHL1  H15A 5459   3.293   2.877   9.563 -1.1079  0.5607 -0.0434
   41CHL1  H15B 5460   3.344   3.047   9.584 -0.7639 -1.1658  0.6064
   41CHL1   C16 5461   3.403   2.963   9.391 -0.2515 -0.2574  0.4755
   41CHL1  H16A 5462   3.327   2.898   9.342 -0.5973 -0.5067  1.3316
   41CHL1  H16B 5463   3.409   3.065   9.347 -0.0009 -0.6490 -0.4151
   41CHL1   C17 5464   3.547   2.898   9.378 -0.3683 -0.2966  0.2572
   41CHL1   H17 5465   3.620   2.981   9.382 -1.6313  0.8710  0.0388
   41CHL1   C13 5466   3.579   2.816   9.509 -0.1662  0.0127  0.2174
   41CHL1   C18 5467   3.499   2.684   9.516  0.2828  0.1766  0.3517
   41CHL1  H18A 5468   3.548   2.619   9.440 -0.4721  0.5349 -0.4619
   41CHL1  H18B 5469   3.497   2.634   9.615 -1.2066  1.6785  1.1308
   41CHL1  H18C 5470   3.393   2.693   9.485  0.1534  0.7720  0.9494
   41CHL1   C12 5471   3.723   2.790   9.541 -0.6229 -0.2364 -0.7343
   41CHL1  H12A 5472   3.771   2.715   9.475 -1.2158 -1.3169  0.0394
   41CHL1  H12B 5473   3.776   2.888   9.534  1.7886 -1.1729  2.2526
   41CHL1   C11 5474   3.738   2.744   9.688 -0.4358  0.0569  0.0688
   41CHL1  H11A 5475   3.691   2.646   9.668 -0.8131  0.2451  0.0242
   41CHL1  H11B 5476   3.849   2.743   9.703  0.1913  3.3421 -2.9712
   41CHL1    C9 5477   3.660   2.832   9.796 -0.2611  0.6651 -0.2213
   41CHL1    H9 5478   3.716   2.928   9.803 -0.0779  0.4451  2.7936
   41CHL1   C10 5479   3.648   2.775   9.941 -0.7045  0.7763  0.2049
   41CHL1   C19 5480   3.606   2.631   9.939  0.5142 -0.2411 -0.5014
   41CHL1  H19A 5481   3.666   2.561   9.877  3.1044  0.7650  0.7227
   41CHL1  H19B 5482   3.617   2.586  10.040  1.8800 -0.3481 -0.6749
   41CHL1  H19C 5483   3.500   2.623   9.909 -0.4391  1.6513  2.0371
   41CHL1    C1 5484   3.789   2.788  10.006 -0.2054  0.2772 -0.0909
   41CHL1   H1A 5485   3.861   2.720   9.955  0.3493  1.8906 -1.5199
   41CHL1   H1B 5486   3.830   2.890   9.992 -2.5982  1.5685  1.5253
   41CHL1    C2 5487   3.804   2.758  10.164  1.2229 -0.3507 -0.2016
   41CHL1   H2A 5488   3.904   2.795  10.193  3.4405 -2.2819 -4.4634
   41CHL1   H2B 5489   3.792   2.649  10.184  1.8656 -0.1350  1.5264
   41CHL1   C20 5490   3.583   2.833   9.241 -0.7888  0.2802 -0.1826
   41CHL1   H20 5491   3.677   2.778   9.263 -1.7029 -0.2902  2.7503
   41CHL1   C21 5492   3.611   2.946   9.134  0.1768  0.3402 -0.9049
   41CHL1  H21A 5493   3.647   2.890   9.045 -0.5449 -0.0205 -0.9790
   41CHL1  H21B 5494   3.684   3.015   9.182  0.5811 -0.9215  0.3652
   41CHL1  H21C 5495   3.522   3.009   9.111  0.7214  0.8103 -1.7617
   41CHL1   C22 5496   3.490   2.726   9.179 -0.8596 -0.5959  0.0973
   41CHL1  H22A 5497   3.428   2.675   9.256 -1.2842  0.3283  0.3826
   41CHL1  H22B 5498   3.417   2.782   9.116 -0.0888  1.0123  0.5847
   41CHL1   C23 5499   3.551   2.604   9.102 -0.0481  0.1890  0.1385
   41CHL1  H23A 5500   3.639   2.636   9.042  0.7733 -1.0942  0.6057
   41CHL1  H23B 5501   3.592   2.533   9.177 -0.2506 -0.6362 -0.5227
   41CHL1   C24 5502   3.445   2.535   9.013 -0.0273  0.5111  0.4035
   41CHL1  H24A 5503   3.370   2.494   9.084 -0.3681 -1.7785 -1.1763
   41CHL1  H24B 5504   3.390   2.614   8.958 -1.2535  2.1343  3.6956
   41CHL1   C25 5505   3.502   2.427   8.923  0.0112  0.3029  0.3563
   41CHL1   H25 5506   3.561   2.359   8.989  1.0645  0.9284  0.0843
   41CHL1   C26 5507   3.385   2.353   8.860  0.6804  0.1857  0.8334
   41CHL1  H26A 5508   3.428   2.297   8.774  2.6997  2.5730  0.1565
   41CHL1  H26B 5509   3.341   2.276   8.926  1.7316 -1.6547 -0.5105
   41CHL1  H26C 5510   3.306   2.416   8.814  1.7107  1.7356  1.1059
   41CHL1   C27 5511   3.593   2.487   8.812  0.4176  0.0304  0.5899
   41CHL1  H27A 5512   3.625   2.403   8.747  3.9804  0.0216  2.1514
   41CHL1  H27B 5513   3.537   2.567   8.760 -2.9860 -2.9437 -0.7691
   41CHL1  H27C 5514   3.684   2.529   8.858  0.0957  0.3944  0.9049
   42CHL1    C3 5515   2.652   1.605   9.914 -0.5794 -0.2677  0.2578
   42CHL1    H3 5516   2.742   1.670   9.906 -0.7703 -0.1285 -1.1750
   42CHL1    O3 5517   2.633   1.566  10.048 -0.0653  0.7731  0.1671
   42CHL1   H3' 5518   2.588   1.647  10.074 -1.1636  1.7178 -3.9884
   42CHL1    C4 5519   2.529   1.677   9.860 -0.1892  0.3122  0.6927
   42CHL1   H4A 5520   2.440   1.610   9.855 -0.0544  0.2311 -1.5092
   42CHL1   H4B 5521   2.511   1.757   9.936  2.1449  2.3342 -0.7208
   42CHL1    C5 5522   2.562   1.731   9.723 -0.2010  0.0648  0.1301
   42CHL1    C6 5523   2.564   1.858   9.687 -0.5896 -0.7039  0.0169
   42CHL1    H6 5524   2.533   1.930   9.765  1.1300 -3.2593  3.3228
   42CHL1    C7 5525   2.602   1.906   9.546 -0.1424 -0.9776 -0.4689
   42CHL1   H7A 5526   2.517   1.975   9.525  1.3694  1.3774  0.6810
   42CHL1   H7B 5527   2.687   1.975   9.533  0.9187 -2.5871 -2.6916
   42CHL1    C8 5528   2.606   1.790   9.444 -0.5813 -0.7064  0.1697
   42CHL1    H8 5529   2.505   1.761   9.408 -0.3304 -0.1442 -1.0254
   42CHL1   C14 5530   2.679   1.830   9.316  0.2587 -0.1389  0.1751
   42CHL1   H14 5531   2.784   1.859   9.340  1.0089  1.0919 -3.7417
   42CHL1   C15 5532   2.634   1.964   9.242  0.3948 -0.2677 -0.0086
   42CHL1  H15A 5533   2.524   1.976   9.227  0.0729  0.4508  2.4464
   42CHL1  H15B 5534   2.664   2.062   9.284 -0.7951  0.9835 -1.9108
   42CHL1   C16 5535   2.695   1.936   9.100  0.3170  1.4520  0.1337
   42CHL1  H16A 5536   2.610   1.944   9.029  0.7994  2.5863 -0.3302
   42CHL1  H16B 5537   2.758   2.025   9.080  0.6374  0.9228 -1.3127
   42CHL1   C17 5538   2.773   1.796   9.100  0.0734  0.1019  0.5361
   42CHL1   H17 5539   2.877   1.815   9.136  0.0826 -3.5344  2.9826
   42CHL1   C13 5540   2.689   1.724   9.201 -0.4057  0.4595 -0.6209
   42CHL1   C18 5541   2.547   1.679   9.149 -0.4277  0.5613 -0.3743
   42CHL1  H18A 5542   2.475   1.670   9.233  0.1805  0.8450  0.1900
   42CHL1  H18B 5543   2.509   1.744   9.068  0.7752  1.7192 -0.0555
   42CHL1  H18C 5544   2.551   1.576   9.107  0.0513  0.6175 -0.4744
   42CHL1   C12 5545   2.765   1.599   9.262 -0.9254  0.2050 -0.0809
   42CHL1  H12A 5546   2.781   1.513   9.193 -2.8441 -1.8426  1.8909
   42CHL1  H12B 5547   2.865   1.624   9.303 -0.4035 -1.7999 -0.0200
   42CHL1   C11 5548   2.687   1.551   9.382 -0.2185 -0.4272 -0.6365
   42CHL1  H11A 5549   2.589   1.521   9.339  0.1156  0.6989 -2.2956
   42CHL1  H11B 5550   2.730   1.460   9.429  0.3549  1.3230  2.4954
   42CHL1    C9 5551   2.671   1.668   9.497  0.1025 -0.0511  0.5540
   42CHL1    H9 5552   2.773   1.706   9.522 -0.2570 -0.6453  3.3030
   42CHL1   C10 5553   2.608   1.617   9.627  0.4864 -0.3213 -0.2237
   42CHL1   C19 5554   2.485   1.538   9.582  0.2118  0.1352 -0.7386
   42CHL1  H19A 5555   2.420   1.509   9.668 -2.2311 -0.3551 -2.6288
   42CHL1  H19B 5556   2.423   1.604   9.518 -0.7233  2.1628  2.0511
   42CHL1  H19C 5557   2.513   1.444   9.530 -1.0833 -0.9444  0.4441
   42CHL1    C1 5558   2.719   1.533   9.695 -0.0940  0.4694 -0.2431
   42CHL1   H1A 5559   2.763   1.458   9.625 -0.8105  2.1605 -2.6510
   42CHL1   H1B 5560   2.803   1.605   9.709 -0.0602  0.6790 -1.4120
   42CHL1    C2 5561   2.689   1.482   9.832  0.5666 -0.3146 -0.3342
   42CHL1   H2A 5562   2.773   1.425   9.876 -0.3638 -0.8289  0.8390
   42CHL1   H2B 5563   2.600   1.415   9.825  1.2383 -1.5690  1.9204
   42CHL1   C20 5564   2.792   1.725   8.965 -0.6006  0.1423 -0.0852
   42CHL1   H20 5565   2.702   1.666   8.938 -0.2850 -0.3997  0.0419
   42CHL1   C21 5566   2.923   1.641   8.956  0.3341 -0.4541 -0.5083
   42CHL1  H21A 5567   2.909   1.559   9.029  0.1258  1.2201  1.4288
   42CHL1  H21B 5568   3.007   1.707   8.988 -0.8470 -0.0565  2.0034
   42CHL1  H21C 5569   2.939   1.602   8.853 -1.9598  3.5495 -2.6424
   42CHL1   C22 5570   2.797   1.825   8.848  0.3131 -0.4871 -1.0368
   42CHL1  H22A 5571   2.712   1.897   8.851  1.6129  1.0658  0.7025
   42CHL1  H22B 5572   2.875   1.901   8.870 -0.6954  0.2855  0.0352
   42CHL1   C23 5573   2.802   1.774   8.700  0.2723 -0.7300  0.4708
   42CHL1  H23A 5574   2.903   1.735   8.679  0.6536  0.6019 -0.2610
   42CHL1  H23B 5575   2.730   1.691   8.680 -1.0067  0.7819 -1.5652
   42CHL1   C24 5576   2.755   1.875   8.592  0.6208 -0.1623  0.4255
   42CHL1  H24A 5577   2.835   1.952   8.584 -0.8604  1.3938  0.0836
   42CHL1  H24B 5578   2.754   1.811   8.501  2.2131  1.0422 -0.4973
   42CHL1   C25 5579   2.617   1.938   8.601  0.2180  0.1960 -0.3791
   42CHL1   H25 5580   2.618   1.991   8.699 -0.8726  0.8683 -0.6991
   42CHL1   C26 5581   2.592   2.026   8.490  0.5111 -0.2882 -0.2677
   42CHL1  H26A 5582   2.683   2.089   8.476  0.0373  0.5748  0.4568
   42CHL1  H26B 5583   2.567   1.969   8.398 -0.3083 -0.0405 -0.2002
   42CHL1  H26C 5584   2.499   2.083   8.509 -0.9711 -1.8314 -2.4507
   42CHL1   C27 5585   2.507   1.839   8.623 -0.0590  0.0451  0.5747
   42CHL1  H27A 5586   2.532   1.792   8.720  0.8450 -0.1593  0.2491
   42CHL1  H27B 5587   2.408   1.886   8.642 -0.0526  1.2327 -1.8870
   42CHL1  H27C 5588   2.493   1.776   8.533 -0.3362 -0.3707  0.9060
   43CHL1    C3 5589   2.341   1.064   9.863 -0.5525 -0.3351  0.5687
   43CHL1    H3 5590   2.350   1.150   9.933  0.5417 -0.1551  0.2182
   43CHL1    O3 5591   2.377   0.950   9.931  0.3279  0.1518  0.5115
   43CHL1   H3' 5592   2.471   0.934   9.916  0.2764  0.2992  0.0143
   43CHL1    C4 5593   2.191   1.050   9.812  0.1674  0.7549  0.0062
   43CHL1   H4A 5594   2.177   0.955   9.755  0.5169  0.2493  0.7504
   43CHL1   H4B 5595   2.129   1.054   9.904 -0.2346 -0.2140 -0.2053
   43CHL1    C5 5596   2.152   1.160   9.717  0.2291  0.2867  0.4427
   43CHL1    C6 5597   2.046   1.238   9.739  0.3964 -0.0283  0.1682
   43CHL1    H6 5598   1.983   1.234   9.829 -0.9333  2.8513 -0.5279
   43CHL1    C7 5599   1.998   1.331   9.629 -0.0049  0.3016  0.3232
   43CHL1   H7A 5600   1.888   1.331   9.620  0.0928 -1.0593 -1.6033
   43CHL1   H7B 5601   2.014   1.432   9.672  0.2544  1.4755 -2.2961
   43CHL1    C8 5602   2.064   1.327   9.485  0.2234  0.2794  0.0260
   43CHL1    H8 5603   2.011   1.244   9.434 -2.0273  0.9766  1.0928
   43CHL1   C14 5604   2.046   1.455   9.410  0.7261  0.2883  0.2826
   43CHL1   H14 5605   2.111   1.520   9.472  3.0024 -1.0750 -0.5267
   43CHL1   C15 5606   1.900   1.511   9.389 -0.0012  0.4542 -0.0331
   43CHL1  H15A 5607   1.837   1.432   9.342 -0.1537  0.5765 -0.0384
   43CHL1  H15B 5608   1.852   1.552   9.480  0.0063  1.0533 -0.2934
   43CHL1   C16 5609   1.914   1.617   9.281 -0.9034 -0.1084  0.5417
   43CHL1  H16A 5610   1.841   1.591   9.201 -1.6224  0.5533  0.9745
   43CHL1  H16B 5611   1.894   1.721   9.313 -0.2413  0.9508 -2.1741
   43CHL1   C17 5612   2.060   1.596   9.229  1.3710 -0.7132 -0.0636
   43CHL1   H17 5613   2.121   1.679   9.268  0.0673 -0.6037  1.8677
   43CHL1   C13 5614   2.114   1.462   9.272 -0.8822 -0.3243  0.2029
   43CHL1   C18 5615   2.065   1.349   9.178  0.1208 -0.3555 -0.6052
   43CHL1  H18A 5616   1.954   1.351   9.187  0.2924  0.0864  3.3137
   43CHL1  H18B 5617   2.103   1.365   9.075  1.4322  0.7614  0.0212
   43CHL1  H18C 5618   2.080   1.248   9.222 -1.5553  0.6231  2.5744
   43CHL1   C12 5619   2.266   1.437   9.302 -0.4832  0.0010 -0.3020
   43CHL1  H12A 5620   2.339   1.436   9.219 -0.0326 -0.5341  0.0857
   43CHL1  H12B 5621   2.303   1.523   9.361  0.2224  1.1840 -2.3658
   43CHL1   C11 5622   2.294   1.304   9.380 -0.1936  0.4049 -0.0708
   43CHL1  H11A 5623   2.294   1.226   9.301  0.5470  1.3794 -1.0891
   43CHL1  H11B 5624   2.402   1.305   9.408  0.4303  0.7288 -2.2548
   43CHL1    C9 5625   2.212   1.297   9.509 -0.2741 -0.2324  0.2505
   43CHL1    H9 5626   2.242   1.390   9.562 -1.7185  0.1274  0.4745
   43CHL1   C10 5627   2.243   1.171   9.594 -0.1186 -0.0234  0.3451
   43CHL1   C19 5628   2.223   1.054   9.494 -0.8346  0.4468  0.8394
   43CHL1  H19A 5629   2.215   0.952   9.536 -2.1147  1.2680  2.7228
   43CHL1  H19B 5630   2.129   1.071   9.438 -0.6426  2.5239  1.0635
   43CHL1  H19C 5631   2.308   1.057   9.423 -1.8381  2.3983 -0.3620
   43CHL1    C1 5632   2.393   1.184   9.641  0.1303  0.1661 -0.1912
   43CHL1   H1A 5633   2.468   1.185   9.559 -0.8684  2.4763 -1.1604
   43CHL1   H1B 5634   2.414   1.284   9.684 -0.9733  1.9121 -3.3874
   43CHL1    C2 5635   2.436   1.074   9.742  0.3033  0.1528 -0.3731
   43CHL1   H2A 5636   2.542   1.087   9.775 -0.4977  2.6026  1.6073
   43CHL1   H2B 5637   2.440   0.980   9.683 -1.9640 -0.3253  0.1426
   43CHL1   C20 5638   2.062   1.619   9.072  0.1900 -0.1962 -0.4354
   43CHL1   H20 5639   2.028   1.532   9.012  1.8544 -1.3715  0.2567
   43CHL1   C21 5640   2.213   1.625   9.022 -0.1981  0.0733 -0.3864
   43CHL1  H21A 5641   2.267   1.716   9.057  0.5004 -0.5017  0.0734
   43CHL1  H21B 5642   2.218   1.636   8.912  1.0772 -0.4576 -0.4091
   43CHL1  H21C 5643   2.267   1.531   9.049 -0.9137  0.1127  1.3029
   43CHL1   C22 5644   1.987   1.754   9.031 -0.2569 -0.2056 -0.6336
   43CHL1  H22A 5645   1.877   1.742   9.033 -0.4201  0.5814  3.1860
   43CHL1  H22B 5646   1.992   1.834   9.109 -2.6681 -0.8211  0.2297
   43CHL1   C23 5647   2.017   1.816   8.901 -0.4999 -0.2068  0.3172
   43CHL1  H23A 5648   1.955   1.909   8.898 -0.3422 -0.1114 -0.2285
   43CHL1  H23B 5649   2.122   1.852   8.890 -0.6929 -0.1480 -1.8256
   43CHL1   C24 5650   1.990   1.731   8.772 -0.7304  0.3316  0.4380
   43CHL1  H24A 5651   2.041   1.632   8.774 -1.2837  0.0521  1.1275
   43CHL1  H24B 5652   1.884   1.696   8.775 -0.6186 -0.4063 -1.8692
   43CHL1   C25 5653   2.021   1.807   8.643 -0.2353  0.6070  0.3082
   43CHL1   H25 5654   2.126   1.843   8.641 -0.5977  1.9190  2.0931
   43CHL1   C26 5655   1.990   1.724   8.520  0.1245 -0.4607  0.5320
   43CHL1  H26A 5656   2.014   1.779   8.426  1.5276  0.9072  1.6338
   43CHL1  H26B 5657   2.048   1.629   8.526 -0.8388 -1.0656  0.5368
   43CHL1  H26C 5658   1.883   1.696   8.529 -0.5281  1.5955 -0.1702
   43CHL1   C27 5659   1.937   1.937   8.629  0.8643 -0.1636  0.0915
   43CHL1  H27A 5660   1.832   1.903   8.629  0.9021 -0.2969 -0.5676
   43CHL1  H27B 5661   1.958   2.004   8.715  1.1556 -2.4816  1.9028
   43CHL1  H27C 5662   1.962   1.987   8.533 -1.5182  0.1311 -0.4282
   44CHL1    C3 5663   3.269   4.372  10.205 -0.3274  0.1926 -0.9246
   44CHL1    H3 5664   3.162   4.352  10.186  0.1266 -2.0401 -1.3625
   44CHL1    O3 5665   3.297   4.344  10.342 -0.0314  0.2897 -0.2746
   44CHL1   H3' 5666   3.316   4.250  10.345 -1.2545  0.0469  0.6072
   44CHL1    C4 5667   3.363   4.279  10.123  0.2695  0.1394 -0.1606
   44CHL1   H4A 5668   3.468   4.301  10.152  0.6575 -0.8181 -0.8009
   44CHL1   H4B 5669   3.340   4.176  10.156 -0.7549  0.7400  1.1109
   44CHL1    C5 5670   3.368   4.298   9.970 -0.0965  0.0434  0.1675
   44CHL1    C6 5671   3.341   4.201   9.880 -0.3350  0.3268  0.0314
   44CHL1    H6 5672   3.314   4.099   9.912 -1.7284  0.7996  0.4355
   44CHL1    C7 5673   3.346   4.219   9.728  0.4500 -0.1732  0.4766
   44CHL1   H7A 5674   3.402   4.139   9.676  1.0395  1.3853 -1.3925
   44CHL1   H7B 5675   3.243   4.222   9.686  1.2979  2.1381 -1.6527
   44CHL1    C8 5676   3.406   4.360   9.690  0.6442  0.4808 -0.5557
   44CHL1    H8 5677   3.516   4.353   9.704  0.4571 -1.2991  0.4069
   44CHL1   C14 5678   3.370   4.387   9.546 -0.0705 -0.1841  0.3775
   44CHL1   H14 5679   3.260   4.388   9.557  0.1712 -0.5618  4.2827
   44CHL1   C15 5680   3.408   4.274   9.454  0.5441 -0.7221  0.2682
   44CHL1  H15A 5681   3.515   4.253   9.473  0.9382 -0.4404 -1.4731
   44CHL1  H15B 5682   3.341   4.186   9.463  0.9296 -1.1191 -0.6068
   44CHL1   C16 5683   3.400   4.346   9.316 -0.0763 -0.1151  0.3358
   44CHL1  H16A 5684   3.503   4.344   9.276 -0.4256  1.9642 -0.8259
   44CHL1  H16B 5685   3.340   4.288   9.243 -0.4253 -2.5047  2.4106
   44CHL1   C17 5686   3.361   4.494   9.346 -0.1866  0.2601  0.0681
   44CHL1   H17 5687   3.251   4.501   9.361 -0.1238  1.9732 -0.0741
   44CHL1   C13 5688   3.413   4.525   9.489  0.7557 -0.8095  0.4051
   44CHL1   C18 5689   3.570   4.544   9.489 -0.3476  0.8015 -0.2878
   44CHL1  H18A 5690   3.611   4.554   9.592  1.2847 -0.7541 -0.7327
   44CHL1  H18B 5691   3.623   4.458   9.445 -0.5834  1.4647 -1.9309
   44CHL1  H18C 5692   3.606   4.632   9.431  0.6747 -0.2368 -1.2639
   44CHL1   C12 5693   3.342   4.643   9.578  0.0706 -0.0589  0.2063
   44CHL1  H12A 5694   3.399   4.735   9.555 -0.0322  0.1798  0.8741
   44CHL1  H12B 5695   3.233   4.648   9.557 -0.3657 -0.0224  2.2753
   44CHL1   C11 5696   3.371   4.617   9.727  0.3629  1.0936 -0.4725
   44CHL1  H11A 5697   3.476   4.638   9.755  0.3038 -1.9310  2.6919
   44CHL1  H11B 5698   3.315   4.690   9.788 -0.0577  0.0900  0.3755
   44CHL1    C9 5699   3.350   4.471   9.781 -0.3218 -0.0455  0.6118
   44CHL1    H9 5700   3.240   4.464   9.768 -0.4156  0.6239  0.9702
   44CHL1   C10 5701   3.390   4.442   9.929 -0.2591  0.0998 -0.1347
   44CHL1   C19 5702   3.534   4.499   9.957  0.2610  0.0234  0.0512
   44CHL1  H19A 5703   3.598   4.449   9.882 -0.7455 -1.5446  0.1982
   44CHL1  H19B 5704   3.529   4.610   9.948  0.4454  0.2610  2.3230
   44CHL1  H19C 5705   3.570   4.473  10.058  1.7428  0.1317 -0.4268
   44CHL1    C1 5706   3.304   4.533  10.019  0.9147  0.0565  0.8444
   44CHL1   H1A 5707   3.313   4.640   9.991 -0.1334 -0.7549 -3.3126
   44CHL1   H1B 5708   3.203   4.506   9.981  1.0799  0.5794  0.0062
   44CHL1    C2 5709   3.319   4.516  10.170  0.9904 -0.4943  0.0454
   44CHL1   H2A 5710   3.255   4.589  10.223 -0.4490 -1.2125 -0.6268
   44CHL1   H2B 5711   3.424   4.529  10.206  0.0148 -1.1115  3.4484
   44CHL1   C20 5712   3.406   4.590   9.239 -0.0196  0.2990  0.6952
   44CHL1   H20 5713   3.515   4.579   9.222  0.3698 -1.0386  3.5652
   44CHL1   C21 5714   3.372   4.740   9.258 -0.0375 -0.0941 -0.3845
   44CHL1  H21A 5715   3.419   4.806   9.182 -1.1661  0.1997 -0.8381
   44CHL1  H21B 5716   3.423   4.781   9.348  1.3502 -2.3401 -0.0648
   44CHL1  H21C 5717   3.264   4.767   9.263  0.4790  2.3125 -0.8247
   44CHL1   C22 5718   3.357   4.542   9.095  0.2627  0.2430  0.0069
   44CHL1  H22A 5719   3.379   4.620   9.019 -1.5006  0.6548 -0.1120
   44CHL1  H22B 5720   3.410   4.449   9.065 -0.8847 -0.5635  0.4315
   44CHL1   C23 5721   3.201   4.524   9.093 -0.4779 -0.2401  0.6047
   44CHL1  H23A 5722   3.173   4.461   9.180  2.9408  0.2633  2.2107
   44CHL1  H23B 5723   3.158   4.624   9.116 -2.4823 -0.9311  0.1309
   44CHL1   C24 5724   3.157   4.454   8.957  0.4051  0.1137 -0.2113
   44CHL1  H24A 5725   3.047   4.462   8.943  0.4765  0.8466 -0.3563
   44CHL1  H24B 5726   3.215   4.504   8.877 -0.4725  0.1737 -0.8293
   44CHL1   C25 5727   3.192   4.304   8.942  0.5503 -0.2762  0.4405
   44CHL1   H25 5728   3.299   4.283   8.962  0.6700 -0.4489 -0.3403
   44CHL1   C26 5729   3.106   4.216   9.036  0.0628  0.4008 -0.0594
   44CHL1  H26A 5730   3.131   4.244   9.141 -0.9159 -0.3869  0.4098
   44CHL1  H26B 5731   2.997   4.229   9.017  0.3058  4.0903  0.3671
   44CHL1  H26C 5732   3.132   4.108   9.031 -2.2378 -0.1835 -0.4399
   44CHL1   C27 5733   3.174   4.269   8.794  0.3829 -0.0192  0.7745
   44CHL1  H27A 5734   3.230   4.177   8.768  2.4920  1.7134 -1.2614
   44CHL1  H27B 5735   3.068   4.247   8.769  0.2874  2.2486 -1.0750
   44CHL1  H27C 5736   3.211   4.345   8.722 -1.4198  0.1418 -0.0453
   45CHL1    C3 5737   0.401   0.953  10.090 -0.0091  0.2646 -0.0870
   45CHL1    H3 5738   0.483   1.028  10.090 -1.0151  1.5954 -3.5891
   45CHL1    O3 5739   0.345   0.947  10.217  0.2028 -0.7393  0.0080
   45CHL1   H3' 5740   0.375   0.866  10.258  2.7323 -0.0507 -0.2751
   45CHL1    C4 5741   0.296   0.995   9.987  0.2476  0.6767  0.8425
   45CHL1   H4A 5742   0.216   0.918   9.984  0.6450  0.2830 -1.0826
   45CHL1   H4B 5743   0.253   1.092  10.022  0.6295  0.3218  2.3744
   45CHL1    C5 5744   0.356   1.012   9.852  0.0171 -0.7238  0.3583
   45CHL1    C6 5745   0.358   1.135   9.786 -0.3907 -0.1385  0.3382
   45CHL1    H6 5746   0.306   1.219   9.832  1.6709  1.1038  0.5269
   45CHL1    C7 5747   0.426   1.162   9.657 -0.4385 -0.4213  0.0825
   45CHL1   H7A 5748   0.346   1.216   9.602  0.1863  0.5666  0.1215
   45CHL1   H7B 5749   0.514   1.229   9.670 -0.3248 -0.6503  0.5173
   45CHL1    C8 5750   0.466   1.032   9.574 -0.0037 -0.3171 -0.7716
   45CHL1    H8 5751   0.553   1.070   9.516  0.5857 -0.4376  0.0195
   45CHL1   C14 5752   0.366   0.968   9.476  0.2175 -0.4913 -0.1407
   45CHL1   H14 5753   0.277   0.938   9.534 -1.8242  2.3393 -1.5677
   45CHL1   C15 5754   0.328   1.072   9.367 -0.2787  0.4049 -0.4254
   45CHL1  H15A 5755   0.229   1.038   9.330 -0.4161 -1.0911  1.1840
   45CHL1  H15B 5756   0.322   1.176   9.404  0.9229  0.3357  0.0163
   45CHL1   C16 5757   0.434   1.064   9.260 -0.6116 -0.2116  0.7918
   45CHL1  H16A 5758   0.381   1.063   9.162 -2.7813  2.2679  1.8009
   45CHL1  H16B 5759   0.500   1.152   9.249  1.3179 -1.8256 -1.2993
   45CHL1   C17 5760   0.525   0.938   9.289  0.0320  0.4275 -0.1329
   45CHL1   H17 5761   0.611   0.969   9.353 -0.9442 -1.2301  2.0967
   45CHL1   C13 5762   0.433   0.861   9.394 -0.6119  0.4086 -0.0798
   45CHL1   C18 5763   0.328   0.773   9.326 -0.2526 -0.3276  0.4346
   45CHL1  H18A 5764   0.275   0.829   9.245 -0.2369  3.7961  2.9878
   45CHL1  H18B 5765   0.367   0.683   9.275 -1.7648 -0.7345 -0.0672
   45CHL1  H18C 5766   0.253   0.726   9.394 -1.9050 -0.4219 -1.3631
   45CHL1   C12 5767   0.512   0.759   9.481 -0.4599  0.0836  0.2125
   45CHL1  H12A 5768   0.436   0.695   9.530 -1.8379  0.8794 -0.7906
   45CHL1  H12B 5769   0.572   0.691   9.418 -0.7945  0.3979 -0.4612
   45CHL1   C11 5770   0.603   0.818   9.591 -0.7515 -0.1693  0.0521
   45CHL1  H11A 5771   0.636   0.739   9.661  0.8922 -0.4000 -0.9210
   45CHL1  H11B 5772   0.687   0.865   9.536  1.3983 -1.8264  1.7425
   45CHL1    C9 5773   0.525   0.930   9.670 -0.0327 -0.0765 -0.4892
   45CHL1    H9 5774   0.610   0.984   9.716  0.4276 -2.2587  1.3993
   45CHL1   C10 5775   0.443   0.898   9.799  0.0970 -0.1337 -0.3385
   45CHL1   C19 5776   0.350   0.781   9.775  0.5052 -0.0423 -0.1799
   45CHL1  H19A 5777   0.297   0.782   9.678  3.1586 -0.6451 -1.7516
   45CHL1  H19B 5778   0.394   0.679   9.770  0.8042 -0.0059  1.1718
   45CHL1  H19C 5779   0.282   0.762   9.861  2.7920 -3.9283  1.0061
   45CHL1    C1 5780   0.536   0.856   9.923  0.4748  0.2611  0.1036
   45CHL1   H1A 5781   0.597   0.766   9.898  0.4310  0.1650  0.3394
   45CHL1   H1B 5782   0.606   0.941   9.937  2.0888 -0.8688 -0.8016
   45CHL1    C2 5783   0.472   0.823  10.060  0.4498 -0.0870  0.7813
   45CHL1   H2A 5784   0.549   0.791  10.134  0.8874 -1.1369 -0.1032
   45CHL1   H2B 5785   0.400   0.739  10.047 -3.0609  2.9442 -0.8589
   45CHL1   C20 5786   0.591   0.857   9.170  0.5552 -0.2472 -0.2783
   45CHL1   H20 5787   0.656   0.777   9.213 -2.9693 -2.0723  2.1128
   45CHL1   C21 5788   0.685   0.957   9.096 -0.5355 -0.1871  0.4384
   45CHL1  H21A 5789   0.631   1.039   9.045  1.8471  1.6715  0.6868
   45CHL1  H21B 5790   0.750   0.900   9.026 -0.8712 -1.4622  1.1300
   45CHL1  H21C 5791   0.746   1.005   9.175 -0.7996  0.4258  0.2712
   45CHL1   C22 5792   0.496   0.783   9.064  0.2245 -0.2098  0.0629
   45CHL1  H22A 5793   0.475   0.685   9.113  0.9981 -0.9264 -0.9808
   45CHL1  H22B 5794   0.403   0.843   9.060  0.8445  0.8304  0.7425
   45CHL1   C23 5795   0.555   0.753   8.929 -0.1190 -0.7245  1.4182
   45CHL1  H23A 5796   0.576   0.841   8.864 -1.2542  0.7614  2.9741
   45CHL1  H23B 5797   0.652   0.701   8.944  0.8140 -0.2275 -2.1684
   45CHL1   C24 5798   0.480   0.646   8.855  0.0983  0.5076  0.5635
   45CHL1  H24A 5799   0.449   0.571   8.931  2.7785 -1.7726 -0.4133
   45CHL1  H24B 5800   0.396   0.693   8.799  0.5186 -1.5546 -1.9916
   45CHL1   C25 5801   0.568   0.567   8.756  0.4939 -0.9370 -0.5464
   45CHL1   H25 5802   0.645   0.634   8.713  1.9229 -2.5269 -0.5401
   45CHL1   C26 5803   0.651   0.458   8.825  0.6291 -0.3943 -0.1553
   45CHL1  H26A 5804   0.596   0.366   8.854 -0.5989 -0.6236 -2.8671
   45CHL1  H26B 5805   0.730   0.431   8.752  2.1566  0.0710  1.2716
   45CHL1  H26C 5806   0.703   0.483   8.920  0.1047  1.4088 -0.3090
   45CHL1   C27 5807   0.497   0.502   8.636 -0.0146  0.6738 -0.2707
   45CHL1  H27A 5808   0.567   0.448   8.568 -1.8382  2.0920 -3.5276
   45CHL1  H27B 5809   0.418   0.438   8.681  1.0296 -0.7329 -0.3658
   45CHL1  H27C 5810   0.446   0.581   8.576  1.7591  1.5362 -0.7231
   46CHL1    C3 5811   2.982   5.518  10.039 -0.4887  0.0950 -0.6628
   46CHL1    H3 5812   2.979   5.627  10.021 -2.7253  0.2415  0.3133
   46CHL1    O3 5813   3.012   5.493  10.179  0.8386 -0.9971 -0.1221
   46CHL1   H3' 5814   3.018   5.397  10.185  3.6499 -0.8560  0.5670
   46CHL1    C4 5815   2.847   5.457   9.994  0.3787 -0.4022  0.1781
   46CHL1   H4A 5816   2.848   5.350  10.023 -0.2426  0.1253  2.4014
   46CHL1   H4B 5817   2.773   5.507  10.061  0.3838  0.4998 -0.4722
   46CHL1    C5 5818   2.827   5.459   9.838  0.0285  0.2099 -0.2836
   46CHL1    C6 5819   2.711   5.514   9.796  0.3090  0.3066 -0.6334
   46CHL1    H6 5820   2.631   5.541   9.867 -0.2308 -1.6323 -0.4552
   46CHL1    C7 5821   2.685   5.532   9.651 -0.6921  0.5020  0.2631
   46CHL1   H7A 5822   2.587   5.489   9.620  0.0442 -0.6019 -0.6374
   46CHL1   H7B 5823   2.684   5.639   9.623  1.5980  0.6572  0.5870
   46CHL1    C8 5824   2.786   5.468   9.560 -0.1127 -0.4397 -0.5988
   46CHL1    H8 5825   2.771   5.358   9.558  1.9754 -0.7570 -1.7652
   46CHL1   C14 5826   2.784   5.537   9.418  0.4044 -0.3310  0.0607
   46CHL1   H14 5827   2.825   5.638   9.435  0.1198 -0.2727  0.4331
   46CHL1   C15 5828   2.647   5.542   9.356 -0.7242 -0.6493  0.2840
   46CHL1  H15A 5829   2.585   5.452   9.370 -1.2603 -0.0980  1.5868
   46CHL1  H15B 5830   2.589   5.627   9.398  0.3160 -1.0785  2.7338
   46CHL1   C16 5831   2.689   5.577   9.209  0.7464  0.0118 -0.6397
   46CHL1  H16A 5832   2.639   5.504   9.142 -0.4455  0.1407  0.0786
   46CHL1  H16B 5833   2.660   5.679   9.177  1.8357 -0.0360 -1.8364
   46CHL1   C17 5834   2.849   5.562   9.194  0.1097 -0.5971  0.5482
   46CHL1   H17 5835   2.892   5.664   9.205 -1.1396  0.1472 -1.0315
   46CHL1   C13 5836   2.880   5.477   9.317  0.2628  0.0992 -0.2416
   46CHL1   C18 5837   2.841   5.329   9.291  0.3091 -0.0914 -0.3300
   46CHL1  H18A 5838   2.741   5.321   9.244  0.9215 -0.3201 -1.6115
   46CHL1  H18B 5839   2.919   5.288   9.223 -0.1716  0.3158 -1.1370
   46CHL1  H18C 5840   2.839   5.270   9.385  0.4406 -0.2217 -0.4089
   46CHL1   C12 5841   3.023   5.490   9.370 -0.1617  0.6691 -0.5840
   46CHL1  H12A 5842   3.092   5.427   9.310  2.1871  0.4570  2.1402
   46CHL1  H12B 5843   3.061   5.594   9.373  0.7413  0.3352 -0.1431
   46CHL1   C11 5844   3.036   5.440   9.511  0.0009  0.4244 -0.5996
   46CHL1  H11A 5845   3.033   5.330   9.522 -0.2023  0.6479  3.0254
   46CHL1  H11B 5846   3.136   5.479   9.541 -0.5997  1.4276  0.1612
   46CHL1    C9 5847   2.927   5.490   9.615 -0.1401  0.0539 -0.1311
   46CHL1    H9 5848   2.938   5.598   9.635 -2.1899  0.2812 -0.0180
   46CHL1   C10 5849   2.946   5.423   9.756 -0.4232 -0.4359 -0.1021
   46CHL1   C19 5850   2.958   5.264   9.759  0.2370  0.0892 -0.6071
   46CHL1  H19A 5851   2.980   5.214   9.856  0.7347 -1.1416 -1.3271
   46CHL1  H19B 5852   2.866   5.218   9.718  0.0351 -0.4722  0.4253
   46CHL1  H19C 5853   3.048   5.227   9.705  0.8387  1.2285 -0.4046
   46CHL1    C1 5854   3.077   5.485   9.807  0.3186 -0.5758 -0.1180
   46CHL1   H1A 5855   3.170   5.455   9.755  1.8391  1.1816  1.4426
   46CHL1   H1B 5856   3.059   5.593   9.791 -1.0604 -0.6894  0.4911
   46CHL1    C2 5857   3.100   5.468   9.952 -0.5380  0.3164  0.2196
   46CHL1   H2A 5858   3.198   5.508   9.987 -0.5769 -1.4256  2.5493
   46CHL1   H2B 5859   3.127   5.363   9.971 -4.0433 -1.4548 -3.1387
   46CHL1   C20 5860   2.890   5.519   9.055 -0.1108  0.3361 -0.3515
   46CHL1   H20 5861   2.854   5.415   9.037 -1.1240  1.1127 -3.3060
   46CHL1   C21 5862   3.046   5.528   9.050  0.1408 -0.3094  0.4596
   46CHL1  H21A 5863   3.102   5.462   9.119  1.4495  0.2990  0.0162
   46CHL1  H21B 5864   3.082   5.633   9.060 -0.1751  0.0902 -1.9617
   46CHL1  H21C 5865   3.072   5.491   8.949 -2.2257  1.2473 -0.7888
   46CHL1   C22 5866   2.819   5.601   8.943 -0.4436  0.1626  0.4900
   46CHL1  H22A 5867   2.714   5.566   8.956 -0.1765 -1.1586 -0.7061
   46CHL1  H22B 5868   2.828   5.710   8.962 -0.4794  0.2496  0.0232
   46CHL1   C23 5869   2.849   5.558   8.804 -0.4379 -0.0693 -0.3324
   46CHL1  H23A 5870   2.957   5.564   8.779 -0.4654 -0.0793 -0.4523
   46CHL1  H23B 5871   2.837   5.447   8.806  1.8155 -0.3460  0.5661
   46CHL1   C24 5872   2.752   5.599   8.687 -0.3302 -0.4296 -0.5635
   46CHL1  H24A 5873   2.647   5.579   8.719 -0.3834 -1.6518 -1.4293
   46CHL1  H24B 5874   2.732   5.706   8.668 -0.0660 -0.3535 -0.4175
   46CHL1   C25 5875   2.787   5.520   8.555 -0.0937 -1.1290 -0.3271
   46CHL1   H25 5876   2.755   5.414   8.566  0.7724 -1.6751 -2.5988
   46CHL1   C26 5877   2.693   5.571   8.447  0.0652 -0.4671 -0.4929
   46CHL1  H26A 5878   2.693   5.496   8.365 -1.4262 -0.8326 -0.1974
   46CHL1  H26B 5879   2.591   5.578   8.491  0.9624  1.3441  1.4583
   46CHL1  H26C 5880   2.718   5.673   8.412 -0.1826 -0.4098 -0.5057
   46CHL1   C27 5881   2.925   5.535   8.507 -0.7567 -0.2788 -0.1593
   46CHL1  H27A 5882   3.003   5.490   8.573 -0.2643 -0.9677 -1.1798
   46CHL1  H27B 5883   2.949   5.470   8.420  1.0359 -1.8940  1.4689
   46CHL1  H27C 5884   2.949   5.641   8.485 -3.6606  1.3080  3.3738
   47CHL1    C3 5885   3.112   3.418   9.991 -0.7483  0.0438  0.6705
   47CHL1    H3 5886   3.020   3.365  10.027 -0.3561 -2.5318 -1.7163
   47CHL1    O3 5887   3.188   3.461  10.098  0.6486 -0.4846 -0.2675
   47CHL1   H3' 5888   3.122   3.472  10.166 -0.1119  1.0831 -1.1905
   47CHL1    C4 5889   3.201   3.320   9.910  0.4280 -0.2235 -0.6021
   47CHL1   H4A 5890   3.300   3.366   9.894 -0.3248  1.3749 -0.8787
   47CHL1   H4B 5891   3.211   3.235   9.981  0.4680  1.4790  1.5365
   47CHL1    C5 5892   3.141   3.282   9.776  0.1778  0.3243 -0.1649
   47CHL1    C6 5893   3.106   3.158   9.744 -0.3034 -0.0212  0.2630
   47CHL1    H6 5894   3.132   3.080   9.817 -0.9198  0.5816  1.1367
   47CHL1    C7 5895   3.053   3.107   9.612 -0.1349 -0.0527  0.2885
   47CHL1   H7A 5896   3.107   3.013   9.587  0.6016  0.2908  0.5390
   47CHL1   H7B 5897   2.947   3.074   9.612 -0.4636  0.9938 -0.2418
   47CHL1    C8 5898   3.064   3.210   9.503 -0.6046  0.0610 -0.3778
   47CHL1    H8 5899   3.172   3.219   9.477  0.2356 -3.5281  1.1544
   47CHL1   C14 5900   2.992   3.162   9.380 -0.0454  0.7097 -0.1862
   47CHL1   H14 5901   2.892   3.158   9.427 -0.0389  0.1035 -0.2104
   47CHL1   C15 5902   3.008   3.013   9.329  0.0923  0.3421 -0.4964
   47CHL1  H15A 5903   3.113   2.981   9.313 -0.4035 -1.4333 -0.3891
   47CHL1  H15B 5904   2.964   2.946   9.405 -1.8076  1.6877 -0.3398
   47CHL1   C16 5905   2.939   3.023   9.185 -0.9946  0.6792 -0.3909
   47CHL1  H16A 5906   3.027   2.996   9.124 -0.4401  1.7282 -0.0701
   47CHL1  H16B 5907   2.863   2.942   9.176 -0.3816 -0.6222  3.8807
   47CHL1   C17 5908   2.907   3.173   9.156 -0.5139  0.1039 -1.0555
   47CHL1   H17 5909   2.799   3.172   9.183 -0.1141 -2.1621  0.7569
   47CHL1   C13 5910   2.988   3.257   9.258  0.2100 -0.2276 -0.2733
   47CHL1   C18 5911   3.131   3.287   9.199  0.0997 -1.1541  0.0116
   47CHL1  H18A 5912   3.178   3.355   9.273  0.6488 -0.9803 -0.4878
   47CHL1  H18B 5913   3.198   3.200   9.178  2.1932  0.3258  0.2227
   47CHL1  H18C 5914   3.124   3.354   9.110  1.4651  0.6359  1.1916
   47CHL1   C12 5915   2.920   3.383   9.318  0.1321 -0.0600  0.2923
   47CHL1  H12A 5916   2.910   3.459   9.238 -1.5774 -0.8163 -0.2722
   47CHL1  H12B 5917   2.815   3.360   9.347 -0.6948  1.6511 -1.1283
   47CHL1   C11 5918   2.990   3.439   9.443 -0.4555 -0.1802 -0.0096
   47CHL1  H11A 5919   3.089   3.479   9.413 -1.6675  0.9720 -2.7722
   47CHL1  H11B 5920   2.924   3.521   9.479 -0.0418 -0.6199  1.8646
   47CHL1    C9 5921   3.014   3.338   9.558 -0.1376 -0.2684 -0.1127
   47CHL1    H9 5922   2.909   3.325   9.589 -0.3544  3.5761  1.3091
   47CHL1   C10 5923   3.099   3.393   9.679  0.4604  0.5349 -0.3904
   47CHL1   C19 5924   3.223   3.462   9.625 -0.0235 -0.2316  0.3278
   47CHL1  H19A 5925   3.198   3.554   9.570  0.3933  0.0732  0.6412
   47CHL1  H19B 5926   3.292   3.495   9.705 -0.5115 -1.8111  1.4647
   47CHL1  H19C 5927   3.282   3.399   9.555  0.5624  0.3038  0.3292
   47CHL1    C1 5928   3.017   3.492   9.767  0.5598  0.4855 -0.0954
   47CHL1   H1A 5929   2.971   3.574   9.707 -1.2062  0.6769  1.4324
   47CHL1   H1B 5930   2.923   3.441   9.796 -0.8930  2.7062 -0.6962
   47CHL1    C2 5931   3.091   3.540   9.895  0.1079  0.5082 -0.2032
   47CHL1   H2A 5932   3.017   3.609   9.940 -0.0878  0.5081 -0.5202
   47CHL1   H2B 5933   3.181   3.601   9.874 -0.4332  2.0566  1.6964
   47CHL1   C20 5934   2.904   3.225   9.011 -0.4830  0.8682  0.4591
   47CHL1   H20 5935   3.008   3.240   8.974  0.1326 -0.6339  1.4302
   47CHL1   C21 5936   2.807   3.344   8.997  0.3475 -0.0452  0.2764
   47CHL1  H21A 5937   2.833   3.441   9.045 -1.1109  1.0023 -0.9394
   47CHL1  H21B 5938   2.701   3.318   9.018  0.8176 -1.3714  1.1240
   47CHL1  H21C 5939   2.799   3.373   8.890  1.0173 -0.3996  0.1209
   47CHL1   C22 5940   2.852   3.104   8.918  0.1306  0.5586 -1.0068
   47CHL1  H22A 5941   2.910   3.010   8.914  1.3833  1.3260 -1.9559
   47CHL1  H22B 5942   2.752   3.081   8.961  1.3680 -1.4248  1.0078
   47CHL1   C23 5943   2.851   3.135   8.773  0.7046  0.8564  0.3570
   47CHL1  H23A 5944   2.772   3.209   8.749 -0.3975 -0.2246  0.5333
   47CHL1  H23B 5945   2.947   3.172   8.731 -0.1778  0.5784 -2.0696
   47CHL1   C24 5946   2.798   3.013   8.695 -0.5394 -0.5669 -0.0850
   47CHL1  H24A 5947   2.857   2.925   8.731 -0.5033 -0.0050  1.2666
   47CHL1  H24B 5948   2.694   2.987   8.725 -0.0266 -1.6350  0.8611
   47CHL1   C25 5949   2.797   3.024   8.543 -0.3480 -0.1790 -0.3424
   47CHL1   H25 5950   2.724   3.100   8.511 -0.7026 -0.7252 -0.8568
   47CHL1   C26 5951   2.938   3.031   8.479  0.2950  0.3688  0.6689
   47CHL1  H26A 5952   2.923   3.034   8.369  0.9574 -0.5736  0.5444
   47CHL1  H26B 5953   3.014   2.957   8.511  0.1916  0.0202  0.1205
   47CHL1  H26C 5954   2.978   3.128   8.514  0.2180  0.6406  0.0228
   47CHL1   C27 5955   2.737   2.898   8.480 -0.1882  0.0827  0.1801
   47CHL1  H27A 5956   2.782   2.803   8.514 -1.6802 -0.6335  0.2403
   47CHL1  H27B 5957   2.629   2.889   8.505  0.0797  0.3119  1.4674
   47CHL1  H27C 5958   2.751   2.908   8.370 -3.2608  0.7156 -0.2456
   48CHL1    C3 5959   5.001   5.220  10.232  0.3133 -0.3174  0.0868
   48CHL1    H3 5960   5.087   5.275  10.190 -0.4241  1.5176  0.8694
   48CHL1    O3 5961   5.029   5.191  10.365  0.2132  0.6704 -0.2734
   48CHL1   H3' 5962   4.952   5.151  10.407 -1.4769  0.4632 -3.3376
   48CHL1    C4 5963   4.884   5.316  10.231 -0.0619  0.3509 -0.7490
   48CHL1   H4A 5964   4.789   5.279  10.274 -0.0839  2.7538  1.5373
   48CHL1   H4B 5965   4.907   5.404  10.295 -5.2362 -0.6949  3.2027
   48CHL1    C5 5966   4.856   5.352  10.084 -0.2048  0.1825  0.3804
   48CHL1    C6 5967   4.850   5.480  10.039 -0.4908 -0.5684 -0.9475
   48CHL1    H6 5968   4.871   5.560  10.111 -1.4797 -0.8944 -0.2771
   48CHL1    C7 5969   4.817   5.513   9.896  0.6368 -0.2522  0.4552
   48CHL1   H7A 5970   4.741   5.594   9.898 -1.1305 -1.8073 -0.1879
   48CHL1   H7B 5971   4.911   5.539   9.842  1.4000 -3.6542 -0.0661
   48CHL1    C8 5972   4.756   5.396   9.815  0.0999 -0.2510  0.4479
   48CHL1    H8 5973   4.649   5.396   9.845 -0.4375  3.7204 -0.9807
   48CHL1   C14 5974   4.758   5.431   9.662 -0.1789 -0.2631 -0.4848
   48CHL1   H14 5975   4.864   5.418   9.632  0.3360 -1.6983  1.6487
   48CHL1   C15 5976   4.699   5.560   9.608 -0.0338  0.1618 -0.1303
   48CHL1  H15A 5977   4.612   5.604   9.661  0.0599  0.7247 -0.4295
   48CHL1  H15B 5978   4.785   5.630   9.606  0.8980 -0.8636  1.4586
   48CHL1   C16 5979   4.667   5.541   9.459 -0.6193 -0.1412  0.1618
   48CHL1  H16A 5980   4.562   5.569   9.434  0.5088  2.2882 -2.3941
   48CHL1  H16B 5981   4.728   5.603   9.390  0.3309 -2.0384 -0.7838
   48CHL1   C17 5982   4.695   5.385   9.434  0.0313 -0.3839  0.2360
   48CHL1   H17 5983   4.803   5.368   9.412 -0.4198 -0.6446 -1.9966
   48CHL1   C13 5984   4.682   5.328   9.581 -0.0507 -0.1436  0.4260
   48CHL1   C18 5985   4.531   5.336   9.623  0.2670  0.2051  0.3351
   48CHL1  H18A 5986   4.483   5.266   9.552  1.1983  0.4651 -0.5740
   48CHL1  H18B 5987   4.502   5.306   9.726 -1.3485  1.6823  0.3502
   48CHL1  H18C 5988   4.482   5.434   9.607 -1.3543 -1.0064 -2.9820
   48CHL1   C12 5989   4.723   5.185   9.608  0.3428  0.6347 -0.0675
   48CHL1  H12A 5990   4.668   5.099   9.563  1.0427  0.2815 -0.2769
   48CHL1  H12B 5991   4.827   5.181   9.570  0.2368 -1.2649 -0.2869
   48CHL1   C11 5992   4.741   5.150   9.759 -0.2595  0.0008  0.7710
   48CHL1  H11A 5993   4.633   5.149   9.787 -0.2922  1.0314  0.6991
   48CHL1  H11B 5994   4.789   5.050   9.765  1.5246  0.4436 -3.3013
   48CHL1    C9 5995   4.820   5.260   9.838 -0.0468  0.9012 -0.9243
   48CHL1    H9 5996   4.925   5.273   9.804  1.0563  3.2331  2.7830
   48CHL1   C10 5997   4.832   5.226   9.987 -0.5474  0.1813 -0.4145
   48CHL1   C19 5998   4.695   5.159  10.029 -0.2161  0.2331 -0.6094
   48CHL1  H19A 5999   4.701   5.134  10.137  1.3979  0.6219 -0.5929
   48CHL1  H19B 6000   4.604   5.219  10.005  0.2058  1.2269  0.1805
   48CHL1  H19C 6001   4.696   5.056   9.989  2.1614 -0.1441  0.2570
   48CHL1    C1 6002   4.954   5.123   9.997 -0.3176  0.0484  0.5222
   48CHL1   H1A 6003   4.936   5.026   9.946  1.0590  0.5811 -1.0561
   48CHL1   H1B 6004   5.049   5.161   9.955 -1.2026  1.1819 -0.5401
   48CHL1    C2 6005   4.989   5.092  10.149 -0.3768  0.1254 -0.8277
   48CHL1   H2A 6006   5.090   5.048  10.160 -1.0435 -1.2505  0.1408
   48CHL1   H2B 6007   4.909   5.034  10.201  1.5610 -2.7683 -0.8281
   48CHL1   C20 6008   4.609   5.331   9.315  0.3015 -0.2991 -0.7722
   48CHL1   H20 6009   4.502   5.345   9.341 -0.0721 -1.6877 -1.5070
   48CHL1   C21 6010   4.627   5.186   9.279  0.5073  0.1019 -0.7406
   48CHL1  H21A 6011   4.627   5.132   9.376 -0.8739  3.1241  1.0778
   48CHL1  H21B 6012   4.725   5.177   9.229  0.0970 -0.8684 -1.4110
   48CHL1  H21C 6013   4.542   5.151   9.216 -1.8639  1.0585  1.7098
   48CHL1   C22 6014   4.631   5.413   9.185 -0.7961  0.2391 -0.3461
   48CHL1  H22A 6015   4.642   5.523   9.196  0.5792 -0.0115  0.9948
   48CHL1  H22B 6016   4.728   5.382   9.142 -1.5776 -0.4462 -1.7111
   48CHL1   C23 6017   4.514   5.407   9.087  0.1391 -0.1673 -0.4431
   48CHL1  H23A 6018   4.526   5.301   9.055 -0.2628 -0.3720  0.0728
   48CHL1  H23B 6019   4.414   5.424   9.133  0.9008  2.8419  0.2790
   48CHL1   C24 6020   4.532   5.511   8.968  0.1411 -0.0050  0.2925
   48CHL1  H24A 6021   4.474   5.600   9.000 -1.9958 -1.3291  0.3467
   48CHL1  H24B 6022   4.641   5.522   8.953  0.0594 -1.5263 -1.7572
   48CHL1   C25 6023   4.472   5.470   8.826 -0.4690  0.3196 -0.3043
   48CHL1   H25 6024   4.515   5.537   8.750  3.7104  0.1928  1.6637
   48CHL1   C26 6025   4.509   5.324   8.794  0.1927  0.1546 -0.6287
   48CHL1  H26A 6026   4.611   5.296   8.827 -0.1458 -1.2520 -0.7207
   48CHL1  H26B 6027   4.445   5.255   8.853  2.7423 -0.8236  1.1111
   48CHL1  H26C 6028   4.488   5.308   8.686  1.9805  0.7501 -1.1002
   48CHL1   C27 6029   4.324   5.482   8.815 -0.3610 -0.1769  0.4296
   48CHL1  H27A 6030   4.292   5.588   8.826  1.1604  0.2463  0.9783
   48CHL1  H27B 6031   4.291   5.446   8.715 -1.1254 -1.1408  1.0078
   48CHL1  H27C 6032   4.274   5.420   8.892 -1.1883 -0.1311 -0.0534
   49CHL1    C3 6033   1.949   5.220  10.077 -0.0908 -0.1053  0.5303
   49CHL1    H3 6034   1.863   5.152  10.057  0.3482  0.0005 -2.0600
   49CHL1    O3 6035   1.960   5.257  10.212 -0.0630  0.1496 -0.2297
   49CHL1   H3' 6036   1.883   5.314  10.219  1.6078  3.0175 -2.3564
   49CHL1    C4 6037   2.078   5.140  10.029  0.1857 -0.2258  0.1670
   49CHL1   H4A 6038   2.152   5.214  10.066 -1.2169 -0.5004  3.9745
   49CHL1   H4B 6039   2.077   5.045  10.086  2.0549 -0.2183  0.2511
   49CHL1    C5 6040   2.074   5.133   9.879  1.0079 -0.1235  0.9738
   49CHL1    C6 6041   2.090   5.012   9.817 -1.1635  0.0124 -0.0140
   49CHL1    H6 6042   2.103   4.918   9.873  1.7170  0.0462 -0.4448
   49CHL1    C7 6043   2.096   4.997   9.669  0.6735 -0.1548 -0.4660
   49CHL1   H7A 6044   2.181   4.936   9.632  3.0900  1.8025  1.5145
   49CHL1   H7B 6045   2.004   4.948   9.629  1.4325 -1.1295 -1.0665
   49CHL1    C8 6046   2.105   5.127   9.592  1.1330  1.3255  0.5447
   49CHL1    H8 6047   2.211   5.159   9.599  1.1957  1.8931 -1.8877
   49CHL1   C14 6048   2.059   5.105   9.448  0.1455  0.7675 -0.4719
   49CHL1   H14 6049   1.949   5.088   9.443  0.3921 -0.5372 -2.2712
   49CHL1   C15 6050   2.113   4.983   9.374 -0.2913 -0.3746 -0.1801
   49CHL1  H15A 6051   2.222   4.968   9.392 -0.1828 -0.9947 -1.2738
   49CHL1  H15B 6052   2.076   4.889   9.419 -0.2734  0.1661  0.9964
   49CHL1   C16 6053   2.082   5.012   9.230 -0.2252 -0.2457  0.2666
   49CHL1  H16A 6054   2.174   5.003   9.168  0.3484 -0.5691  1.1414
   49CHL1  H16B 6055   2.011   4.935   9.193  1.5765 -0.8095 -2.3291
   49CHL1   C17 6056   2.028   5.159   9.226  0.6960  0.1882 -0.6115
   49CHL1   H17 6057   1.918   5.152   9.244  0.6234  0.2151 -1.0135
   49CHL1   C13 6058   2.070   5.220   9.352 -0.1712 -0.1425 -0.7497
   49CHL1   C18 6059   2.206   5.277   9.341 -0.0925  0.5032  0.0471
   49CHL1  H18A 6060   2.214   5.372   9.283  2.7718  0.9249  0.9716
   49CHL1  H18B 6061   2.255   5.286   9.440 -0.4652  1.6011  0.1543
   49CHL1  H18C 6062   2.266   5.206   9.280 -0.0616 -0.3864  1.0855
   49CHL1   C12 6063   1.978   5.334   9.413  0.9656  0.3120  0.7608
   49CHL1  H12A 6064   1.980   5.418   9.341 -0.1045 -0.2092  0.0950
   49CHL1  H12B 6065   1.876   5.291   9.422  0.9010  0.4968  0.9062
   49CHL1   C11 6066   2.024   5.368   9.558 -0.9034 -0.6976 -0.8944
   49CHL1  H11A 6067   2.127   5.406   9.540 -1.1872 -0.5231 -2.2203
   49CHL1  H11B 6068   1.950   5.444   9.593  0.2312 -0.8180  1.9911
   49CHL1    C9 6069   2.025   5.242   9.651 -0.3775  0.2650 -0.2926
   49CHL1    H9 6070   1.920   5.209   9.636 -0.5051  1.3964 -2.3287
   49CHL1   C10 6071   2.051   5.263   9.798 -0.2656 -0.4885 -0.6742
   49CHL1   C19 6072   2.174   5.361   9.806  0.1037 -0.3758 -0.0836
   49CHL1  H19A 6073   2.252   5.339   9.730  0.2529  0.2541 -0.1202
   49CHL1  H19B 6074   2.142   5.465   9.784 -1.0024 -1.4602 -4.5141
   49CHL1  H19C 6075   2.217   5.352   9.909 -0.8201 -0.9270  0.2621
   49CHL1    C1 6076   1.928   5.338   9.857  0.2392 -0.3158 -0.0487
   49CHL1   H1A 6077   1.923   5.439   9.810 -0.8893  0.4472  1.6197
   49CHL1   H1B 6078   1.830   5.293   9.829 -0.3327  1.6503 -1.4884
   49CHL1    C2 6079   1.922   5.356  10.008 -0.0319  0.0602  0.1925
   49CHL1   H2A 6080   1.820   5.391  10.033 -1.0424 -1.0891 -1.9927
   49CHL1   H2B 6081   1.994   5.434  10.041 -1.2612  0.4992  1.9703
   49CHL1   C20 6082   2.043   5.230   9.091  0.0792 -0.3242  0.1528
   49CHL1   H20 6083   2.151   5.255   9.082  0.9685 -3.3491  1.2510
   49CHL1   C21 6084   1.964   5.358   9.066 -0.4708  0.1512 -0.0405
   49CHL1  H21A 6085   1.997   5.442   9.130  0.9113 -0.6278  0.3043
   49CHL1  H21B 6086   1.860   5.353   9.105 -0.4992 -0.5796 -0.1979
   49CHL1  H21C 6087   1.957   5.376   8.956 -0.0972  0.3045 -0.0400
   49CHL1   C22 6088   2.026   5.128   8.975  0.2158 -0.8115 -0.7206
   49CHL1  H22A 6089   2.069   5.184   8.889 -2.1279  2.0261 -0.2068
   49CHL1  H22B 6090   2.093   5.039   8.974  0.1964 -0.8427  0.4222
   49CHL1   C23 6091   1.883   5.083   8.961 -0.6877  0.1469 -0.2598
   49CHL1  H23A 6092   1.851   5.023   9.049 -0.4628 -1.2617 -1.1201
   49CHL1  H23B 6093   1.804   5.160   8.965 -1.0711 -0.1212 -2.1403
   49CHL1   C24 6094   1.851   4.997   8.835  0.5934 -0.5955  0.0168
   49CHL1  H24A 6095   1.912   4.904   8.838 -0.0335 -1.0508 -0.9298
   49CHL1  H24B 6096   1.741   4.985   8.828  0.7438 -1.1381 -1.7456
   49CHL1   C25 6097   1.900   5.065   8.703 -0.2170  0.4774 -0.4311
   49CHL1   H25 6098   2.010   5.075   8.703 -0.0122 -0.2927  3.3935
   49CHL1   C26 6099   1.866   4.972   8.580 -0.6067 -0.7873  0.1341
   49CHL1  H26A 6100   1.918   5.013   8.491  0.1964 -1.2947  0.3550
   49CHL1  H26B 6101   1.919   4.875   8.595  0.0841 -0.3940  0.3056
   49CHL1  H26C 6102   1.757   4.954   8.572 -0.9546  0.0965  2.1603
   49CHL1   C27 6103   1.843   5.208   8.681 -0.0216 -0.0496  0.8155
   49CHL1  H27A 6104   1.863   5.276   8.767 -1.3045  0.8506  0.4266
   49CHL1  H27B 6105   1.887   5.259   8.593 -2.0954  0.6192  0.1162
   49CHL1  H27C 6106   1.733   5.213   8.675  0.1205  2.0128 -2.8972
   50CHL1    C3 6107   6.739   1.125  10.076  0.8311  0.7417  0.8008
   50CHL1    H3 6108   6.821   1.188  10.034  0.5910  3.0519  3.5104
   50CHL1    O3 6109   6.719   1.149  10.217  0.1032 -0.1057 -0.0286
   50CHL1   H3' 6110   6.809   1.141  10.251  1.2913  2.4844 -2.2151
   50CHL1    C4 6111   6.609   1.156   9.998  0.2682 -0.8424 -0.7144
   50CHL1   H4A 6112   6.529   1.093  10.043 -1.7766  1.9839 -0.1073
   50CHL1   H4B 6113   6.575   1.262  10.005  0.3492 -0.9075  1.0242
   50CHL1    C5 6114   6.611   1.112   9.853  0.0328 -0.6187 -0.4492
   50CHL1    C6 6115   6.593   1.210   9.765 -0.4205  0.9013 -0.0086
   50CHL1    H6 6116   6.574   1.315   9.791 -1.3234  0.2554  2.1785
   50CHL1    C7 6117   6.605   1.176   9.615  0.3780  0.1196 -0.7010
   50CHL1   H7A 6118   6.520   1.209   9.551 -1.3320 -2.3964  0.1171
   50CHL1   H7B 6119   6.698   1.227   9.584  2.4607 -1.6632  2.1164
   50CHL1    C8 6120   6.619   1.023   9.580  0.0422 -0.1847  0.2816
   50CHL1    H8 6121   6.518   0.980   9.595 -0.9574  1.7300 -0.7706
   50CHL1   C14 6122   6.679   1.014   9.441 -0.1296 -0.4713  0.7624
   50CHL1   H14 6123   6.776   1.068   9.450 -0.1247 -0.3892  0.2354
   50CHL1   C15 6124   6.609   1.087   9.325 -0.3157  0.7007  0.0367
   50CHL1  H15A 6125   6.502   1.064   9.344 -0.2276  0.9391  0.8540
   50CHL1  H15B 6126   6.634   1.195   9.329 -1.1372  0.9761 -1.3304
   50CHL1   C16 6127   6.672   1.019   9.197 -0.3233  0.4141 -0.2371
   50CHL1  H16A 6128   6.600   0.995   9.116 -1.2064  0.5201  0.5010
   50CHL1  H16B 6129   6.743   1.096   9.160  0.6516  0.6019  1.8280
   50CHL1   C17 6130   6.749   0.895   9.244 -0.1181 -0.4605 -0.5470
   50CHL1   H17 6131   6.852   0.934   9.256 -1.1414  1.9172  1.3208
   50CHL1   C13 6132   6.707   0.870   9.390 -0.5578  0.5779  0.1950
   50CHL1   C18 6133   6.572   0.792   9.388 -0.9194 -1.1670 -0.1916
   50CHL1  H18A 6134   6.579   0.695   9.334 -0.9821 -0.5873 -1.2624
   50CHL1  H18B 6135   6.542   0.768   9.493 -1.4422 -1.4942 -0.4151
   50CHL1  H18C 6136   6.488   0.846   9.340 -0.5114  0.0499  0.4046
   50CHL1   C12 6137   6.815   0.803   9.485  0.3025 -0.1017  0.4719
   50CHL1  H12A 6138   6.827   0.694   9.465 -0.7582 -0.2582  0.6342
   50CHL1  H12B 6139   6.913   0.855   9.474  0.1727  0.4514  1.7395
   50CHL1   C11 6140   6.763   0.812   9.636 -0.0256 -0.2862  0.4007
   50CHL1  H11A 6141   6.674   0.753   9.664 -0.9148  1.0542  0.5060
   50CHL1  H11B 6142   6.850   0.781   9.698  1.0895  0.7930 -0.5652
   50CHL1    C9 6143   6.720   0.955   9.677  0.1826 -0.2159 -0.1442
   50CHL1    H9 6144   6.809   1.022   9.672 -0.0666  0.1943  0.8201
   50CHL1   C10 6145   6.658   0.966   9.821  0.0287  0.1159  0.5901
   50CHL1   C19 6146   6.547   0.866   9.845  0.6844 -0.2704 -0.0862
   50CHL1  H19A 6147   6.462   0.875   9.774 -0.7768  0.3964  1.6613
   50CHL1  H19B 6148   6.584   0.761   9.839 -0.6768 -1.0725  3.0712
   50CHL1  H19C 6149   6.498   0.878   9.944 -0.6654  1.6135 -0.9144
   50CHL1    C1 6150   6.771   0.929   9.911 -0.4377  0.8365  0.4799
   50CHL1   H1A 6151   6.787   0.820   9.896  0.9918  1.4102 -3.4670
   50CHL1   H1B 6152   6.859   0.973   9.860 -0.4661  0.6062  0.2321
   50CHL1    C2 6153   6.768   0.967  10.056  1.1408  0.2152 -0.2058
   50CHL1   H2A 6154   6.850   0.936  10.124  2.0169  0.9715 -0.8947
   50CHL1   H2B 6155   6.687   0.910  10.106  2.7103 -1.4517  0.5667
   50CHL1   C20 6156   6.761   0.786   9.138  0.4114  0.9008 -0.1918
   50CHL1   H20 6157   6.657   0.755   9.115 -0.3321  1.4099  2.2440
   50CHL1   C21 6158   6.829   0.657   9.184  0.3955 -0.2412  0.8802
   50CHL1  H21A 6159   6.933   0.684   9.212  1.0482 -1.4112 -0.3561
   50CHL1  H21B 6160   6.823   0.577   9.108  0.0207  0.9113 -0.3531
   50CHL1  H21C 6161   6.775   0.620   9.274  1.1325 -2.1361  0.5783
   50CHL1   C22 6162   6.833   0.828   9.009  0.5405  1.0724  0.4063
   50CHL1  H22A 6163   6.766   0.900   8.957 -1.3919 -1.8775 -1.4601
   50CHL1  H22B 6164   6.928   0.881   9.032  0.3869  3.1960 -3.1263
   50CHL1   C23 6165   6.856   0.711   8.903 -0.2606  0.5188  0.9240
   50CHL1  H23A 6166   6.935   0.646   8.946 -0.8872 -1.2904 -0.5478
   50CHL1  H23B 6167   6.768   0.644   8.896  0.8881 -1.3590  3.1578
   50CHL1   C24 6168   6.888   0.777   8.771  0.1345 -0.7750  0.1262
   50CHL1  H24A 6169   6.805   0.847   8.751  0.4163 -0.5023 -0.1017
   50CHL1  H24B 6170   6.980   0.840   8.777 -0.6804  0.5335 -0.6426
   50CHL1   C25 6171   6.880   0.683   8.647  0.0448 -0.3269 -0.0352
   50CHL1   H25 6172   6.937   0.735   8.567  0.7296 -1.4113 -0.2668
   50CHL1   C26 6173   6.952   0.557   8.680 -0.4618 -0.1764  0.0862
   50CHL1  H26A 6174   6.901   0.502   8.763  1.0119 -0.1143  1.0684
   50CHL1  H26B 6175   6.963   0.497   8.587  1.5485  0.0569  0.1294
   50CHL1  H26C 6176   7.054   0.582   8.716  0.0680  0.7304 -1.9291
   50CHL1   C27 6177   6.731   0.656   8.603  0.5306  0.1054  0.4031
   50CHL1  H27A 6178   6.683   0.615   8.694  0.4276  0.9544  0.7319
   50CHL1  H27B 6179   6.694   0.754   8.567  2.5200 -0.0679 -2.4902
   50CHL1  H27C 6180   6.732   0.585   8.517  1.2994  1.3972 -0.6845
   51CHL1    C3 6181   6.785   3.484  10.183  0.1912 -0.9764  0.6683
   51CHL1    H3 6182   6.688   3.461  10.134  0.6170  1.0490 -1.3375
   51CHL1    O3 6183   6.781   3.419  10.307  0.3007 -0.3476  0.3418
   51CHL1   H3' 6184   6.721   3.345  10.295 -0.3031 -0.0812  1.5938
   51CHL1    C4 6185   6.883   3.410  10.089 -0.2557 -0.6735 -0.1561
   51CHL1   H4A 6186   6.991   3.406  10.115 -0.3168 -2.6051 -0.0353
   51CHL1   H4B 6187   6.849   3.305  10.078 -0.2791 -0.6747 -0.0780
   51CHL1    C5 6188   6.880   3.485   9.949  0.0579  0.0325 -0.4531
   51CHL1    C6 6189   6.838   3.425   9.837 -0.4765  0.1397  0.4163
   51CHL1    H6 6190   6.820   3.317   9.831 -1.6030  0.3399  0.0696
   51CHL1    C7 6191   6.838   3.486   9.704 -0.8390  0.8952  0.3562
   51CHL1   H7A 6192   6.894   3.424   9.631 -2.9547 -1.0207  0.2232
   51CHL1   H7B 6193   6.736   3.500   9.661 -0.0462  1.9638 -1.2764
   51CHL1    C8 6194   6.918   3.624   9.699  0.1113  0.1578 -0.3700
   51CHL1    H8 6195   7.026   3.602   9.712 -0.3039 -0.8134  1.9847
   51CHL1   C14 6196   6.892   3.686   9.563  0.2024  0.2159  0.6878
   51CHL1   H14 6197   6.784   3.684   9.540  0.4523  1.3127 -0.7259
   51CHL1   C15 6198   6.948   3.618   9.432  0.4987 -0.1156 -0.3887
   51CHL1  H15A 6199   7.051   3.577   9.441  0.4341 -1.0603 -3.1287
   51CHL1  H15B 6200   6.884   3.533   9.398  1.2368 -0.0464 -2.0393
   51CHL1   C16 6201   6.935   3.726   9.326 -0.3181  0.3277  0.4103
   51CHL1  H16A 6202   7.035   3.728   9.277  0.1932 -1.1636  1.2887
   51CHL1  H16B 6203   6.860   3.694   9.251  0.8110 -0.4873 -0.4042
   51CHL1   C17 6204   6.895   3.860   9.403 -0.3132  0.1131  0.1606
   51CHL1   H17 6205   6.784   3.861   9.409 -0.3200  2.9224  1.2261
   51CHL1   C13 6206   6.931   3.830   9.544 -0.3213  0.3005 -0.6228
   51CHL1   C18 6207   7.082   3.843   9.571 -0.2100 -0.2503  0.0786
   51CHL1  H18A 6208   7.093   3.954   9.566 -3.4083  0.0978 -2.5618
   51CHL1  H18B 6209   7.114   3.809   9.671 -3.0216  2.1360  1.9557
   51CHL1  H18C 6210   7.143   3.797   9.490 -1.5014 -0.3696 -0.8551
   51CHL1   C12 6211   6.867   3.914   9.657  0.2825  0.5741 -0.3587
   51CHL1  H12A 6212   6.897   4.021   9.660 -1.5401  1.1391 -0.6816
   51CHL1  H12B 6213   6.757   3.906   9.644  0.1607  0.4941  0.6389
   51CHL1   C11 6214   6.892   3.864   9.800  0.1403  0.1849  0.3896
   51CHL1  H11A 6215   6.992   3.897   9.833  0.6713  0.0714 -1.0441
   51CHL1  H11B 6216   6.818   3.923   9.858  0.9285  1.7679 -0.1619
   51CHL1    C9 6217   6.870   3.710   9.814  0.1661 -0.2895 -0.1644
   51CHL1    H9 6218   6.760   3.696   9.801  0.2030 -0.1432 -0.6530
   51CHL1   C10 6219   6.904   3.638   9.954 -0.3661 -0.3069  0.2622
   51CHL1   C19 6220   7.051   3.657   9.994 -0.1788 -0.1014 -0.2472
   51CHL1  H19A 6221   7.058   3.767  10.009 -1.6348  0.0128 -0.2823
   51CHL1  H19B 6222   7.075   3.602  10.087 -0.6717 -0.0068 -0.0620
   51CHL1  H19C 6223   7.123   3.621   9.918 -0.7394 -1.9459  0.0533
   51CHL1    C1 6224   6.815   3.703  10.064 -0.1298  0.4265 -1.0062
   51CHL1   H1A 6225   6.846   3.809  10.078 -0.3319  0.1970  1.5957
   51CHL1   H1B 6226   6.707   3.709  10.042 -0.8978  0.8884  2.3911
   51CHL1    C2 6227   6.825   3.633  10.199 -0.7549 -0.0252 -0.9273
   51CHL1   H2A 6228   6.759   3.675  10.277  1.0295  0.1803  0.5484
   51CHL1   H2B 6229   6.930   3.630  10.234 -1.0184 -2.6205 -0.2039
   51CHL1   C20 6230   6.951   3.985   9.339  0.3382  0.2736  0.3771
   51CHL1   H20 6231   7.062   3.976   9.336  0.3067 -0.1993  0.6834
   51CHL1   C21 6232   6.918   4.118   9.406  0.7797 -0.4347 -0.7747
   51CHL1  H21A 6233   6.950   4.122   9.513 -2.2120  0.6101  0.1884
   51CHL1  H21B 6234   6.812   4.147   9.424  1.6449  2.3261  0.4427
   51CHL1  H21C 6235   6.968   4.205   9.358  0.4033 -0.2504 -0.8330
   51CHL1   C22 6236   6.914   3.997   9.183 -0.2570 -0.3567  0.1600
   51CHL1  H22A 6237   6.912   3.895   9.138  0.7059 -0.7077  0.8699
   51CHL1  H22B 6238   6.810   4.029   9.163 -0.0065 -0.8277 -2.2055
   51CHL1   C23 6239   7.016   4.077   9.099  0.1407 -0.2163 -0.3656
   51CHL1  H23A 6240   7.042   4.173   9.150 -1.1932  0.0110 -0.0714
   51CHL1  H23B 6241   7.104   4.010   9.108  0.1718 -0.3173 -1.2890
   51CHL1   C24 6242   6.954   4.101   8.959  0.0505 -0.4122 -1.0258
   51CHL1  H24A 6243   6.923   4.002   8.919 -2.0692 -0.0302 -0.4153
   51CHL1  H24B 6244   6.862   4.161   8.973 -2.0676 -3.0701 -2.6868
   51CHL1   C25 6245   7.060   4.167   8.865 -0.0184 -0.6913 -0.5610
   51CHL1   H25 6246   7.102   4.256   8.915 -0.4083  1.2592 -3.4862
   51CHL1   C26 6247   7.184   4.073   8.847 -0.2209 -0.3320  0.8519
   51CHL1  H26A 6248   7.251   4.078   8.935  0.2591  4.7709  0.4947
   51CHL1  H26B 6249   7.163   3.970   8.813  0.0193  0.5609 -2.3605
   51CHL1  H26C 6250   7.237   4.122   8.763 -1.4635  1.6083  1.1092
   51CHL1   C27 6251   6.997   4.208   8.731  0.2477 -0.0298  0.4372
   51CHL1  H27A 6252   6.945   4.122   8.684 -1.0717  0.2573  1.2985
   51CHL1  H27B 6253   6.925   4.293   8.737  1.6087  1.5986 -3.3595
   51CHL1  H27C 6254   7.076   4.241   8.661  0.3155  2.7109  1.6795
   52CHL1    C3 6255   2.827   2.166   9.964  0.4397  0.2460  0.1510
   52CHL1    H3 6256   2.810   2.056   9.972 -1.0119  0.3599 -1.0640
   52CHL1    O3 6257   2.770   2.244  10.066 -0.1531 -0.0533  0.2533
   52CHL1   H3' 6258   2.752   2.332  10.033 -1.4436 -0.5662 -0.4878
   52CHL1    C4 6259   2.975   2.190   9.954 -0.4320  0.3234  0.2744
   52CHL1   H4A 6260   2.986   2.301   9.957  3.9693  0.0603  1.6836
   52CHL1   H4B 6261   3.022   2.153  10.048 -0.0828 -0.9419 -0.3822
   52CHL1    C5 6262   3.031   2.132   9.824  0.1508  0.8004 -0.1474
   52CHL1    C6 6263   3.130   2.045   9.831  0.1586 -0.9573  0.3602
   52CHL1    H6 6264   3.191   2.025   9.920 -0.5073 -1.4181  0.7243
   52CHL1    C7 6265   3.194   1.985   9.705 -0.0292 -0.1739 -0.5049
   52CHL1   H7A 6266   3.305   1.981   9.714 -0.1813 -2.9771  1.3960
   52CHL1   H7B 6267   3.161   1.879   9.702 -1.0834 -0.1081  3.3665
   52CHL1    C8 6268   3.152   2.059   9.576  0.2259  0.0873  0.1998
   52CHL1    H8 6269   3.202   2.159   9.578  0.9463 -0.2329 -1.1211
   52CHL1   C14 6270   3.213   1.988   9.461 -0.0558 -0.0075  0.6319
   52CHL1   H14 6271   3.168   1.887   9.468 -1.4724  0.5795  0.4660
   52CHL1   C15 6272   3.364   1.960   9.460 -0.0571  0.1843  0.4492
   52CHL1  H15A 6273   3.418   2.055   9.481 -1.0294  0.3498  2.4227
   52CHL1  H15B 6274   3.379   1.883   9.539  1.9708  0.3184  0.2417
   52CHL1   C16 6275   3.378   1.916   9.315 -0.2862  0.2998 -0.1245
   52CHL1  H16A 6276   3.460   1.981   9.278 -0.1516  1.6905  2.4152
   52CHL1  H16B 6277   3.390   1.806   9.313 -0.1910  0.2906  0.6995
   52CHL1   C17 6278   3.250   1.948   9.234 -0.0661 -0.1542 -0.4243
   52CHL1   H17 6279   3.181   1.862   9.236 -2.7565  1.8610  1.6461
   52CHL1   C13 6280   3.162   2.041   9.324 -0.2798  0.2219 -0.4325
   52CHL1   C18 6281   3.206   2.193   9.299 -0.7605 -0.0128  0.0210
   52CHL1  H18A 6282   3.157   2.220   9.203 -1.5458 -0.6058  0.2395
   52CHL1  H18B 6283   3.171   2.250   9.387 -0.3514 -1.1209  0.9265
   52CHL1  H18C 6284   3.317   2.198   9.291 -0.8045  0.5157 -0.3046
   52CHL1   C12 6285   3.014   2.026   9.315 -0.0107 -0.6759 -0.1076
   52CHL1  H12A 6286   2.970   2.066   9.221 -0.8282 -2.4770 -0.5458
   52CHL1  H12B 6287   2.980   1.920   9.317  0.0030 -0.6727  0.5976
   52CHL1   C11 6288   2.944   2.099   9.431  0.4208 -0.8831  0.4839
   52CHL1  H11A 6289   2.949   2.210   9.422  0.9974 -0.9406  0.0266
   52CHL1  H11B 6290   2.838   2.067   9.422  0.2206 -0.2112  0.3542
   52CHL1    C9 6291   3.003   2.070   9.575 -0.2200  0.5916  0.4684
   52CHL1    H9 6292   2.965   1.968   9.596 -0.6482  0.7856  0.6581
   52CHL1   C10 6293   2.955   2.164   9.690 -0.0207  0.4287  0.5985
   52CHL1   C19 6294   2.995   2.316   9.659 -0.2106  0.3476 -0.6363
   52CHL1  H19A 6295   3.103   2.328   9.635  0.2076 -1.6696  0.0539
   52CHL1  H19B 6296   2.932   2.351   9.574 -2.2745 -1.0330  0.2520
   52CHL1  H19C 6297   2.970   2.385   9.743  1.0446  1.6684 -1.2876
   52CHL1    C1 6298   2.803   2.155   9.713 -0.2804 -0.2284  0.4848
   52CHL1   H1A 6299   2.771   2.207   9.620  1.8717  0.1596 -0.1147
   52CHL1   H1B 6300   2.772   2.048   9.713 -1.0824 -0.0006  1.5108
   52CHL1    C2 6301   2.749   2.218   9.838 -0.2094 -0.5979  0.1260
   52CHL1   H2A 6302   2.641   2.192   9.842 -0.7641  1.4010 -0.6303
   52CHL1   H2B 6303   2.755   2.328   9.824  1.7109 -0.7995 -0.8703
   52CHL1   C20 6304   3.275   1.987   9.085  0.5338  0.5444 -0.1223
   52CHL1   H20 6305   3.327   2.085   9.088  3.1212 -0.7210 -0.7061
   52CHL1   C21 6306   3.149   1.991   8.999  0.3419  0.0522  0.1061
   52CHL1  H21A 6307   3.059   2.035   9.046 -0.2465 -1.3427  0.3456
   52CHL1  H21B 6308   3.121   1.892   8.957 -1.5697  0.3158  0.6630
   52CHL1  H21C 6309   3.170   2.061   8.916  0.5041  0.1470  0.2250
   52CHL1   C22 6310   3.380   1.903   9.007  0.7879 -0.0862 -0.0109
   52CHL1  H22A 6311   3.477   1.884   9.058  2.1521 -0.1395 -2.4832
   52CHL1  H22B 6312   3.346   1.800   8.983  0.0864 -0.0881  0.9429
   52CHL1   C23 6313   3.435   1.982   8.882  0.0948  0.4573 -0.3288
   52CHL1  H23A 6314   3.344   2.015   8.827 -0.8118 -1.1668  0.1486
   52CHL1  H23B 6315   3.486   2.073   8.921  0.8776 -0.2093  0.2302
   52CHL1   C24 6316   3.531   1.898   8.793  0.0213  0.3183 -0.3945
   52CHL1  H24A 6317   3.609   1.842   8.849 -1.0318  0.3902  1.2284
   52CHL1  H24B 6318   3.480   1.816   8.738  2.5127 -1.5552 -0.1143
   52CHL1   C25 6319   3.587   1.976   8.675  0.1630 -0.0398  0.5676
   52CHL1   H25 6320   3.495   2.014   8.625  0.5483 -0.9600 -0.9143
   52CHL1   C26 6321   3.675   2.094   8.715 -0.1746  0.1603 -0.0182
   52CHL1  H26A 6322   3.709   2.155   8.628 -1.3056  0.9139  0.0379
   52CHL1  H26B 6323   3.618   2.173   8.768  0.8306  0.0384  1.2740
   52CHL1  H26C 6324   3.762   2.064   8.776  0.3972  1.3307 -0.2430
   52CHL1   C27 6325   3.669   1.898   8.569 -0.3111  0.5624 -0.5622
   52CHL1  H27A 6326   3.699   1.966   8.487  0.4863  1.8106  0.7206
   52CHL1  H27B 6327   3.748   1.843   8.625 -0.6124  0.3642 -0.3290
   52CHL1  H27C 6328   3.601   1.819   8.530 -0.5850  0.2812  0.4383
   53CHL1    C3 6329   3.504   1.760   9.915  0.2609 -0.0699 -0.5098
   53CHL1    H3 6330   3.411   1.796   9.868  0.1580  0.0068 -0.2461
   53CHL1    O3 6331   3.488   1.760  10.060  0.1883  0.4171 -0.0297
   53CHL1   H3' 6332   3.552   1.701  10.101 -0.0698  0.8914  1.0849
   53CHL1    C4 6333   3.531   1.618   9.864  0.9776 -0.4767 -0.2312
   53CHL1   H4A 6334   3.610   1.568   9.924  0.5089  0.0278  0.8310
   53CHL1   H4B 6335   3.440   1.558   9.885 -1.9629  2.7732 -2.3786
   53CHL1    C5 6336   3.568   1.616   9.716 -0.1839 -0.5843 -0.3082
   53CHL1    C6 6337   3.494   1.545   9.630 -0.0177  0.0479  0.4224
   53CHL1    H6 6338   3.414   1.485   9.677 -1.6828  0.2299 -1.9588
   53CHL1    C7 6339   3.531   1.528   9.481 -0.0009  0.1803 -0.3998
   53CHL1   H7A 6340   3.533   1.422   9.449 -1.7483  0.1656 -0.5259
   53CHL1   H7B 6341   3.449   1.580   9.426 -1.5454  0.8288  2.3635
   53CHL1    C8 6342   3.661   1.602   9.439  0.1026  0.3246  0.0957
   53CHL1    H8 6343   3.747   1.538   9.467  1.9166  2.4871 -0.2610
   53CHL1   C14 6344   3.674   1.612   9.290 -0.6427  0.1342 -0.4782
   53CHL1   H14 6345   3.596   1.679   9.248 -1.9688 -1.9407 -1.4562
   53CHL1   C15 6346   3.650   1.490   9.208 -0.6911  0.1058 -0.1089
   53CHL1  H15A 6347   3.717   1.411   9.251  0.2597  1.6064  1.3063
   53CHL1  H15B 6348   3.542   1.471   9.196 -0.7942  2.0650 -3.8837
   53CHL1   C16 6349   3.701   1.530   9.071  0.7150  0.0794  0.7822
   53CHL1  H16A 6350   3.780   1.454   9.051  0.0911 -0.8518  1.7365
   53CHL1  H16B 6351   3.618   1.533   8.998  0.4954 -1.4626  0.9477
   53CHL1   C17 6352   3.769   1.664   9.080  0.5211 -1.0231 -1.1402
   53CHL1   H17 6353   3.688   1.734   9.051  2.4331  1.6151 -0.4571
   53CHL1   C13 6354   3.800   1.673   9.235 -0.3815 -0.1400 -0.5198
   53CHL1   C18 6355   3.924   1.586   9.274 -0.3428 -0.2757  0.0393
   53CHL1  H18A 6356   4.013   1.614   9.213  0.4208  1.4877  1.8792
   53CHL1  H18B 6357   3.969   1.598   9.374 -1.7883 -2.6377  1.0522
   53CHL1  H18C 6358   3.911   1.476   9.280  0.0100 -0.5238 -2.4816
   53CHL1   C12 6359   3.807   1.814   9.296  0.1893  0.4547  0.4452
   53CHL1  H12A 6360   3.897   1.871   9.266  1.3034 -0.3518  2.1504
   53CHL1  H12B 6361   3.720   1.878   9.267 -0.4876  0.0572  1.5253
   53CHL1   C11 6362   3.801   1.804   9.451  0.4558 -0.5428 -0.4840
   53CHL1  H11A 6363   3.898   1.761   9.486  0.5053 -0.1066 -0.0696
   53CHL1  H11B 6364   3.810   1.908   9.490 -0.4576 -1.1741  1.5555
   53CHL1    C9 6365   3.676   1.733   9.511 -0.2243  0.0029 -0.1983
   53CHL1    H9 6366   3.588   1.798   9.492 -0.6134 -0.0211  1.4253
   53CHL1   C10 6367   3.676   1.716   9.669 -0.2844  0.6510  0.0008
   53CHL1   C19 6368   3.810   1.655   9.714  0.0423 -0.5672 -0.4045
   53CHL1  H19A 6369   3.822   1.658   9.825  4.8010  1.5230 -0.7405
   53CHL1  H19B 6370   3.831   1.549   9.690  2.5191 -0.1305 -0.3989
   53CHL1  H19C 6371   3.899   1.714   9.683  1.0083 -0.8111  1.6977
   53CHL1    C1 6372   3.665   1.856   9.734  0.6217 -0.2456  0.2768
   53CHL1   H1A 6373   3.759   1.914   9.720  1.4750 -1.2449  1.5886
   53CHL1   H1B 6374   3.583   1.912   9.685  1.3715 -1.0512 -2.0172
   53CHL1    C2 6375   3.623   1.850   9.881 -0.1508  0.3034 -0.0813
   53CHL1   H2A 6376   3.622   1.954   9.922  1.0590  0.1323  0.4094
   53CHL1   H2B 6377   3.705   1.800   9.937 -1.7940 -1.8001  0.5739
   53CHL1   C20 6378   3.882   1.681   8.983 -0.2709 -0.4127 -0.1790
   53CHL1   H20 6379   3.969   1.619   9.013 -0.9509 -0.2673  2.3395
   53CHL1   C21 6380   3.933   1.828   8.970 -0.0576 -0.0295 -0.0222
   53CHL1  H21A 6381   3.960   1.870   9.070 -0.5739  0.8632 -0.2514
   53CHL1  H21B 6382   3.864   1.891   8.911 -0.7919 -0.8586 -0.0784
   53CHL1  H21C 6383   4.022   1.830   8.904  0.2178  1.2704  0.3527
   53CHL1   C22 6384   3.845   1.636   8.840  0.7346 -0.0082 -0.1081
   53CHL1  H22A 6385   3.784   1.544   8.837  0.5300  0.1465 -0.9546
   53CHL1  H22B 6386   3.788   1.720   8.793 -0.0632  0.3442  1.4411
   53CHL1   C23 6387   3.964   1.608   8.748  0.0351  0.6017  0.2800
   53CHL1  H23A 6388   4.018   1.703   8.728  2.0663 -0.4374  0.6149
   53CHL1  H23B 6389   4.034   1.544   8.806  1.3055  0.3421 -1.4621
   53CHL1   C24 6390   3.932   1.538   8.610 -0.5343 -0.1559 -0.4030
   53CHL1  H24A 6391   3.858   1.459   8.637  0.2331 -0.6533  0.3187
   53CHL1  H24B 6392   3.883   1.614   8.546  0.1570  0.3135 -0.3792
   53CHL1   C25 6393   4.059   1.482   8.532  0.4700  0.1481  0.5161
   53CHL1   H25 6394   4.105   1.407   8.600 -2.6209 -1.3769  1.1043
   53CHL1   C26 6395   4.018   1.404   8.404  0.3562 -0.0234 -0.3637
   53CHL1  H26A 6396   3.994   1.473   8.321 -1.8447 -2.9901 -2.3751
   53CHL1  H26B 6397   4.102   1.353   8.352 -0.1149 -1.1173 -0.0699
   53CHL1  H26C 6398   3.936   1.330   8.414  1.4741 -1.3146 -0.3575
   53CHL1   C27 6399   4.160   1.591   8.499  0.3877  0.2535  0.3767
   53CHL1  H27A 6400   4.095   1.673   8.461 -0.1776 -0.8426 -1.0817
   53CHL1  H27B 6401   4.219   1.637   8.582  1.6551 -0.6034 -0.0088
   53CHL1  H27C 6402   4.228   1.547   8.422 -0.5750  0.8529 -0.8502
   54CHL1    C3 6403   3.879   3.715  10.258 -0.1070  0.6654 -0.0999
   54CHL1    H3 6404   3.818   3.624  10.245 -0.7519  1.1219 -0.3307
   54CHL1    O3 6405   3.881   3.748  10.395  0.0094 -0.0572 -0.4197
   54CHL1   H3' 6406   3.804   3.802  10.413  0.3714 -0.0074  1.1493
   54CHL1    C4 6407   4.019   3.685  10.220 -0.4837  0.1413 -0.0794
   54CHL1   H4A 6408   4.087   3.772  10.231  2.1954 -1.4851 -2.2824
   54CHL1   H4B 6409   4.067   3.606  10.282 -0.5179 -1.7254 -2.3018
   54CHL1    C5 6410   4.028   3.649  10.074  0.8343  0.5756 -0.8390
   54CHL1    C6 6411   4.077   3.533  10.032 -0.5915  0.4243  0.5268
   54CHL1    H6 6412   4.117   3.457  10.101 -0.0744 -1.4287 -1.6807
   54CHL1    C7 6413   4.093   3.494   9.877 -0.0239  0.2266 -0.4705
   54CHL1   H7A 6414   4.197   3.460   9.864 -0.0331 -0.5699  1.1953
   54CHL1   H7B 6415   4.018   3.417   9.847 -0.6263  1.0835 -1.2097
   54CHL1    C8 6416   4.069   3.621   9.792 -0.7438  0.0008  0.4059
   54CHL1    H8 6417   4.163   3.679   9.789 -0.3709 -0.5837 -2.1457
   54CHL1   C14 6418   4.037   3.570   9.648  0.0930  0.6654  0.1808
   54CHL1   H14 6419   3.945   3.510   9.662  1.2799 -1.1363  0.5097
   54CHL1   C15 6420   4.134   3.463   9.585  0.6897 -0.3330 -0.1523
   54CHL1  H15A 6421   4.237   3.478   9.624  0.5221  0.6110 -0.0516
   54CHL1  H15B 6422   4.114   3.358   9.615  1.6876 -0.7704 -0.9499
   54CHL1   C16 6423   4.103   3.470   9.439  0.5891  0.2242  0.2122
   54CHL1  H16A 6424   4.193   3.504   9.382  1.0460 -0.7351  0.3464
   54CHL1  H16B 6425   4.053   3.384   9.389  0.5552  0.5977 -0.4149
   54CHL1   C17 6426   3.990   3.584   9.422 -0.2728  0.1709 -0.3647
   54CHL1   H17 6427   3.899   3.520   9.429  0.7974 -1.4460 -0.4831
   54CHL1   C13 6428   4.000   3.674   9.546 -1.2690  0.2604  0.2717
   54CHL1   C18 6429   4.124   3.762   9.521  0.0724 -0.1861  0.5492
   54CHL1  H18A 6430   4.098   3.838   9.444  0.6489  0.0716  0.5975
   54CHL1  H18B 6431   4.157   3.813   9.614 -2.5389  0.1785  1.3407
   54CHL1  H18C 6432   4.213   3.703   9.487 -1.7830 -4.0066  1.7607
   54CHL1   C12 6433   3.875   3.757   9.594 -0.4428  0.7756 -0.1955
   54CHL1  H12A 6434   3.859   3.845   9.527 -2.5966  1.1057  0.6543
   54CHL1  H12B 6435   3.792   3.683   9.595  0.8329 -0.6808  0.2631
   54CHL1   C11 6436   3.909   3.815   9.734  0.2491  0.5797 -1.3121
   54CHL1  H11A 6437   3.988   3.894   9.727 -1.5416  2.8403  1.6520
   54CHL1  H11B 6438   3.819   3.863   9.778  1.2776  0.5422  0.9707
   54CHL1    C9 6439   3.948   3.704   9.834  0.2648 -0.0054 -0.7238
   54CHL1    H9 6440   3.867   3.627   9.843  0.5978 -0.7565 -3.2261
   54CHL1   C10 6441   3.966   3.758   9.982 -0.2169 -0.1229  0.4361
   54CHL1   C19 6442   4.069   3.879   9.979 -0.0930 -0.1106  0.4547
   54CHL1  H19A 6443   4.004   3.960   9.939  0.0488  0.6163  1.6242
   54CHL1  H19B 6444   4.098   3.917  10.079  1.8468  1.9522 -0.8021
   54CHL1  H19C 6445   4.164   3.864   9.924 -0.6713  0.9006 -0.8884
   54CHL1    C1 6446   3.826   3.806  10.038  0.5416  0.8751  0.1890
   54CHL1   H1A 6447   3.791   3.894   9.980 -3.1743 -0.0121  0.8186
   54CHL1   H1B 6448   3.748   3.728  10.026  1.6715 -0.5324  1.6163
   54CHL1    C2 6449   3.825   3.837  10.183  0.4816  0.2774  0.2313
   54CHL1   H2A 6450   3.733   3.873  10.235 -0.0254 -2.4066  1.4043
   54CHL1   H2B 6451   3.901   3.916  10.200  0.0796  0.2663  2.4958
   54CHL1   C20 6452   3.988   3.636   9.279 -0.6297  0.0480  0.5167
   54CHL1   H20 6453   4.086   3.678   9.247 -0.5325 -0.7585 -0.2999
   54CHL1   C21 6454   3.873   3.726   9.262  0.1368 -0.4878  0.8862
   54CHL1  H21A 6455   3.877   3.824   9.313 -2.8962  0.3559 -0.2777
   54CHL1  H21B 6456   3.785   3.663   9.287 -0.1819 -0.7938 -0.8445
   54CHL1  H21C 6457   3.853   3.771   9.163  0.8624  2.1948  1.8835
   54CHL1   C22 6458   3.974   3.512   9.174  0.0154  0.0943 -0.1306
   54CHL1  H22A 6459   4.070   3.457   9.168 -0.1454 -0.0125 -3.6094
   54CHL1  H22B 6460   3.903   3.440   9.221  0.4089 -0.4167 -0.3080
   54CHL1   C23 6461   3.935   3.553   9.027  0.1754 -0.3402 -0.4891
   54CHL1  H23A 6462   3.829   3.587   9.026  0.1029 -0.5730 -0.7265
   54CHL1  H23B 6463   4.010   3.632   9.005 -0.0051  0.5395  1.7824
   54CHL1   C24 6464   3.958   3.433   8.931 -0.0754 -0.4439 -0.6563
   54CHL1  H24A 6465   4.066   3.408   8.943 -0.5424 -1.7646  1.2779
   54CHL1  H24B 6466   3.899   3.344   8.962 -0.3705  0.0381  0.1831
   54CHL1   C25 6467   3.936   3.475   8.786  0.5061 -0.5342  0.8203
   54CHL1   H25 6468   3.981   3.576   8.778  1.6795 -0.8396  2.8686
   54CHL1   C26 6469   4.005   3.374   8.694  0.1707 -0.1691 -0.3913
   54CHL1  H26A 6470   4.114   3.394   8.697  0.3611 -1.1508 -0.4391
   54CHL1  H26B 6471   3.989   3.272   8.735 -3.4166  1.5020  3.1275
   54CHL1  H26C 6472   3.968   3.386   8.590  0.6357 -1.1004 -0.6736
   54CHL1   C27 6473   3.786   3.476   8.752  0.2683  0.6917 -0.2435
   54CHL1  H27A 6474   3.772   3.489   8.642  1.2352 -0.9802 -0.5959
   54CHL1  H27B 6475   3.733   3.381   8.774  1.0899  0.3296  0.2010
   54CHL1  H27C 6476   3.738   3.560   8.808  2.6122  0.4890  2.2462
   55CHL1    C3 6477   5.571   6.485  10.182 -0.7786 -0.5550 -0.4073
   55CHL1    H3 6478   5.520   6.566  10.125 -0.9961  0.2998  0.9575
   55CHL1    O3 6479   5.574   6.519  10.320 -0.7301 -0.0225  0.8789
   55CHL1   H3' 6480   5.645   6.581  10.337 -0.6161 -0.1460  0.8529
   55CHL1    C4 6481   5.490   6.356  10.175  0.5653 -0.0544  0.4849
   55CHL1   H4A 6482   5.529   6.282  10.247  1.9976 -0.7207 -0.9220
   55CHL1   H4B 6483   5.385   6.366  10.211  1.2515  0.1038  2.5966
   55CHL1    C5 6484   5.497   6.302  10.037  0.3228  0.7819  0.2623
   55CHL1    C6 6485   5.381   6.276   9.977 -0.0776  0.5796  0.2194
   55CHL1    H6 6486   5.287   6.299  10.029  0.7902  2.2763  1.1167
   55CHL1    C7 6487   5.374   6.213   9.837 -0.8329 -0.0521  0.3412
   55CHL1   H7A 6488   5.309   6.123   9.841 -0.7609 -0.1764 -1.0238
   55CHL1   H7B 6489   5.319   6.281   9.768 -2.2243 -0.5237  0.9527
   55CHL1    C8 6490   5.510   6.170   9.782 -0.4244  0.4067  0.6396
   55CHL1    H8 6491   5.541   6.075   9.830  0.6235 -0.3522 -1.4021
   55CHL1   C14 6492   5.496   6.140   9.633  0.1853  0.4771  0.4231
   55CHL1   H14 6493   5.447   6.222   9.576  1.8720  0.9612 -0.3864
   55CHL1   C15 6494   5.412   6.017   9.592  0.0914  0.4782 -0.6165
   55CHL1  H15A 6495   5.440   5.937   9.664 -3.1398  1.7210  2.3020
   55CHL1  H15B 6496   5.303   6.040   9.598  0.3002  1.3671 -0.0547
   55CHL1   C16 6497   5.468   5.973   9.457 -0.6445 -1.3425  0.7539
   55CHL1  H16A 6498   5.506   5.868   9.457  0.8466 -0.9491 -2.5741
   55CHL1  H16B 6499   5.388   5.973   9.380  0.7051  0.4994 -0.7469
   55CHL1   C17 6500   5.588   6.063   9.421  0.1337 -0.4492  0.8354
   55CHL1   H17 6501   5.551   6.150   9.363  0.7384 -1.2033 -0.7479
   55CHL1   C13 6502   5.635   6.111   9.563  0.3407  0.0167  0.2886
   55CHL1   C18 6503   5.707   5.980   9.629 -0.2625 -0.7540 -0.3177
   55CHL1  H18A 6504   5.816   5.996   9.640 -0.4729 -0.4374  1.7265
   55CHL1  H18B 6505   5.666   5.955   9.729  3.1879 -0.6596  1.2636
   55CHL1  H18C 6506   5.688   5.888   9.570  1.6297 -0.3481 -1.6366
   55CHL1   C12 6507   5.723   6.235   9.583  0.3851  0.7034 -0.2425
   55CHL1  H12A 6508   5.811   6.219   9.517 -0.0445  0.8132 -0.8515
   55CHL1  H12B 6509   5.672   6.323   9.538 -1.4671 -0.5500 -0.7350
   55CHL1   C11 6510   5.752   6.243   9.734 -0.0303  0.0716 -0.4561
   55CHL1  H11A 6511   5.807   6.161   9.786 -1.8494 -0.6555  0.3979
   55CHL1  H11B 6512   5.810   6.337   9.746 -1.2585  0.8986 -0.7833
   55CHL1    C9 6513   5.622   6.270   9.816 -0.2477  0.3197  0.4399
   55CHL1    H9 6514   5.579   6.362   9.772 -2.3688 -0.3346  1.0342
   55CHL1   C10 6515   5.635   6.295   9.963 -0.0058  0.0488  0.2231
   55CHL1   C19 6516   5.711   6.173  10.028 -0.4270 -0.1127  0.3974
   55CHL1  H19A 6517   5.655   6.080  10.006 -1.3152  1.1438 -3.4854
   55CHL1  H19B 6518   5.816   6.179   9.993 -1.6151  0.1643 -3.7909
   55CHL1  H19C 6519   5.712   6.179  10.138  0.1939  3.1155  0.3233
   55CHL1    C1 6520   5.718   6.422   9.980 -0.3412 -0.1068 -0.6029
   55CHL1   H1A 6521   5.822   6.395   9.952 -0.3237  0.6156 -1.2646
   55CHL1   H1B 6522   5.681   6.504   9.915 -2.6973 -0.4519  0.1928
   55CHL1    C2 6523   5.715   6.467  10.130 -0.4875 -0.2462  0.0898
   55CHL1   H2A 6524   5.773   6.562  10.136  0.4128 -0.8324  1.1269
   55CHL1   H2B 6525   5.765   6.396  10.199 -0.9447 -1.0360 -0.3844
   55CHL1   C20 6526   5.686   5.996   9.323  0.3315 -0.4300  0.6153
   55CHL1   H20 6527   5.755   5.918   9.362 -1.2915 -1.0901  2.2797
   55CHL1   C21 6528   5.777   6.114   9.264  0.2102  0.5915 -0.5543
   55CHL1  H21A 6529   5.822   6.066   9.174 -1.4149 -1.7871 -0.1936
   55CHL1  H21B 6530   5.851   6.144   9.341 -2.0224  2.7453  0.8716
   55CHL1  H21C 6531   5.711   6.200   9.242  0.0451  0.6736  0.2444
   55CHL1   C22 6532   5.625   5.918   9.212  0.5389  0.2110 -0.4279
   55CHL1  H22A 6533   5.702   5.852   9.168 -0.6712 -2.0271  0.6596
   55CHL1  H22B 6534   5.546   5.853   9.253  1.5843 -1.1969 -0.5623
   55CHL1   C23 6535   5.561   6.000   9.097  0.3595 -0.5899  1.0609
   55CHL1  H23A 6536   5.470   6.052   9.133 -0.5211 -1.5956  0.3310
   55CHL1  H23B 6537   5.629   6.081   9.061 -2.1225  1.7106  1.2172
   55CHL1   C24 6538   5.517   5.918   8.968 -0.1392  0.3128 -0.6568
   55CHL1  H24A 6539   5.605   5.856   8.938 -1.8335 -1.5560 -2.0184
   55CHL1  H24B 6540   5.441   5.843   9.000 -1.8753  1.3859 -2.1217
   55CHL1   C25 6541   5.472   5.993   8.842 -0.4722  0.8632  0.2911
   55CHL1   H25 6542   5.385   6.061   8.857 -0.0680  2.4192 -3.2815
   55CHL1   C26 6543   5.592   6.058   8.783  0.2642 -1.1683  0.4896
   55CHL1  H26A 6544   5.658   5.991   8.724  3.3298  0.8350  1.3744
   55CHL1  H26B 6545   5.561   6.145   8.721 -0.0216  0.0758  2.3061
   55CHL1  H26C 6546   5.664   6.098   8.858 -0.7243  0.1302  0.7943
   55CHL1   C27 6547   5.408   5.883   8.744 -1.0414 -0.3565 -0.7936
   55CHL1  H27A 6548   5.325   5.837   8.801 -1.8870  2.9941  0.9769
   55CHL1  H27B 6549   5.368   5.927   8.650 -1.0343  0.4671 -0.4185
   55CHL1  H27C 6550   5.487   5.806   8.729 -0.6005 -0.3821  1.3078
   56CHL1    C3 6551   3.113   6.735   9.946  0.0180 -0.6435  0.5857
   56CHL1    H3 6552   3.102   6.840   9.910 -1.7896 -0.3278  1.8994
   56CHL1    O3 6553   3.131   6.738  10.087  0.2008  0.0634 -0.7676
   56CHL1   H3' 6554   3.211   6.790  10.100  1.7583 -2.1457 -1.0485
   56CHL1    C4 6555   2.984   6.658   9.916 -0.0967  0.1085 -0.0298
   56CHL1   H4A 6556   3.003   6.560   9.966 -2.8457 -0.6054 -0.2083
   56CHL1   H4B 6557   2.896   6.709   9.960  1.1054  1.9302  0.3700
   56CHL1    C5 6558   2.955   6.635   9.771 -0.2480  0.6463  0.3728
   56CHL1    C6 6559   2.837   6.671   9.711 -0.6853 -0.0219 -0.4997
   56CHL1    H6 6560   2.758   6.717   9.772 -1.7546 -0.8656 -1.1995
   56CHL1    C7 6561   2.802   6.647   9.567  0.3881 -0.1492  0.3255
   56CHL1   H7A 6562   2.702   6.601   9.557  1.6273 -2.6681 -1.5942
   56CHL1   H7B 6563   2.805   6.748   9.523  0.3896 -0.7010 -0.9832
   56CHL1    C8 6564   2.892   6.542   9.503 -0.1156 -0.0240  0.2743
   56CHL1    H8 6565   2.845   6.446   9.533 -0.4219 -0.1318 -0.5416
   56CHL1   C14 6566   2.885   6.555   9.350 -0.0928 -0.8651 -0.3406
   56CHL1   H14 6567   2.925   6.656   9.329 -0.1123 -0.6340  0.6553
   56CHL1   C15 6568   2.751   6.560   9.279 -0.3425  0.5413  0.4689
   56CHL1  H15A 6569   2.707   6.464   9.313  0.9629 -0.8429 -1.4968
   56CHL1  H15B 6570   2.693   6.648   9.315  0.8288  0.8727  1.6248
   56CHL1   C16 6571   2.774   6.531   9.134  0.4240  0.1918 -0.3020
   56CHL1  H16A 6572   2.710   6.450   9.092 -0.0553 -0.3358  1.3623
   56CHL1  H16B 6573   2.756   6.622   9.074 -1.1964 -1.6028 -2.7368
   56CHL1   C17 6574   2.927   6.496   9.126 -0.6427  0.0521  0.0087
   56CHL1   H17 6575   2.978   6.592   9.100  0.0548  0.3464  2.2791
   56CHL1   C13 6576   2.966   6.460   9.265 -0.5216  0.2363  0.0455
   56CHL1   C18 6577   2.927   6.311   9.281 -0.6687  0.3606 -0.2184
   56CHL1  H18A 6578   2.836   6.276   9.227  0.1992  0.9110 -2.0953
   56CHL1  H18B 6579   3.013   6.247   9.251 -0.2777  1.2699 -1.0564
   56CHL1  H18C 6580   2.905   6.295   9.389  1.5146 -0.4620  0.1584
   56CHL1   C12 6581   3.114   6.491   9.303 -0.8461 -1.1307 -0.3007
   56CHL1  H12A 6582   3.189   6.421   9.261 -0.1652  0.3077 -1.5746
   56CHL1  H12B 6583   3.133   6.591   9.259  0.3661 -0.5322  1.4644
   56CHL1   C11 6584   3.133   6.475   9.451  0.1118 -0.5024 -0.1956
   56CHL1  H11A 6585   3.109   6.371   9.482 -0.6844 -1.0760 -2.5892
   56CHL1  H11B 6586   3.240   6.503   9.469 -0.6404  2.0288  0.9041
   56CHL1    C9 6587   3.040   6.565   9.540  0.1119 -0.7797  0.2016
   56CHL1    H9 6588   3.074   6.662   9.499  0.8605 -1.1606 -0.0839
   56CHL1   C10 6589   3.067   6.572   9.692 -0.6596  0.1583  0.2775
   56CHL1   C19 6590   3.062   6.426   9.736 -0.2391  0.1319 -0.1174
   56CHL1  H19A 6591   3.077   6.410   9.845 -2.8281 -3.2659 -0.1196
   56CHL1  H19B 6592   2.972   6.369   9.706  1.4443 -2.2060 -1.0336
   56CHL1  H19C 6593   3.140   6.370   9.680 -1.1991  1.0289 -2.5033
   56CHL1    C1 6594   3.206   6.638   9.727 -0.1638  0.4701  0.4682
   56CHL1   H1A 6595   3.279   6.568   9.681 -0.6973  0.9939 -1.2500
   56CHL1   H1B 6596   3.220   6.739   9.683  4.1058  0.3819  1.1699
   56CHL1    C2 6597   3.224   6.655   9.877 -0.0517  0.4509  0.0503
   56CHL1   H2A 6598   3.318   6.709   9.901  0.6313 -0.9970  0.8244
   56CHL1   H2B 6599   3.235   6.553   9.922 -0.6927 -0.5808 -1.9996
   56CHL1   C20 6600   2.961   6.398   9.010  0.2253 -0.0808 -0.0550
   56CHL1   H20 6601   2.887   6.315   9.014 -0.6900  0.7041 -0.4462
   56CHL1   C21 6602   3.107   6.358   9.006 -0.4059  0.3391 -0.3931
   56CHL1  H21A 6603   3.178   6.442   8.990 -0.8559  0.4713 -1.7540
   56CHL1  H21B 6604   3.120   6.280   8.928 -2.4613 -1.9176  1.3631
   56CHL1  H21C 6605   3.141   6.308   9.100  0.1606  1.1733 -0.1408
   56CHL1   C22 6606   2.934   6.469   8.868 -0.2584 -0.0132 -0.0090
   56CHL1  H22A 6607   2.828   6.500   8.881  0.1662  0.6236  2.2768
   56CHL1  H22B 6608   3.008   6.552   8.859  0.8792 -1.0637 -0.6506
   56CHL1   C23 6609   2.951   6.380   8.741  0.0802 -0.2503  0.3439
   56CHL1  H23A 6610   3.058   6.349   8.748  0.6164  1.6142  1.0399
   56CHL1  H23B 6611   2.883   6.292   8.752 -1.3617  0.6784 -0.7603
   56CHL1   C24 6612   2.913   6.431   8.609 -0.0818  0.0732  0.2145
   56CHL1  H24A 6613   2.806   6.462   8.605 -0.0030  0.6589  1.8901
   56CHL1  H24B 6614   2.955   6.528   8.576 -1.1315  0.4649 -0.0183
   56CHL1   C25 6615   2.933   6.337   8.490 -0.0782  0.0067 -0.8268
   56CHL1   H25 6616   2.868   6.252   8.520 -0.7950  0.9990  0.5515
   56CHL1   C26 6617   2.893   6.399   8.357 -0.1599  0.8490  0.2072
   56CHL1  H26A 6618   2.803   6.457   8.386 -0.8111 -0.3719  0.6745
   56CHL1  H26B 6619   2.978   6.448   8.304 -0.6559 -1.9934 -3.6866
   56CHL1  H26C 6620   2.862   6.317   8.288  0.1386 -0.0527  1.1243
   56CHL1   C27 6621   3.078   6.282   8.480  0.1128  0.3380 -0.4199
   56CHL1  H27A 6622   3.088   6.217   8.391  1.3194 -0.8938  0.5659
   56CHL1  H27B 6623   3.155   6.363   8.477  0.5597  0.0456  1.6294
   56CHL1  H27C 6624   3.106   6.216   8.565  0.3371 -0.6245 -1.2258
   57CHL1    C3 6625   4.537   1.439  10.201  0.0159 -0.4508 -0.0935
   57CHL1    H3 6626   4.453   1.502  10.164 -1.0491 -1.0551  1.2208
   57CHL1    O3 6627   4.511   1.426  10.341 -0.5615  0.4706  0.4014
   57CHL1   H3' 6628   4.485   1.515  10.365  1.4028  1.5145 -1.1187
   57CHL1    C4 6629   4.534   1.297  10.134 -1.1151 -0.0779 -0.6705
   57CHL1   H4A 6630   4.598   1.221  10.183 -1.5284  0.2287  0.3656
   57CHL1   H4B 6631   4.430   1.265  10.157 -0.4120 -0.6976  2.0592
   57CHL1    C5 6632   4.547   1.316   9.985 -0.4311 -0.3690 -0.3552
   57CHL1    C6 6633   4.446   1.281   9.904  0.3024  0.8966  0.1154
   57CHL1    H6 6634   4.355   1.231   9.940  1.8082 -2.0168  0.1700
   57CHL1    C7 6635   4.447   1.316   9.756  0.4173 -0.8436 -0.1027
   57CHL1   H7A 6636   4.396   1.239   9.694 -0.3035  0.5055 -1.2460
   57CHL1   H7B 6637   4.390   1.410   9.742  1.0766 -0.3244  0.5901
   57CHL1    C8 6638   4.594   1.333   9.704  0.2132  0.6298  0.9146
   57CHL1    H8 6639   4.634   1.229   9.711 -0.5116  0.3517  1.0509
   57CHL1   C14 6640   4.595   1.378   9.561  0.3857  0.4471  0.4922
   57CHL1   H14 6641   4.557   1.483   9.561  0.3449  0.4720 -1.3017
   57CHL1   C15 6642   4.525   1.298   9.443  0.0003 -0.4682  0.7507
   57CHL1  H15A 6643   4.543   1.189   9.455  1.0732 -0.5804 -1.3596
   57CHL1  H15B 6644   4.415   1.316   9.446  0.0407  0.0422 -0.4154
   57CHL1   C16 6645   4.588   1.357   9.310  0.1940  0.0615 -0.3322
   57CHL1  H16A 6646   4.623   1.288   9.231  2.8996 -0.4661  1.2012
   57CHL1  H16B 6647   4.516   1.431   9.270  1.8357  2.5552  1.0315
   57CHL1   C17 6648   4.706   1.441   9.363  0.3374  0.1607  0.3506
   57CHL1   H17 6649   4.664   1.543   9.378  0.3999  0.0831  1.1263
   57CHL1   C13 6650   4.735   1.388   9.500 -0.2001  0.0081  0.3367
   57CHL1   C18 6651   4.806   1.246   9.492 -0.5974  0.5237 -0.0626
   57CHL1  H18A 6652   4.906   1.257   9.445 -0.7278  0.5625 -0.3322
   57CHL1  H18B 6653   4.822   1.198   9.590 -1.2622 -0.1005 -0.2584
   57CHL1  H18C 6654   4.746   1.179   9.427  0.3490  1.3571 -1.8794
   57CHL1   C12 6655   4.823   1.481   9.591 -0.0947 -0.5552 -0.4163
   57CHL1  H12A 6656   4.927   1.466   9.555  0.1058  0.2865 -0.2107
   57CHL1  H12B 6657   4.794   1.588   9.583  1.0321 -0.1903  0.2365
   57CHL1   C11 6658   4.822   1.445   9.741 -0.0066  0.6273 -0.2981
   57CHL1  H11A 6659   4.877   1.348   9.742  0.4511  0.8402 -1.7647
   57CHL1  H11B 6660   4.876   1.516   9.808 -1.1045 -0.0080  1.3207
   57CHL1    C9 6661   4.677   1.428   9.792 -0.4349 -0.0915  0.0636
   57CHL1    H9 6662   4.625   1.526   9.787  0.1756  0.2063 -0.9811
   57CHL1   C10 6663   4.680   1.390   9.940  0.7467  0.4808 -0.2527
   57CHL1   C19 6664   4.787   1.282   9.967  0.5929 -0.4003  0.1379
   57CHL1  H19A 6665   4.778   1.225  10.062  0.9243  1.1279  1.1337
   57CHL1  H19B 6666   4.778   1.206   9.887 -1.6947 -1.9676  1.7622
   57CHL1  H19C 6667   4.889   1.326   9.975  0.6245 -0.7109  1.8914
   57CHL1    C1 6668   4.702   1.516  10.025  0.7204 -0.2459 -0.5414
   57CHL1   H1A 6669   4.808   1.549  10.012  0.6326  0.5324  0.6219
   57CHL1   H1B 6670   4.637   1.593   9.978 -0.8558 -1.5017 -0.4697
   57CHL1    C2 6671   4.671   1.506  10.178 -0.3966 -0.2760  0.1382
   57CHL1   H2A 6672   4.689   1.608  10.219  1.3236 -0.5987  0.2360
   57CHL1   H2B 6673   4.748   1.443  10.227 -1.0140 -0.6927  0.5987
   57CHL1   C20 6674   4.825   1.461   9.261 -0.2105  0.0328  0.3652
   57CHL1   H20 6675   4.918   1.476   9.319  0.6868  1.7439 -1.4028
   57CHL1   C21 6676   4.799   1.591   9.184 -0.5015 -0.5616  0.5163
   57CHL1  H21A 6677   4.897   1.622   9.141  0.3392  0.6455  3.0773
   57CHL1  H21B 6678   4.776   1.681   9.246  2.4560  2.3227 -2.1500
   57CHL1  H21C 6679   4.714   1.580   9.113 -1.5597  1.8598  1.2767
   57CHL1   C22 6680   4.851   1.346   9.170 -0.0320  0.6365  0.6998
   57CHL1  H22A 6681   4.836   1.248   9.219  0.4275  0.0832 -0.2348
   57CHL1  H22B 6682   4.782   1.344   9.083  0.3317  0.6398  0.4118
   57CHL1   C23 6683   4.998   1.340   9.129  0.2057 -0.5146  0.0043
   57CHL1  H23A 6684   5.020   1.438   9.082 -3.7453 -0.0798 -1.3011
   57CHL1  H23B 6685   5.069   1.317   9.212  2.8855 -1.1403 -2.2874
   57CHL1   C24 6686   5.019   1.232   9.021  0.0650 -0.0175 -0.2511
   57CHL1  H24A 6687   4.984   1.136   9.064 -0.8077 -0.1828 -1.3053
   57CHL1  H24B 6688   4.951   1.268   8.941 -1.7135  0.3795  1.3552
   57CHL1   C25 6689   5.168   1.206   8.965  0.5046 -0.1733 -0.0683
   57CHL1   H25 6690   5.198   1.307   8.929  2.0023 -0.3796  0.5251
   57CHL1   C26 6691   5.271   1.164   9.071  0.0252  0.8163  0.0353
   57CHL1  H26A 6692   5.267   1.054   9.083 -1.2708  0.6526 -1.5835
   57CHL1  H26B 6693   5.375   1.202   9.057  0.7323 -1.0439 -0.0418
   57CHL1  H26C 6694   5.246   1.210   9.169  0.4601 -2.1702  1.6562
   57CHL1   C27 6695   5.182   1.108   8.846  0.2852 -0.0833  0.3032
   57CHL1  H27A 6696   5.096   1.129   8.778  1.3931 -0.0010 -1.1198
   57CHL1  H27B 6697   5.277   1.121   8.790  0.9225  0.3411  1.4521
   57CHL1  H27C 6698   5.180   1.000   8.872  1.2006 -0.6002 -1.5979
   58CHL1    C3 6699   1.837   6.590  10.089  0.2199 -0.5529 -0.2518
   58CHL1    H3 6700   1.852   6.484  10.059 -0.4579 -0.5729 -0.5524
   58CHL1    O3 6701   1.835   6.600  10.232  0.6306  0.7852  0.3768
   58CHL1   H3' 6702   1.798   6.685  10.255 -1.3579  0.3330 -0.8937
   58CHL1    C4 6703   1.950   6.680  10.035  0.7224  0.5400 -0.4806
   58CHL1   H4A 6704   1.921   6.785  10.059 -3.5280 -0.7171  0.7317
   58CHL1   H4B 6705   2.046   6.657  10.087  0.7443 -1.0502 -1.1986
   58CHL1    C5 6706   1.956   6.673   9.883  0.1036 -0.6399  0.8365
   58CHL1    C6 6707   2.063   6.630   9.815  0.3189 -0.2764 -0.2695
   58CHL1    H6 6708   2.148   6.590   9.872  1.7594 -2.2820 -3.5562
   58CHL1    C7 6709   2.060   6.611   9.669  0.1480 -0.0258 -0.8070
   58CHL1   H7A 6710   2.152   6.652   9.622  0.0292  0.0907 -0.9383
   58CHL1   H7B 6711   2.044   6.502   9.653  0.2895 -0.3812  1.2475
   58CHL1    C8 6712   1.945   6.697   9.598 -0.1709 -1.2464  0.1841
   58CHL1    H8 6713   1.973   6.804   9.609 -2.3029 -0.7146  0.8702
   58CHL1   C14 6714   1.938   6.652   9.453  0.1200 -0.5119  0.1997
   58CHL1   H14 6715   1.915   6.544   9.457  0.4762 -0.5396  2.2604
   58CHL1   C15 6716   2.067   6.661   9.373  0.0532  0.2550  0.9732
   58CHL1  H15A 6717   2.119   6.759   9.381 -0.4710  0.7333 -0.8216
   58CHL1  H15B 6718   2.144   6.585   9.397  0.4536  0.1454 -0.5154
   58CHL1   C16 6719   2.028   6.651   9.222  0.7457  0.3280 -0.3624
   58CHL1  H16A 6720   2.075   6.739   9.172  1.1496  0.8434  0.8777
   58CHL1  H16B 6721   2.056   6.550   9.186 -0.5631 -0.8003  1.6125
   58CHL1   C17 6722   1.865   6.657   9.225  0.3666 -0.6307 -0.7859
   58CHL1   H17 6723   1.832   6.552   9.234  0.0506 -0.4288  0.6426
   58CHL1   C13 6724   1.837   6.724   9.366 -0.0684 -0.1945  0.4525
   58CHL1   C18 6725   1.874   6.874   9.351  0.3483  0.0587 -0.5886
   58CHL1  H18A 6726   1.896   6.909   9.454 -3.0896  0.9411 -0.0328
   58CHL1  H18B 6727   1.965   6.899   9.293  1.0674 -0.8560  0.1240
   58CHL1  H18C 6728   1.788   6.934   9.314  0.7037  0.6818 -0.4187
   58CHL1   C12 6729   1.696   6.708   9.435 -0.7751 -0.6139 -0.5994
   58CHL1  H12A 6730   1.619   6.768   9.381  1.3713  0.2222 -2.8995
   58CHL1  H12B 6731   1.673   6.600   9.431  0.9393 -0.9892 -0.9540
   58CHL1   C11 6732   1.697   6.751   9.581  0.1427 -0.4375  0.0171
   58CHL1  H11A 6733   1.703   6.861   9.592  0.2817 -0.2463 -1.6413
   58CHL1  H11B 6734   1.603   6.717   9.628  0.2551 -1.4766 -0.4827
   58CHL1    C9 6735   1.810   6.680   9.663  0.4537  0.3079  1.1649
   58CHL1    H9 6736   1.790   6.571   9.653 -1.2443  0.7653 -1.9787
   58CHL1   C10 6737   1.820   6.714   9.816  0.4504 -0.7774 -0.6523
   58CHL1   C19 6738   1.807   6.864   9.841  0.1540 -0.5614 -0.2678
   58CHL1  H19A 6739   1.878   6.930   9.787  0.7078 -2.2065 -1.6698
   58CHL1  H19B 6740   1.705   6.884   9.802  0.8873  0.9392 -1.5287
   58CHL1  H19C 6741   1.795   6.889   9.948 -2.4035 -1.2610 -0.3256
   58CHL1    C1 6742   1.703   6.637   9.888  0.5100  0.5981  0.5828
   58CHL1   H1A 6743   1.608   6.672   9.842  1.1118 -0.4409 -1.6116
   58CHL1   H1B 6744   1.705   6.528   9.866 -1.4236  0.6435  0.0282
   58CHL1    C2 6745   1.706   6.638  10.038  0.1327  0.5207 -0.3420
   58CHL1   H2A 6746   1.616   6.596  10.088  0.1104  0.0145 -0.7932
   58CHL1   H2B 6747   1.693   6.744  10.068 -0.8302  0.5010 -0.6353
   58CHL1   C20 6748   1.803   6.728   9.094 -0.0389  0.2111 -0.4899
   58CHL1   H20 6749   1.845   6.830   9.097  0.3095  0.0601 -0.1755
   58CHL1   C21 6750   1.652   6.733   9.101  0.4114  0.3025 -1.0977
   58CHL1  H21A 6751   1.620   6.771   9.002  0.4422  1.2489 -0.7507
   58CHL1  H21B 6752   1.605   6.802   9.175  0.8333 -1.6809  1.1487
   58CHL1  H21C 6753   1.618   6.629   9.121 -0.2077  1.1647  3.2769
   58CHL1   C22 6754   1.849   6.662   8.965  0.1506 -0.8431  0.6575
   58CHL1  H22A 6755   1.958   6.646   8.969  0.3419  0.2203  0.1262
   58CHL1  H22B 6756   1.804   6.562   8.947  1.1076 -1.1309 -0.2112
   58CHL1   C23 6757   1.836   6.763   8.852 -0.0408 -0.2873 -0.5884
   58CHL1  H23A 6758   1.729   6.784   8.831 -0.2206 -0.8657 -0.2676
   58CHL1  H23B 6759   1.874   6.865   8.876  1.5535 -0.4835 -2.1237
   58CHL1   C24 6760   1.908   6.720   8.722 -0.3527 -0.3672  0.4085
   58CHL1  H24A 6761   2.008   6.676   8.745  0.9810  2.4952  0.4951
   58CHL1  H24B 6762   1.859   6.636   8.668 -2.5436  0.5853  0.8177
   58CHL1   C25 6763   1.936   6.832   8.622 -0.4017  0.4606  0.6005
   58CHL1   H25 6764   2.003   6.910   8.664  1.5952 -0.5114 -0.6478
   58CHL1   C26 6765   2.014   6.767   8.507  0.0932 -0.0268  0.4027
   58CHL1  H26A 6766   2.041   6.843   8.431  0.3980  0.0834  0.6200
   58CHL1  H26B 6767   2.109   6.715   8.534 -0.0637 -0.1623  0.6988
   58CHL1  H26C 6768   1.953   6.687   8.460 -0.4029 -0.0039  0.9988
   58CHL1   C27 6769   1.819   6.907   8.555  0.3800 -0.1577  0.4476
   58CHL1  H27A 6770   1.796   6.976   8.638  0.4461 -1.7429  1.8381
   58CHL1  H27B 6771   1.852   6.958   8.462  1.2486 -1.4983 -0.0275
   58CHL1  H27C 6772   1.738   6.840   8.519  1.1824 -0.4115 -0.9702
   59CHL1    C3 6773   1.656   5.796  10.212  0.1685 -0.0628 -0.0584
   59CHL1    H3 6774   1.545   5.805  10.216  0.1321 -0.7588  1.8149
   59CHL1    O3 6775   1.706   5.795  10.349 -0.4268  0.4166 -0.1874
   59CHL1   H3' 6776   1.641   5.851  10.391  1.5656  2.2875  0.6017
   59CHL1    C4 6777   1.699   5.674  10.146 -0.7831 -0.2692 -0.0179
   59CHL1   H4A 6778   1.809   5.670  10.165 -0.7470  1.6218  0.3788
   59CHL1   H4B 6779   1.650   5.591  10.201 -0.3628  0.3602  1.3659
   59CHL1    C5 6780   1.679   5.653   9.995 -0.0133  0.0692 -0.3412
   59CHL1    C6 6781   1.620   5.544   9.931 -0.1512 -0.0914 -0.3129
   59CHL1    H6 6782   1.600   5.453   9.989 -0.3979 -1.2045 -2.0719
   59CHL1    C7 6783   1.597   5.533   9.789  0.8591  0.3069  0.0921
   59CHL1   H7A 6784   1.626   5.430   9.760  0.8692  0.2906  0.1590
   59CHL1   H7B 6785   1.489   5.537   9.760  0.6528  0.8553  0.9004
   59CHL1    C8 6786   1.669   5.639   9.702  0.1462 -1.1135 -0.6197
   59CHL1    H8 6787   1.776   5.608   9.692  0.5829 -0.5824  1.8901
   59CHL1   C14 6788   1.612   5.644   9.566  0.6086 -0.2303 -0.1576
   59CHL1   H14 6789   1.503   5.663   9.577  0.6323  0.5877 -1.1796
   59CHL1   C15 6790   1.612   5.509   9.488  0.2642  0.0570  0.3944
   59CHL1  H15A 6791   1.693   5.438   9.514  0.6876  0.5845  0.5290
   59CHL1  H15B 6792   1.517   5.458   9.517 -0.6193  1.6307  0.3974
   59CHL1   C16 6793   1.612   5.547   9.332  1.0749 -0.2645  0.2230
   59CHL1  H16A 6794   1.714   5.535   9.289  1.3487 -0.1788  0.8246
   59CHL1  H16B 6795   1.539   5.488   9.274 -0.4502  0.0203  1.7545
   59CHL1   C17 6796   1.584   5.699   9.341 -0.7244 -0.8744  0.3020
   59CHL1   H17 6797   1.478   5.722   9.365 -0.2636  1.3518  0.4695
   59CHL1   C13 6798   1.663   5.756   9.465  0.2500  0.0494 -0.0295
   59CHL1   C18 6799   1.813   5.732   9.447  0.6733 -0.0486 -1.3102
   59CHL1  H18A 6800   1.863   5.793   9.369  4.2392 -1.0521 -0.0216
   59CHL1  H18B 6801   1.861   5.766   9.542 -0.1088  0.3297 -1.0435
   59CHL1  H18C 6802   1.848   5.627   9.437  2.0723  0.1591  0.7388
   59CHL1   C12 6803   1.638   5.889   9.538  0.2774 -0.6937  0.4780
   59CHL1  H12A 6804   1.662   5.960   9.456  0.3578 -2.9574 -1.5960
   59CHL1  H12B 6805   1.532   5.907   9.565 -0.1118  0.1544 -1.4387
   59CHL1   C11 6806   1.709   5.894   9.675 -0.3956  0.1019 -0.3232
   59CHL1  H11A 6807   1.819   5.900   9.666 -0.0192 -2.4050  1.4739
   59CHL1  H11B 6808   1.673   5.990   9.718 -1.3175 -0.9885  1.5012
   59CHL1    C9 6809   1.662   5.782   9.766  0.1921  0.3008  0.5500
   59CHL1    H9 6810   1.551   5.787   9.769  0.1824 -0.2392  2.9416
   59CHL1   C10 6811   1.720   5.784   9.905 -0.5737 -0.1774 -0.2874
   59CHL1   C19 6812   1.879   5.784   9.899  0.4455 -0.0790  0.0532
   59CHL1  H19A 6813   1.907   5.881   9.852 -1.1455 -0.3343 -1.5577
   59CHL1  H19B 6814   1.929   5.780   9.998 -0.1246  3.8924  0.6934
   59CHL1  H19C 6815   1.908   5.698   9.835  0.0649  0.5299 -0.9634
   59CHL1    C1 6816   1.669   5.910   9.982 -0.7680  0.0043 -1.3301
   59CHL1   H1A 6817   1.708   5.994   9.921  3.0177  0.7636  1.7610
   59CHL1   H1B 6818   1.558   5.910   9.986 -0.7920  1.3153 -1.4488
   59CHL1    C2 6819   1.713   5.923  10.138 -0.0638  0.1021 -0.4994
   59CHL1   H2A 6820   1.652   6.002  10.187 -1.5060 -0.2423 -1.6828
   59CHL1   H2B 6821   1.820   5.943  10.162 -0.0644  1.3446 -1.4377
   59CHL1   C20 6822   1.616   5.781   9.208  0.2645 -0.3259  0.3051
   59CHL1   H20 6823   1.724   5.807   9.215  0.1190 -0.2151  2.9529
   59CHL1   C21 6824   1.533   5.905   9.197  0.1280  0.7334  0.6125
   59CHL1  H21A 6825   1.429   5.874   9.171 -0.1983  2.1565  0.1074
   59CHL1  H21B 6826   1.586   5.970   9.125  2.7749  0.2124  1.9725
   59CHL1  H21C 6827   1.527   5.964   9.291  0.0131  3.5364 -1.0220
   59CHL1   C22 6828   1.606   5.683   9.079  0.6435  0.4639 -0.2972
   59CHL1  H22A 6829   1.693   5.614   9.072  0.3270  0.1609 -1.2903
   59CHL1  H22B 6830   1.513   5.624   9.078 -0.7300  2.4335  1.7082
   59CHL1   C23 6831   1.598   5.758   8.946  0.7101 -0.2882  0.0796
   59CHL1  H23A 6832   1.513   5.829   8.949  0.9162 -0.0555  1.9128
   59CHL1  H23B 6833   1.688   5.823   8.937 -0.2991  1.3665  1.2066
   59CHL1   C24 6834   1.564   5.672   8.820 -0.1088  0.4541 -0.4579
   59CHL1  H24A 6835   1.484   5.603   8.851  0.2083  0.9559  1.6442
   59CHL1  H24B 6836   1.528   5.738   8.738 -1.1868 -0.4371 -0.7204
   59CHL1   C25 6837   1.681   5.587   8.764  0.3435 -0.4834 -0.3243
   59CHL1   H25 6838   1.693   5.501   8.834  0.4079 -0.3326 -0.1502
   59CHL1   C26 6839   1.625   5.519   8.640 -0.2380  0.0537 -0.0923
   59CHL1  H26A 6840   1.588   5.588   8.561 -1.3727  0.4988  0.8088
   59CHL1  H26B 6841   1.719   5.473   8.603 -1.0150 -2.6117  1.0119
   59CHL1  H26C 6842   1.551   5.437   8.647  0.7358 -0.8515 -0.0865
   59CHL1   C27 6843   1.811   5.665   8.753 -0.2643  0.0745  0.4541
   59CHL1  H27A 6844   1.889   5.587   8.749 -0.8384 -0.4609 -1.3911
   59CHL1  H27B 6845   1.823   5.720   8.657  2.0130 -1.5158 -0.2650
   59CHL1  H27C 6846   1.833   5.735   8.836 -2.2484  0.6616  0.5340
   60CHL1    C3 6847   0.450   3.918  10.173  0.6097  0.6566 -0.7170
   60CHL1    H3 6848   0.387   3.827  10.163 -0.3330  1.0599  0.9991
   60CHL1    O3 6849   0.400   3.986  10.289 -0.0762  0.4688 -0.6339
   60CHL1   H3' 6850   0.468   4.049  10.312  0.4362 -0.2024 -0.2779
   60CHL1    C4 6851   0.590   3.858  10.197 -0.3044 -0.2750  0.0332
   60CHL1   H4A 6852   0.653   3.946  10.220 -0.2883 -0.4597  0.7321
   60CHL1   H4B 6853   0.591   3.798  10.291  1.6853 -1.0756 -0.4437
   60CHL1    C5 6854   0.649   3.786  10.077 -0.1054  0.6498  0.0445
   60CHL1    C6 6855   0.697   3.661  10.080  0.0952 -0.7207  0.4669
   60CHL1    H6 6856   0.703   3.609  10.176 -0.2611 -0.2190  0.7661
   60CHL1    C7 6857   0.748   3.586   9.961  0.3827 -0.3770  0.2613
   60CHL1   H7A 6858   0.828   3.520  10.001  0.3185  0.3800  1.6659
   60CHL1   H7B 6859   0.669   3.518   9.923 -0.6932 -0.5761  2.7074
   60CHL1    C8 6860   0.791   3.691   9.850  0.4663 -0.1617  0.2022
   60CHL1    H8 6861   0.877   3.744   9.896 -1.7934  0.1149  4.5592
   60CHL1   C14 6862   0.829   3.619   9.724  0.3728 -0.4965 -0.1645
   60CHL1   H14 6863   0.739   3.569   9.682 -0.9794  0.3323  1.5853
   60CHL1   C15 6864   0.933   3.502   9.730  0.4593 -0.3298 -0.4571
   60CHL1  H15A 6865   1.017   3.531   9.796  0.0552 -0.6398  0.1956
   60CHL1  H15B 6866   0.880   3.413   9.771 -1.9814  0.6258 -1.3632
   60CHL1   C16 6867   0.984   3.483   9.592 -0.2500 -0.0610  0.5341
   60CHL1  H16A 6868   1.093   3.462   9.591 -0.2840 -0.2712  0.9368
   60CHL1  H16B 6869   0.944   3.383   9.562 -1.1986  0.5198 -0.2153
   60CHL1   C17 6870   0.929   3.590   9.502  0.0861 -0.7676 -0.3890
   60CHL1   H17 6871   0.835   3.554   9.455 -0.3424 -3.4893  2.2578
   60CHL1   C13 6872   0.876   3.703   9.599  1.1395 -0.8201 -0.4195
   60CHL1   C18 6873   1.008   3.788   9.644 -0.0965 -0.2148 -0.5208
   60CHL1  H18A 6874   0.998   3.856   9.731  0.9743 -1.3059  0.5105
   60CHL1  H18B 6875   1.087   3.717   9.677 -0.6339 -1.6271 -2.1126
   60CHL1  H18C 6876   1.052   3.839   9.555 -2.2014 -1.3335 -2.3097
   60CHL1   C12 6877   0.751   3.788   9.564 -0.0528  0.7422  0.2456
   60CHL1  H12A 6878   0.766   3.845   9.469 -1.6226  1.4579  0.3982
   60CHL1  H12B 6879   0.673   3.717   9.528  0.6860 -0.3873  0.8147
   60CHL1   C11 6880   0.692   3.868   9.685  0.6836 -0.0304  0.2253
   60CHL1  H11A 6881   0.750   3.962   9.697  1.3722 -0.3435 -0.5063
   60CHL1  H11B 6882   0.592   3.900   9.650  1.5232  0.2716 -2.0508
   60CHL1    C9 6883   0.681   3.789   9.819  0.4607 -0.2566 -0.3351
   60CHL1    H9 6884   0.592   3.727   9.799 -0.0907 -0.1231  1.5560
   60CHL1   C10 6885   0.636   3.864   9.942  1.1484 -1.2745 -0.2766
   60CHL1   C19 6886   0.726   3.994   9.961 -0.6868  0.5716 -0.0616
   60CHL1  H19A 6887   0.834   3.970   9.975 -0.7348  1.5692  2.3702
   60CHL1  H19B 6888   0.717   4.058   9.870 -0.8662  1.0571  0.2985
   60CHL1  H19C 6889   0.691   4.059  10.043 -1.9156  0.9005 -0.8265
   60CHL1    C1 6890   0.489   3.916   9.928 -0.0813  0.3659  0.3678
   60CHL1   H1A 6891   0.487   3.992   9.847  0.6027 -0.1378 -0.1460
   60CHL1   H1B 6892   0.430   3.825   9.903  1.1132  0.1666 -2.1459
   60CHL1    C2 6893   0.438   3.995  10.048  0.5018  0.5339  0.3243
   60CHL1   H2A 6894   0.337   4.038  10.031  0.8404  0.6310 -1.6669
   60CHL1   H2B 6895   0.510   4.079  10.062  0.8578  0.1353  0.9239
   60CHL1   C20 6896   1.023   3.633   9.380  0.1869  0.3368  0.3472
   60CHL1   H20 6897   1.113   3.677   9.428  1.8228 -1.2018 -1.1203
   60CHL1   C21 6898   0.952   3.730   9.291  0.6460 -0.0656  0.6966
   60CHL1  H21A 6899   0.856   3.685   9.256 -0.3481  0.8954  2.0849
   60CHL1  H21B 6900   1.013   3.738   9.198 -0.7117 -2.1118 -0.4534
   60CHL1  H21C 6901   0.940   3.833   9.329 -1.1126  0.5819 -1.4539
   60CHL1   C22 6902   1.085   3.508   9.306 -0.5321  0.3520  0.3409
   60CHL1  H22A 6903   1.166   3.557   9.249 -0.1908 -0.1797  0.3671
   60CHL1  H22B 6904   1.140   3.442   9.376 -0.6574  0.9515  1.0282
   60CHL1   C23 6905   0.986   3.426   9.228 -0.0438  0.1628  0.4231
   60CHL1  H23A 6906   0.898   3.402   9.292  1.4229  0.1525  2.5325
   60CHL1  H23B 6907   0.961   3.482   9.136 -2.0043 -1.3272 -0.0130
   60CHL1   C24 6908   1.041   3.289   9.186  0.3211  0.3451  0.2703
   60CHL1  H24A 6909   1.142   3.290   9.141  1.0467  0.7456  1.8341
   60CHL1  H24B 6910   1.049   3.223   9.275 -0.9064  1.3717  1.1859
   60CHL1   C25 6911   0.949   3.206   9.095  0.8394 -0.1953  0.1122
   60CHL1   H25 6912   0.849   3.208   9.143  1.1595 -0.4825  0.8061
   60CHL1   C26 6913   0.932   3.264   8.954  0.2102 -0.1619  0.7151
   60CHL1  H26A 6914   0.897   3.191   8.878  1.5883  1.1760 -1.3309
   60CHL1  H26B 6915   0.868   3.354   8.944  0.8351  0.0534 -2.7861
   60CHL1  H26C 6916   1.032   3.299   8.920  0.4415  0.2185  1.7524
   60CHL1   C27 6917   1.017   3.063   9.088 -0.0241  0.0625  0.8011
   60CHL1  H27A 6918   1.126   3.059   9.072 -0.3444  0.0923 -1.8484
   60CHL1  H27B 6919   0.969   2.996   9.163 -0.3917 -0.6196 -0.0291
   60CHL1  H27C 6920   0.987   3.022   8.989 -0.2588  0.2573  0.7903
   61CHL1    C3 6921   5.465   5.292  10.047  0.8984  0.2924 -1.5591
   61CHL1    H3 6922   5.489   5.395  10.015  2.0809  0.1364 -1.2542
   61CHL1    O3 6923   5.463   5.294  10.189  0.2708  0.0634  0.2833
   61CHL1   H3' 6924   5.488   5.205  10.216  0.4176  0.4412  1.4429
   61CHL1    C4 6925   5.333   5.236   9.991 -0.2754 -0.2092 -0.0868
   61CHL1   H4A 6926   5.308   5.140  10.041 -2.1277 -0.0786 -0.6981
   61CHL1   H4B 6927   5.263   5.317  10.018 -0.9577 -0.3115 -1.4719
   61CHL1    C5 6928   5.335   5.208   9.844  0.3669 -0.6316  0.3510
   61CHL1    C6 6929   5.248   5.276   9.768  0.4589 -0.0912 -0.1994
   61CHL1    H6 6930   5.174   5.337   9.822  1.9166  0.5452  1.1449
   61CHL1    C7 6931   5.247   5.254   9.621  0.1059 -0.7011 -0.1111
   61CHL1   H7A 6932   5.141   5.248   9.588 -1.2247  0.7259  3.3711
   61CHL1   H7B 6933   5.298   5.341   9.575 -0.3357 -0.0479  0.6006
   61CHL1    C8 6934   5.332   5.132   9.573  0.0702  0.0870 -0.3071
   61CHL1    H8 6935   5.281   5.040   9.608 -2.1500  2.0065  1.8873
   61CHL1   C14 6936   5.357   5.129   9.421 -0.4390  0.5316  0.4632
   61CHL1   H14 6937   5.419   5.219   9.401 -0.8266  0.8778  0.8020
   61CHL1   C15 6938   5.232   5.137   9.329 -0.9339  0.6947 -0.2864
   61CHL1  H15A 6939   5.167   5.053   9.360 -0.6209  0.9761  1.2102
   61CHL1  H15B 6940   5.178   5.234   9.329 -1.2691  0.5104 -0.1930
   61CHL1   C16 6941   5.286   5.100   9.191  0.1941  0.4183  0.1274
   61CHL1  H16A 6942   5.215   5.023   9.153  0.9449 -1.2650  1.9160
   61CHL1  H16B 6943   5.286   5.185   9.120 -1.1763 -1.7918 -2.6963
   61CHL1   C17 6944   5.431   5.045   9.215 -0.1338 -0.0951  0.0586
   61CHL1   H17 6945   5.494   5.135   9.198 -3.6399  2.6040 -0.0114
   61CHL1   C13 6946   5.438   5.009   9.365 -0.5223 -0.7642  0.2780
   61CHL1   C18 6947   5.367   4.870   9.380 -0.5651 -0.8450  0.1528
   61CHL1  H18A 6948   5.328   4.869   9.485 -0.9931  1.7990  0.1031
   61CHL1  H18B 6949   5.278   4.861   9.314 -1.6570 -2.4765  1.7253
   61CHL1  H18C 6950   5.429   4.781   9.360  1.7156  0.0921  2.4259
   61CHL1   C12 6951   5.573   5.018   9.429 -0.9515  0.1593  0.3623
   61CHL1  H12A 6952   5.634   4.926   9.417 -2.0725 -0.6875  0.9633
   61CHL1  H12B 6953   5.633   5.099   9.383  0.5644 -0.9586  0.2855
   61CHL1   C11 6954   5.571   5.023   9.582 -0.1426  0.1980  0.0832
   61CHL1  H11A 6955   5.532   4.921   9.604  0.7170 -0.0369  0.5326
   61CHL1  H11B 6956   5.673   5.043   9.621 -0.2286 -0.2983  0.5814
   61CHL1    C9 6957   5.468   5.122   9.645 -0.1682  0.4953  0.4524
   61CHL1    H9 6958   5.515   5.221   9.628  1.6685  0.2801  3.5318
   61CHL1   C10 6959   5.455   5.125   9.797 -0.4144  0.2740 -0.3181
   61CHL1   C19 6960   5.443   4.978   9.842  0.4809  0.2305 -0.2571
   61CHL1  H19A 6961   5.417   4.985   9.950  2.3512  0.1572  0.2309
   61CHL1  H19B 6962   5.356   4.934   9.789  0.1749  2.1577 -1.4686
   61CHL1  H19C 6963   5.543   4.930   9.840 -0.5144 -2.1396  1.7115
   61CHL1    C1 6964   5.592   5.186   9.853 -0.0624  0.3867  0.0055
   61CHL1   H1A 6965   5.677   5.117   9.833 -2.3558 -2.6204 -0.1005
   61CHL1   H1B 6966   5.609   5.291   9.823 -0.0985  1.1079  2.3384
   61CHL1    C2 6967   5.584   5.204  10.006  0.1733 -0.3510 -0.6708
   61CHL1   H2A 6968   5.678   5.257  10.033  0.8853 -1.6319 -0.5446
   61CHL1   H2B 6969   5.593   5.100  10.045  2.2672 -0.6789 -1.8876
   61CHL1   C20 6970   5.463   4.943   9.112 -0.4818 -0.1337  1.0024
   61CHL1   H20 6971   5.386   4.864   9.109 -0.2067 -0.4044 -2.5192
   61CHL1   C21 6972   5.605   4.882   9.141  0.0283  0.4286  0.2600
   61CHL1  H21A 6973   5.678   4.962   9.164  0.9104 -0.1450 -0.4474
   61CHL1  H21B 6974   5.641   4.819   9.057  2.1215  2.0982 -0.1716
   61CHL1  H21C 6975   5.594   4.805   9.221 -2.0258  1.9447  1.5385
   61CHL1   C22 6976   5.460   5.001   8.968  0.6514  0.1720 -0.4187
   61CHL1  H22A 6977   5.480   4.921   8.894 -0.1479 -1.4090  0.9990
   61CHL1  H22B 6978   5.357   5.038   8.948  0.7175  0.9300  0.5935
   61CHL1   C23 6979   5.558   5.116   8.942 -0.1691  0.2144  0.2175
   61CHL1  H23A 6980   5.527   5.207   8.997  1.8585  1.4946 -0.6590
   61CHL1  H23B 6981   5.660   5.083   8.970  0.1790  0.8040 -0.3505
   61CHL1   C24 6982   5.561   5.153   8.792  0.2438  0.2132 -0.4084
   61CHL1  H24A 6983   5.641   5.229   8.777  0.9045 -0.9306 -3.2424
   61CHL1  H24B 6984   5.594   5.065   8.733 -1.8502 -0.1407 -1.1351
   61CHL1   C25 6985   5.432   5.195   8.725  0.3675 -0.1164  0.2220
   61CHL1   H25 6986   5.345   5.129   8.747 -1.4413  0.4097 -4.2555
   61CHL1   C26 6987   5.395   5.343   8.752 -0.2597  0.0407 -0.2695
   61CHL1  H26A 6988   5.397   5.368   8.860  0.8421  0.8346 -0.4617
   61CHL1  H26B 6989   5.472   5.405   8.701 -1.3362  1.8812  0.2629
   61CHL1  H26C 6990   5.292   5.370   8.719 -0.5485  2.4389  2.2173
   61CHL1   C27 6991   5.446   5.177   8.571  0.4233  0.0191 -0.5935
   61CHL1  H27A 6992   5.482   5.075   8.547  0.5782 -0.6561  2.2094
   61CHL1  H27B 6993   5.348   5.180   8.517  0.9488  1.6204 -1.5284
   61CHL1  H27C 6994   5.515   5.250   8.524 -2.6342  2.2739 -1.9800
   62CHL1    C3 6995   4.682   0.437  10.038  0.3851 -0.1294 -0.5356
   62CHL1    H3 6996   4.672   0.548  10.036 -1.7047 -0.2503  0.2898
   62CHL1    O3 6997   4.745   0.388  10.156 -0.2714  0.2071 -0.4335
   62CHL1   H3' 6998   4.767   0.298  10.131  1.1972  0.6713 -0.8934
   62CHL1    C4 6999   4.553   0.355  10.014 -0.3681 -0.0646 -0.2383
   62CHL1   H4A 7000   4.589   0.250  10.021 -1.7728 -0.4511  2.4644
   62CHL1   H4B 7001   4.485   0.373  10.099  0.2395 -0.2873  0.3013
   62CHL1    C5 7002   4.486   0.379   9.883 -0.7175  0.5984  0.2403
   62CHL1    C6 7003   4.359   0.420   9.874 -0.2800 -0.5401  0.2557
   62CHL1    H6 7004   4.293   0.439   9.960 -1.5847  0.4694 -0.9327
   62CHL1    C7 7005   4.289   0.437   9.740  0.4036 -0.7477  0.3622
   62CHL1   H7A 7006   4.198   0.374   9.745  1.4037 -2.4194 -1.2189
   62CHL1   H7B 7007   4.263   0.544   9.724  2.1861 -0.5743 -2.0129
   62CHL1    C8 7008   4.370   0.403   9.616  0.3297  0.4283  0.2306
   62CHL1    H8 7009   4.356   0.294   9.601 -0.7103  0.6070 -0.2131
   62CHL1   C14 7010   4.311   0.473   9.495  1.0214  0.3678 -0.3324
   62CHL1   H14 7011   4.341   0.580   9.500  1.4273  0.3385 -1.7680
   62CHL1   C15 7012   4.152   0.487   9.474  0.3524  0.3757 -0.3083
   62CHL1  H15A 7013   4.108   0.384   9.471  2.5394 -0.5948 -2.0112
   62CHL1  H15B 7014   4.110   0.552   9.554  1.0646 -0.7967  1.0682
   62CHL1   C16 7015   4.151   0.548   9.333  1.1565  0.0806 -1.0251
   62CHL1  H16A 7016   4.084   0.502   9.257 -0.8476 -2.0606  1.8360
   62CHL1  H16B 7017   4.127   0.655   9.352  1.0250 -0.1895  0.4754
   62CHL1   C17 7018   4.300   0.534   9.277 -0.1823  0.6359 -0.6848
   62CHL1   H17 7019   4.350   0.632   9.295  0.2889  0.6528 -1.9720
   62CHL1   C13 7020   4.373   0.429   9.363 -0.3045 -0.0100  0.0862
   62CHL1   C18 7021   4.317   0.291   9.318 -0.0551  0.2891 -0.1109
   62CHL1  H18A 7022   4.342   0.269   9.212 -1.4400  1.1988 -0.6607
   62CHL1  H18B 7023   4.373   0.215   9.376 -0.7232 -1.2575 -1.4078
   62CHL1  H18C 7024   4.209   0.274   9.340 -0.4492  2.9131  0.3095
   62CHL1   C12 7025   4.526   0.448   9.375 -0.0508 -1.0602  0.4641
   62CHL1  H12A 7026   4.568   0.405   9.281 -0.7989  2.1692 -1.5094
   62CHL1  H12B 7027   4.549   0.556   9.373  0.0347 -1.0703  0.8692
   62CHL1   C11 7028   4.592   0.380   9.493  0.5933  0.9310  0.0138
   62CHL1  H11A 7029   4.565   0.272   9.482  1.4545  0.5484  1.3822
   62CHL1  H11B 7030   4.701   0.399   9.502  0.8734  0.2166 -1.3986
   62CHL1    C9 7031   4.519   0.422   9.630  0.1528 -0.6157  0.3457
   62CHL1    H9 7032   4.541   0.531   9.638 -1.4119 -0.2981  0.6534
   62CHL1   C10 7033   4.580   0.372   9.763  0.0579  1.0189  0.2678
   62CHL1   C19 7034   4.600   0.216   9.743 -0.3092  0.0962  0.0894
   62CHL1  H19A 7035   4.664   0.192   9.830 -1.2580  2.8652  1.6778
   62CHL1  H19B 7036   4.513   0.151   9.721 -0.1288  0.0402 -0.4798
   62CHL1  H19C 7037   4.664   0.187   9.657  1.6271  0.6765  1.2763
   62CHL1    C1 7038   4.719   0.442   9.781  0.1559  0.6802 -0.0593
   62CHL1   H1A 7039   4.786   0.407   9.699 -0.4771  0.6274 -0.5639
   62CHL1   H1B 7040   4.704   0.552   9.776  0.5434  0.6834 -1.9739
   62CHL1    C2 7041   4.777   0.408   9.920 -0.0444 -0.5937 -0.0477
   62CHL1   H2A 7042   4.875   0.459   9.928 -0.4020  1.1884 -4.3627
   62CHL1   H2B 7043   4.816   0.304   9.916  1.8028  0.0872 -1.3582
   62CHL1   C20 7044   4.294   0.524   9.124 -0.2815  0.3386  0.3016
   62CHL1   H20 7045   4.232   0.438   9.089 -0.2215  0.9335 -1.3666
   62CHL1   C21 7046   4.439   0.500   9.072  0.0383  0.0816  0.5545
   62CHL1  H21A 7047   4.480   0.399   9.095  1.9485  0.7441  0.2408
   62CHL1  H21B 7048   4.513   0.578   9.101  0.5509 -0.4764  0.7959
   62CHL1  H21C 7049   4.444   0.505   8.961 -0.9252  2.4113  0.5638
   62CHL1   C22 7050   4.241   0.650   9.048  0.7867 -0.1494 -0.3108
   62CHL1  H22A 7051   4.166   0.695   9.116 -0.1920  1.0914 -2.1506
   62CHL1  H22B 7052   4.319   0.729   9.043  2.7898 -2.1280 -3.5136
   62CHL1   C23 7053   4.174   0.620   8.911  0.0283 -0.2320  0.1052
   62CHL1  H23A 7054   4.238   0.555   8.848 -0.3135  0.3535 -0.8739
   62CHL1  H23B 7055   4.098   0.544   8.942 -0.4031  0.9484  2.1049
   62CHL1   C24 7056   4.121   0.736   8.830  0.2461 -0.0681 -0.1516
   62CHL1  H24A 7057   4.118   0.689   8.730  0.1959  0.1501 -0.2540
   62CHL1  H24B 7058   4.018   0.763   8.861  0.4926  0.3117  0.3606
   62CHL1   C25 7059   4.205   0.862   8.822 -0.0638  0.0042  0.2485
   62CHL1   H25 7060   4.215   0.890   8.929 -0.5850  1.7446 -0.1308
   62CHL1   C26 7061   4.337   0.847   8.755 -0.1990 -0.5859 -0.4957
   62CHL1  H26A 7062   4.400   0.772   8.808 -0.4897 -0.7807 -0.4245
   62CHL1  H26B 7063   4.329   0.826   8.647  0.4972 -1.1612 -0.4397
   62CHL1  H26C 7064   4.402   0.938   8.752 -1.1963  0.1298 -1.0298
   62CHL1   C27 7065   4.126   0.973   8.761 -0.1300  0.2770 -0.1336
   62CHL1  H27A 7066   4.183   1.065   8.786  0.6293 -0.2483  0.1157
   62CHL1  H27B 7067   4.128   0.968   8.650  1.0263  0.1493 -0.1152
   62CHL1  H27C 7068   4.021   0.984   8.795 -0.1950 -1.3615  0.2717
   63CHL1    C3 7069   5.998   2.799  10.377  0.0966  0.7320 -0.5759
   63CHL1    H3 7070   5.926   2.714  10.378 -0.2753  0.9923  2.1351
   63CHL1    O3 7071   6.003   2.857  10.507 -0.8346  0.4518  0.4423
   63CHL1   H3' 7072   6.052   2.939  10.504  2.0791 -1.1783 -0.3920
   63CHL1    C4 7073   6.135   2.751  10.327  0.0848 -0.4244  0.3496
   63CHL1   H4A 7074   6.203   2.838  10.342  0.2069 -0.3001 -0.8425
   63CHL1   H4B 7075   6.172   2.669  10.392  2.2369 -0.5518 -0.9199
   63CHL1    C5 7076   6.136   2.709  10.176  0.3980  0.3749  0.3373
   63CHL1    C6 7077   6.182   2.591  10.128 -0.0107 -0.3377  0.4993
   63CHL1    H6 7078   6.219   2.521  10.205  2.1621  0.2890  0.1007
   63CHL1    C7 7079   6.169   2.547   9.983  0.0178  0.2063  0.2102
   63CHL1   H7A 7080   6.263   2.497   9.950 -0.9985 -0.8744 -1.1166
   63CHL1   H7B 7081   6.092   2.469   9.969 -0.5258  1.0630 -1.9469
   63CHL1    C8 7082   6.140   2.661   9.880  0.1831  0.7538 -0.3292
   63CHL1    H8 7083   6.233   2.721   9.875  0.6028  0.1505  0.0723
   63CHL1   C14 7084   6.113   2.606   9.738 -0.1462 -0.3086 -0.3074
   63CHL1   H14 7085   6.016   2.551   9.750 -0.5279  0.5032  0.4307
   63CHL1   C15 7086   6.206   2.501   9.675 -0.0962 -0.0345  0.3680
   63CHL1  H15A 7087   6.316   2.507   9.687  0.1247 -0.6026 -1.1054
   63CHL1  H15B 7088   6.190   2.411   9.739 -2.3454 -1.4750 -2.0058
   63CHL1   C16 7089   6.162   2.492   9.530  0.0420 -0.2931  0.2845
   63CHL1  H16A 7090   6.251   2.489   9.464  2.4354 -1.0234  3.3220
   63CHL1  H16B 7091   6.115   2.392   9.515  1.7924 -0.9024 -1.6836
   63CHL1   C17 7092   6.056   2.615   9.520 -0.2662  0.8429  0.0221
   63CHL1   H17 7093   5.953   2.575   9.527  0.0427  0.0964  0.5913
   63CHL1   C13 7094   6.089   2.708   9.636 -0.0216 -0.0439 -0.1713
   63CHL1   C18 7095   6.221   2.794   9.601  0.8006 -0.1601 -0.3880
   63CHL1  H18A 7096   6.249   2.851   9.692  0.8805  0.6734 -0.9218
   63CHL1  H18B 7097   6.309   2.729   9.584  1.6594  0.9975 -0.5114
   63CHL1  H18C 7098   6.195   2.867   9.521  0.5995  0.4130  0.1952
   63CHL1   C12 7099   5.966   2.796   9.684 -0.4836 -0.8433 -0.2249
   63CHL1  H12A 7100   5.952   2.885   9.618  0.3464  0.3986  1.2148
   63CHL1  H12B 7101   5.883   2.723   9.688  0.3576 -1.8216 -0.2137
   63CHL1   C11 7102   5.998   2.859   9.829 -0.1193 -0.2242 -0.2949
   63CHL1  H11A 7103   6.069   2.943   9.811 -0.2891  0.0492  0.2954
   63CHL1  H11B 7104   5.905   2.911   9.860  2.1242  2.4679  2.5964
   63CHL1    C9 7105   6.034   2.754   9.937 -0.1931 -0.1767  0.2081
   63CHL1    H9 7106   5.951   2.684   9.960  0.6570 -0.8129  1.4992
   63CHL1   C10 7107   6.070   2.816  10.082  0.6261  0.2285  0.2580
   63CHL1   C19 7108   6.163   2.938  10.062  0.3738 -0.5377  0.0704
   63CHL1  H19A 7109   6.269   2.910  10.040  0.3533 -0.4760 -0.1176
   63CHL1  H19B 7110   6.121   3.019   9.998 -2.4374 -1.1488  1.0412
   63CHL1  H19C 7111   6.169   3.005  10.150 -3.7704  1.7276 -1.1286
   63CHL1    C1 7112   5.928   2.849  10.147 -0.1978 -0.2734  0.2515
   63CHL1   H1A 7113   5.875   2.925  10.085 -0.3214 -1.1286 -0.7354
   63CHL1   H1B 7114   5.861   2.760  10.146  1.2195 -1.3992  1.5523
   63CHL1    C2 7115   5.936   2.904  10.289  1.0354  0.1385  0.5498
   63CHL1   H2A 7116   5.833   2.927  10.323  1.7662 -0.7966  3.6457
   63CHL1   H2B 7117   6.001   2.994  10.297  0.5718  0.5296  0.0533
   63CHL1   C20 7118   6.056   2.685   9.374 -0.8645 -0.2178 -0.2973
   63CHL1   H20 7119   6.123   2.774   9.370 -0.8863 -0.2358 -1.7852
   63CHL1   C21 7120   5.913   2.732   9.337 -0.5702  0.2582  0.3023
   63CHL1  H21A 7121   5.905   2.770   9.233  1.7542  1.1256  0.3791
   63CHL1  H21B 7122   5.880   2.806   9.413  0.5367  0.3467  0.7184
   63CHL1  H21C 7123   5.838   2.650   9.340  0.5180 -0.7366  1.0931
   63CHL1   C22 7124   6.121   2.599   9.259 -0.3822 -0.0557 -0.7753
   63CHL1  H22A 7125   6.229   2.578   9.273 -0.5267 -1.3924 -1.5087
   63CHL1  H22B 7126   6.075   2.498   9.257  1.9356 -1.2401  0.8739
   63CHL1   C23 7127   6.119   2.656   9.117  0.2589  0.3113  0.0567
   63CHL1  H23A 7128   6.117   2.574   9.042 -1.2721  2.2455 -2.1784
   63CHL1  H23B 7129   6.026   2.714   9.097 -0.7804 -1.4072 -0.3127
   63CHL1   C24 7130   6.235   2.753   9.075  0.2036  0.8649 -0.1588
   63CHL1  H24A 7131   6.223   2.852   9.124 -1.7550 -0.2790  1.8407
   63CHL1  H24B 7132   6.333   2.710   9.104  0.0005  0.7983  0.4377
   63CHL1   C25 7133   6.246   2.771   8.920  0.4199 -0.5637  0.2416
   63CHL1   H25 7134   6.145   2.798   8.884  0.6670  0.7530  0.4848
   63CHL1   C26 7135   6.329   2.895   8.885  0.3886 -0.3945  0.1526
   63CHL1  H26A 7136   6.435   2.887   8.918  0.5216 -1.6377 -0.5086
   63CHL1  H26B 7137   6.341   2.910   8.775 -2.0482 -0.8509 -0.2323
   63CHL1  H26C 7138   6.278   2.985   8.926 -2.2143 -1.7443  0.0917
   63CHL1   C27 7139   6.302   2.646   8.845 -0.2795 -0.2482 -0.4373
   63CHL1  H27A 7140   6.382   2.678   8.774  0.8363  0.3310  1.0344
   63CHL1  H27B 7141   6.343   2.570   8.915 -1.0375 -0.2728 -0.0069
   63CHL1  H27C 7142   6.220   2.594   8.791  0.8875 -2.4973 -0.1509
   64CHL1    C3 7143   4.247   1.776   9.975  0.7126 -0.6433  0.5020
   64CHL1    H3 7144   4.307   1.869   9.973  1.7582 -1.2300  2.4225
   64CHL1    O3 7145   4.214   1.737  10.107 -0.5904  0.7233  0.4883
   64CHL1   H3' 7146   4.291   1.692  10.143 -1.4065 -2.9662 -1.8362
   64CHL1    C4 7147   4.122   1.802   9.883  0.0558  0.2177  0.1293
   64CHL1   H4A 7148   4.072   1.703   9.888  1.9719 -0.8957 -1.3179
   64CHL1   H4B 7149   4.054   1.878   9.926 -0.5291 -0.8242  1.0873
   64CHL1    C5 7150   4.162   1.838   9.741 -0.2024  0.2845 -0.9404
   64CHL1    C6 7151   4.102   1.942   9.675  0.3863  0.1127  0.3517
   64CHL1    H6 7152   4.026   1.995   9.735 -0.1885 -0.2036 -0.0789
   64CHL1    C7 7153   4.128   1.982   9.531  0.0109 -0.2786 -0.0472
   64CHL1   H7A 7154   4.035   2.023   9.488  0.8435  1.0934 -0.6028
   64CHL1   H7B 7155   4.205   2.061   9.542 -0.3152  0.1320 -0.6943
   64CHL1    C8 7156   4.209   1.874   9.442 -0.3983 -0.2854 -0.0336
   64CHL1    H8 7157   4.132   1.803   9.404  2.7305 -3.2724 -1.3029
   64CHL1   C14 7158   4.272   1.948   9.325  0.0055 -0.3145 -0.2708
   64CHL1   H14 7159   4.350   2.021   9.358  1.6857 -1.7125 -0.9919
   64CHL1   C15 7160   4.178   2.024   9.237 -0.1531 -0.8658  0.3078
   64CHL1  H15A 7161   4.078   1.976   9.222  0.6501 -2.2261 -0.9918
   64CHL1  H15B 7162   4.160   2.125   9.278 -0.1438 -1.0918  0.8840
   64CHL1   C16 7163   4.250   2.028   9.104  0.6397 -0.5684  0.0308
   64CHL1  H16A 7164   4.176   1.991   9.030  0.4436  0.4130 -0.2652
   64CHL1  H16B 7165   4.272   2.134   9.083  0.2441  0.0118  2.2429
   64CHL1   C17 7166   4.384   1.951   9.120 -0.0342  0.0758  1.4178
   64CHL1   H17 7167   4.460   2.023   9.157 -0.4788  0.6481  1.2217
   64CHL1   C13 7168   4.351   1.850   9.235 -0.9456 -1.2159  0.2003
   64CHL1   C18 7169   4.262   1.739   9.184  0.4389  1.1739 -1.2618
   64CHL1  H18A 7170   4.223   1.666   9.259 -0.1062  0.9600 -1.7502
   64CHL1  H18B 7171   4.176   1.771   9.122 -1.7202  2.1409  1.9833
   64CHL1  H18C 7172   4.322   1.672   9.118 -1.8663 -1.3983 -0.9420
   64CHL1   C12 7173   4.465   1.785   9.318 -0.6384 -0.5001  0.5088
   64CHL1  H12A 7174   4.535   1.719   9.263  0.1116  0.1533  0.6662
   64CHL1  H12B 7175   4.534   1.863   9.357  2.5807 -2.2874 -1.1989
   64CHL1   C11 7176   4.414   1.725   9.449  0.5203  0.2052 -0.1286
   64CHL1  H11A 7177   4.375   1.625   9.421  2.4644 -0.5078 -0.3955
   64CHL1  H11B 7178   4.498   1.710   9.520 -0.8184 -2.7253  1.0354
   64CHL1    C9 7179   4.319   1.812   9.529  0.2402 -0.6545 -0.3484
   64CHL1    H9 7180   4.385   1.897   9.555  2.2445 -2.3002  0.2129
   64CHL1   C10 7181   4.273   1.758   9.671  0.4411  0.3869 -0.1842
   64CHL1   C19 7182   4.208   1.622   9.638  0.0932  0.3044 -0.4467
   64CHL1  H19A 7183   4.139   1.584   9.716  0.3382  0.6836 -0.0442
   64CHL1  H19B 7184   4.150   1.624   9.543  1.3418 -1.2431 -1.3116
   64CHL1  H19C 7185   4.280   1.539   9.619  0.6510  0.1294  2.1096
   64CHL1    C1 7186   4.392   1.741   9.775  0.6760  0.4049  0.4074
   64CHL1   H1A 7187   4.458   1.666   9.726  1.0831  0.7971  0.3507
   64CHL1   H1B 7188   4.454   1.832   9.788 -0.0525  0.7582  1.5444
   64CHL1    C2 7189   4.344   1.683   9.907 -0.3316  0.0794  0.1521
   64CHL1   H2A 7190   4.432   1.688   9.974 -0.0622 -0.6139 -0.1411
   64CHL1   H2B 7191   4.305   1.580   9.894 -1.5537  0.0761  3.0554
   64CHL1   C20 7192   4.444   1.905   8.988 -0.2463 -0.3379 -0.6450
   64CHL1   H20 7193   4.378   1.823   8.952 -1.3492  0.1178  0.2920
   64CHL1   C21 7194   4.585   1.840   9.010  0.8037  0.6875  0.1236
   64CHL1  H21A 7195   4.631   1.916   9.077 -0.1238  1.1025  0.3148
   64CHL1  H21B 7196   4.648   1.817   8.922  3.8222 -0.8906  2.4984
   64CHL1  H21C 7197   4.560   1.745   9.061  2.2279 -0.0374 -0.4833
   64CHL1   C22 7198   4.447   2.018   8.886  0.1140  0.1733  0.0805
   64CHL1  H22A 7199   4.344   2.043   8.852 -0.4717 -1.6673  0.3362
   64CHL1  H22B 7200   4.503   2.107   8.921  0.9565 -0.9235  1.6944
   64CHL1   C23 7201   4.513   1.974   8.758  0.0420  0.4021 -0.5221
   64CHL1  H23A 7202   4.622   1.954   8.771 -0.1320 -1.8421 -1.9435
   64CHL1  H23B 7203   4.473   1.879   8.716  2.1732 -0.3918 -0.9159
   64CHL1   C24 7204   4.494   2.085   8.652  0.3708 -0.5533  0.3759
   64CHL1  H24A 7205   4.384   2.100   8.647  0.4262 -0.3198 -0.1467
   64CHL1  H24B 7206   4.539   2.182   8.685 -2.2059  0.9793 -0.3029
   64CHL1   C25 7207   4.552   2.048   8.507  1.1927 -0.4824 -0.3837
   64CHL1   H25 7208   4.514   1.945   8.490 -1.5256  0.5152 -0.7412
   64CHL1   C26 7209   4.497   2.138   8.394 -0.2405  0.0179  0.3339
   64CHL1  H26A 7210   4.394   2.124   8.355  0.4320  1.4259 -2.1666
   64CHL1  H26B 7211   4.503   2.241   8.436  0.0686 -0.1723  0.7626
   64CHL1  H26C 7212   4.566   2.143   8.307 -0.0240 -1.6436  0.3832
   64CHL1   C27 7213   4.701   2.054   8.507  0.4890 -0.5086 -0.1865
   64CHL1  H27A 7214   4.734   2.160   8.518 -1.9970  0.2587  0.6147
   64CHL1  H27B 7215   4.744   1.995   8.590 -0.0593 -0.9091 -0.1831
   64CHL1  H27C 7216   4.751   2.013   8.417  1.3831 -0.6969  0.3857
   65CHL1    C3 7217   0.951   5.311  10.153  0.0151 -0.8410 -0.5582
   65CHL1    H3 7218   1.011   5.219  10.135  1.4803 -0.0259  0.0585
   65CHL1    O3 7219   0.940   5.326  10.293  0.4317 -0.3084  0.5595
   65CHL1   H3' 7220   1.031   5.328  10.325  1.3365 -0.8275 -1.7948
   65CHL1    C4 7221   1.022   5.439  10.105  0.1515 -0.0305 -0.1554
   65CHL1   H4A 7222   0.960   5.526  10.137  1.3328  0.5498  0.6531
   65CHL1   H4B 7223   1.117   5.455  10.161  0.8514  1.2643 -1.6475
   65CHL1    C5 7224   1.039   5.434   9.953 -1.1174  0.2943  0.2441
   65CHL1    C6 7225   1.158   5.462   9.898  0.2098 -1.1773 -0.1155
   65CHL1    H6 7226   1.242   5.497   9.960  0.1145 -1.5311  0.2122
   65CHL1    C7 7227   1.177   5.469   9.742  0.2921 -0.0310  0.0006
   65CHL1   H7A 7228   1.220   5.569   9.721 -1.9458  1.9240  3.6107
   65CHL1   H7B 7229   1.246   5.389   9.708 -1.2171 -1.5183  0.2756
   65CHL1    C8 7230   1.045   5.468   9.664 -0.4281  0.3238  0.7970
   65CHL1    H8 7231   1.006   5.572   9.672 -0.3339  0.3311  1.1720
   65CHL1   C14 7232   1.076   5.423   9.524 -0.0700 -0.1880  0.2865
   65CHL1   H14 7233   1.114   5.320   9.538 -0.0948 -0.1327  0.7677
   65CHL1   C15 7234   1.186   5.495   9.445 -0.7204 -0.8610 -0.5351
   65CHL1  H15A 7235   1.176   5.605   9.450  0.2025 -0.7388 -1.1097
   65CHL1  H15B 7236   1.285   5.471   9.488 -1.3165  0.4288  1.7172
   65CHL1   C16 7237   1.171   5.436   9.301  0.5023 -0.5701 -0.0112
   65CHL1  H16A 7238   1.180   5.524   9.234 -2.2025  0.3384  0.6789
   65CHL1  H16B 7239   1.250   5.361   9.284  1.9812  0.8379  0.4248
   65CHL1   C17 7240   1.024   5.372   9.300  0.3952 -0.3298 -0.5002
   65CHL1   H17 7241   1.034   5.262   9.313 -2.0869 -0.4572  1.1175
   65CHL1   C13 7242   0.956   5.409   9.435  0.1014 -0.4678  0.1516
   65CHL1   C18 7243   0.883   5.549   9.414  0.2673  0.4620 -0.0575
   65CHL1  H18A 7244   0.860   5.589   9.515  1.2275  0.8062  0.0410
   65CHL1  H18B 7245   0.949   5.625   9.367  2.0576 -1.0086 -0.0451
   65CHL1  H18C 7246   0.787   5.543   9.360  0.4569  2.0512 -0.6425
   65CHL1   C12 7247   0.859   5.303   9.490  0.1214  0.6966 -0.1390
   65CHL1  H12A 7248   0.765   5.297   9.432 -0.6214 -0.4274  1.1276
   65CHL1  H12B 7249   0.916   5.209   9.504  0.1441  0.9378  1.7530
   65CHL1   C11 7250   0.824   5.336   9.638 -0.4150 -0.3672  0.4574
   65CHL1  H11A 7251   0.768   5.431   9.625  1.6283  0.9149  0.5884
   65CHL1  H11B 7252   0.762   5.256   9.684 -1.1611  0.3498  0.7231
   65CHL1    C9 7253   0.947   5.369   9.728 -0.1653  0.7581  0.4332
   65CHL1    H9 7254   1.005   5.274   9.736  0.3675  1.0996  0.7133
   65CHL1   C10 7255   0.908   5.397   9.879  0.5577  0.4093  0.4245
   65CHL1   C19 7256   0.803   5.508   9.878  0.1974  0.0161  0.2471
   65CHL1  H19A 7257   0.711   5.477   9.824  0.7190 -1.2710  0.0584
   65CHL1  H19B 7258   0.780   5.538   9.983 -0.0282 -1.1300  0.5350
   65CHL1  H19C 7259   0.848   5.598   9.829 -1.5249  1.2439  0.8229
   65CHL1    C1 7260   0.840   5.269   9.938 -0.2965 -0.2442 -0.0897
   65CHL1   H1A 7261   0.735   5.248   9.907 -1.5126  1.9432  2.0893
   65CHL1   H1B 7262   0.898   5.177   9.918 -1.1317 -0.9584  0.6907
   65CHL1    C2 7263   0.816   5.281  10.089 -0.3817  0.5247 -0.4937
   65CHL1   H2A 7264   0.777   5.182  10.120 -2.4428  1.7827  1.2976
   65CHL1   H2B 7265   0.741   5.355  10.126 -0.4509 -0.4823  1.4929
   65CHL1   C20 7266   0.959   5.401   9.163  0.3229 -0.6859  0.3466
   65CHL1   H20 7267   0.931   5.508   9.153  2.5603  0.1274  1.9161
   65CHL1   C21 7268   0.826   5.327   9.155 -0.1600 -0.2007 -0.5661
   65CHL1  H21A 7269   0.790   5.334   9.050 -1.1250  0.2877 -0.2091
   65CHL1  H21B 7270   0.740   5.366   9.213  0.2079  0.7336 -0.6251
   65CHL1  H21C 7271   0.842   5.221   9.183  0.6258  0.0314 -0.1123
   65CHL1   C22 7272   1.053   5.376   9.042 -0.2727  0.9641 -0.5984
   65CHL1  H22A 7273   1.153   5.344   9.079 -0.6783  1.5523  1.0852
   65CHL1  H22B 7274   1.003   5.293   8.987 -0.8697  1.1275 -0.3122
   65CHL1   C23 7275   1.061   5.495   8.943 -0.1800  0.1562  0.0596
   65CHL1  H23A 7276   0.960   5.537   8.927 -0.3611 -0.3929 -0.2643
   65CHL1  H23B 7277   1.121   5.574   8.993 -0.7668 -1.0024  2.7932
   65CHL1   C24 7278   1.127   5.460   8.811  0.1273  0.7083  0.0603
   65CHL1  H24A 7279   1.236   5.440   8.823  0.2572  1.3467 -0.0263
   65CHL1  H24B 7280   1.077   5.372   8.766 -1.8144  1.2983  0.9826
   65CHL1   C25 7281   1.128   5.565   8.700  0.2491 -0.8284 -0.0125
   65CHL1   H25 7282   1.151   5.662   8.750 -3.1009 -0.5685  1.2293
   65CHL1   C26 7283   1.222   5.527   8.579 -0.2603 -0.2395  0.1149
   65CHL1  H26A 7284   1.230   5.611   8.507  0.2300 -0.9875 -0.7310
   65CHL1  H26B 7285   1.330   5.511   8.601 -0.2125 -0.3711 -0.2049
   65CHL1  H26C 7286   1.177   5.437   8.533  1.2339 -0.1653 -1.6253
   65CHL1   C27 7287   0.985   5.592   8.652 -1.4280  0.0929  0.6974
   65CHL1  H27A 7288   0.988   5.683   8.588 -0.7464  0.5061  1.3002
   65CHL1  H27B 7289   0.953   5.513   8.581  1.8430 -0.5998 -0.2064
   65CHL1  H27C 7290   0.917   5.608   8.738 -1.1836 -1.1282  1.1407
   66CHL1    C3 7291   6.088   4.329  10.427  0.4318 -0.2915 -0.2096
   66CHL1    H3 7292   6.181   4.268  10.434  0.7930  0.2952  0.1154
   66CHL1    O3 7293   6.053   4.379  10.554 -0.4240 -0.7658 -1.0038
   66CHL1   H3' 7294   5.957   4.384  10.552 -0.5847 -1.4065  1.6456
   66CHL1    C4 7295   6.127   4.441  10.324 -0.4022  0.1853  0.1451
   66CHL1   H4A 7296   6.048   4.518  10.313 -2.0177 -1.6939 -3.0375
   66CHL1   H4B 7297   6.215   4.496  10.365  0.1093 -2.5300  3.0568
   66CHL1    C5 7298   6.143   4.400  10.174 -0.6921 -0.1175 -0.7366
   66CHL1    C6 7299   6.250   4.443  10.106 -0.0387 -0.8290 -0.2496
   66CHL1    H6 7300   6.320   4.516  10.151 -0.7156 -1.0681  1.2146
   66CHL1    C7 7301   6.269   4.408   9.959  0.1833 -0.5266  0.0935
   66CHL1   H7A 7302   6.284   4.500   9.898 -0.7020 -0.3467  0.1375
   66CHL1   H7B 7303   6.362   4.348   9.948  1.0724  0.7005  0.6848
   66CHL1    C8 7304   6.146   4.348   9.899 -0.4985  0.0126  0.4631
   66CHL1    H8 7305   6.076   4.434   9.887  0.3410  0.7345  0.6021
   66CHL1   C14 7306   6.183   4.291   9.765 -0.3098  0.4598 -0.1122
   66CHL1   H14 7307   6.243   4.203   9.795 -1.1956  0.1858  0.9357
   66CHL1   C15 7308   6.264   4.370   9.656  0.0418 -0.9090  0.1474
   66CHL1  H15A 7309   6.219   4.472   9.654 -0.4890 -1.1400 -0.0574
   66CHL1  H15B 7310   6.367   4.376   9.696 -0.0119 -1.6154  0.4004
   66CHL1   C16 7311   6.257   4.280   9.536  0.1216 -0.0390  0.1684
   66CHL1  H16A 7312   6.235   4.339   9.444  0.2791  2.4438  1.6496
   66CHL1  H16B 7313   6.355   4.232   9.517 -0.2824 -0.5413 -0.7394
   66CHL1   C17 7314   6.145   4.172   9.565 -0.3475 -0.1323  0.1262
   66CHL1   H17 7315   6.211   4.089   9.598 -0.1084  0.2812  0.6988
   66CHL1   C13 7316   6.069   4.223   9.692 -0.1362  0.1704  0.5042
   66CHL1   C18 7317   5.970   4.330   9.639  0.6587 -0.3371 -0.2778
   66CHL1  H18A 7318   5.951   4.397   9.726  1.0602 -1.2450  0.5282
   66CHL1  H18B 7319   6.009   4.396   9.558  1.5999 -1.9965 -1.2388
   66CHL1  H18C 7320   5.875   4.293   9.597  0.9883 -0.2489 -1.1264
   66CHL1   C12 7321   6.005   4.126   9.780  0.1620  0.6222 -0.2959
   66CHL1  H12A 7322   5.917   4.071   9.740  1.0413 -1.8610  0.9889
   66CHL1  H12B 7323   6.074   4.042   9.801 -0.5435  0.1831  0.3101
   66CHL1   C11 7324   5.962   4.172   9.916  0.4071 -0.1438 -0.3087
   66CHL1  H11A 7325   5.869   4.230   9.896 -0.4626 -2.1068 -2.4120
   66CHL1  H11B 7326   5.921   4.092   9.981 -0.4016 -0.0620 -0.7083
   66CHL1    C9 7327   6.075   4.244   9.991  0.0039  0.1040 -0.3175
   66CHL1    H9 7328   6.154   4.167  10.003  1.3567  1.3323 -1.0231
   66CHL1   C10 7329   6.038   4.309  10.125 -0.3979 -0.2733 -1.5490
   66CHL1   C19 7330   5.909   4.399  10.116  0.4048 -0.2976  0.2779
   66CHL1  H19A 7331   5.892   4.459  10.208 -1.7667 -1.6846  0.8441
   66CHL1  H19B 7332   5.925   4.471  10.033 -1.9930  1.9191  1.5827
   66CHL1  H19C 7333   5.815   4.348  10.086 -0.0592  1.4618 -1.4169
   66CHL1    C1 7334   6.009   4.199  10.232  0.5235  0.2961 -0.2131
   66CHL1   H1A 7335   5.932   4.134  10.185 -0.5136  1.0626  0.4126
   66CHL1   H1B 7336   6.095   4.129  10.242  0.3845  0.1009 -0.3729
   66CHL1    C2 7337   5.976   4.240  10.372 -0.1722 -1.0355 -0.1159
   66CHL1   H2A 7338   5.957   4.155  10.440  0.0293 -0.3565  0.8053
   66CHL1   H2B 7339   5.881   4.298  10.371 -0.2921 -1.2282  0.2052
   66CHL1   C20 7340   6.066   4.123   9.439  0.0644  0.1809 -0.3731
   66CHL1   H20 7341   6.021   4.214   9.396 -1.6415 -0.1591  0.6075
   66CHL1   C21 7342   5.940   4.035   9.470  0.4088 -0.6943  0.5881
   66CHL1  H21A 7343   5.871   4.081   9.544  0.5505  1.5057 -0.5455
   66CHL1  H21B 7344   5.969   3.931   9.493 -0.3861 -0.9762  0.3420
   66CHL1  H21C 7345   5.870   4.015   9.385  0.9276 -0.0490 -0.0088
   66CHL1   C22 7346   6.159   4.045   9.343 -1.1474 -0.3785  0.6930
   66CHL1  H22A 7347   6.257   4.096   9.330 -1.0928 -1.2264 -3.2170
   66CHL1  H22B 7348   6.183   3.945   9.385 -0.1305 -0.6077 -0.4064
   66CHL1   C23 7349   6.097   4.034   9.206  1.0986 -0.3850 -0.9503
   66CHL1  H23A 7350   6.148   3.943   9.168  1.0226 -1.0568  0.4816
   66CHL1  H23B 7351   5.986   4.027   9.206  1.0402 -0.0756 -2.7694
   66CHL1   C24 7352   6.138   4.151   9.116  0.0341 -0.4882  0.4540
   66CHL1  H24A 7353   6.126   4.244   9.175  0.5150 -0.5700  0.6872
   66CHL1  H24B 7354   6.247   4.153   9.093 -0.1303  0.9275 -0.2845
   66CHL1   C25 7355   6.055   4.159   8.987  0.2528 -0.1927  0.1402
   66CHL1   H25 7356   5.951   4.177   9.022  1.8785  1.3850  4.8388
   66CHL1   C26 7357   6.106   4.288   8.904  0.4103  1.1686  0.5163
   66CHL1  H26A 7358   6.197   4.254   8.851  1.2013  3.6773  0.1413
   66CHL1  H26B 7359   6.029   4.306   8.826 -1.4625 -2.1372  1.4205
   66CHL1  H26C 7360   6.125   4.385   8.953 -1.0091  1.7185  0.0218
   66CHL1   C27 7361   6.061   4.037   8.894  0.5808  0.0826  0.1717
   66CHL1  H27A 7362   6.004   4.047   8.799 -0.3809 -0.1476  0.7110
   66CHL1  H27B 7363   6.163   4.011   8.861 -0.1619  0.3440 -2.5770
   66CHL1  H27C 7364   6.004   3.956   8.945 -1.2942  0.9616 -0.4246
   67CHL1    C3 7365   2.787   4.607  10.143 -0.9322  0.6448 -0.1163
   67CHL1    H3 7366   2.737   4.509  10.128 -0.4113  0.6491 -2.2766
   67CHL1    O3 7367   2.814   4.630  10.276 -0.7111 -0.4307  0.2942
   67CHL1   H3' 7368   2.732   4.669  10.308  0.3264  1.5444  0.7039
   67CHL1    C4 7369   2.926   4.600  10.071  0.6732 -0.0196  0.0709
   67CHL1   H4A 7370   2.991   4.689  10.081 -0.0117  0.3873  0.9813
   67CHL1   H4B 7371   2.996   4.531  10.123  0.9791  0.4474  0.2824
   67CHL1    C5 7372   2.911   4.564   9.922 -0.0907  0.5139  0.7139
   67CHL1    C6 7373   2.964   4.455   9.866 -0.3217  0.7378 -0.2977
   67CHL1    H6 7374   3.031   4.393   9.928 -0.2635 -2.2547 -3.1032
   67CHL1    C7 7375   2.944   4.405   9.729  1.0311  0.0749  0.5193
   67CHL1   H7A 7376   3.036   4.366   9.680  0.4571  2.0115 -2.3522
   67CHL1   H7B 7377   2.868   4.325   9.732  1.2912 -0.4981 -3.2597
   67CHL1    C8 7378   2.882   4.517   9.643 -0.2919  0.5747 -0.0474
   67CHL1    H8 7379   2.961   4.589   9.616  0.7767 -0.3670  0.4881
   67CHL1   C14 7380   2.828   4.467   9.509 -0.5440  0.3307 -0.4458
   67CHL1   H14 7381   2.741   4.408   9.544 -0.7373  0.0959 -1.2907
   67CHL1   C15 7382   2.921   4.366   9.429  0.3649  0.0988 -0.0678
   67CHL1  H15A 7383   3.029   4.392   9.429  0.8525 -1.7169  0.7309
   67CHL1  H15B 7384   2.907   4.264   9.471 -1.5530 -0.4328 -1.8180
   67CHL1   C16 7385   2.870   4.367   9.288  0.2897 -0.4831 -0.0242
   67CHL1  H16A 7386   2.948   4.407   9.220  1.2722 -1.3292  0.5775
   67CHL1  H16B 7387   2.840   4.263   9.262  0.7456 -0.9748  1.3502
   67CHL1   C17 7388   2.750   4.472   9.290 -0.6250  0.5206  0.6310
   67CHL1   H17 7389   2.654   4.417   9.303 -0.8471  0.3388 -1.5092
   67CHL1   C13 7390   2.777   4.568   9.405  0.5245  0.3536 -0.6092
   67CHL1   C18 7391   2.898   4.666   9.371 -0.1550  0.6019  0.3851
   67CHL1  H18A 7392   2.936   4.710   9.466 -0.8062 -1.8234  1.8408
   67CHL1  H18B 7393   2.981   4.615   9.318  2.4895  2.6410  2.2922
   67CHL1  H18C 7394   2.859   4.755   9.316 -0.7263  0.8223  1.1279
   67CHL1   C12 7395   2.659   4.649   9.470 -0.2793  1.1293 -0.4258
   67CHL1  H12A 7396   2.607   4.725   9.408 -2.1739 -0.5973 -1.0777
   67CHL1  H12B 7397   2.588   4.567   9.492  1.4600 -0.6004 -0.9537
   67CHL1   C11 7398   2.708   4.709   9.606 -0.4824  0.4036  0.5444
   67CHL1  H11A 7399   2.784   4.786   9.582  3.1954 -3.4412 -1.6706
   67CHL1  H11B 7400   2.621   4.765   9.646  0.8677  3.7791 -0.8755
   67CHL1    C9 7401   2.770   4.601   9.706  0.0626 -0.1295 -0.7857
   67CHL1    H9 7402   2.687   4.532   9.733  0.2135  1.0564  3.3142
   67CHL1   C10 7403   2.809   4.657   9.850 -0.4370  0.0272 -0.4460
   67CHL1   C19 7404   2.895   4.786   9.831 -0.5514 -0.8262 -0.2563
   67CHL1  H19A 7405   2.986   4.778   9.767 -0.4464  1.2631 -0.4449
   67CHL1  H19B 7406   2.840   4.871   9.783  1.0972  0.3109 -0.2196
   67CHL1  H19C 7407   2.935   4.826   9.927  0.0956 -0.3244 -0.7251
   67CHL1    C1 7408   2.684   4.680   9.931  0.2789 -0.4973  0.5314
   67CHL1   H1A 7409   2.625   4.762   9.883 -0.3130 -1.2097  0.0058
   67CHL1   H1B 7410   2.613   4.595   9.925 -0.1161 -0.0751 -1.5758
   67CHL1    C2 7411   2.709   4.723  10.075 -0.3156 -0.7049  0.6840
   67CHL1   H2A 7412   2.613   4.750  10.125 -0.8852 -0.6991 -0.4046
   67CHL1   H2B 7413   2.766   4.819  10.076 -0.4414 -0.5628 -1.4010
   67CHL1   C20 7414   2.735   4.537   9.150  0.7174 -0.1589 -0.0868
   67CHL1   H20 7415   2.824   4.599   9.126  2.7149 -2.8840 -0.1755
   67CHL1   C21 7416   2.589   4.598   9.148 -0.1007  1.0180 -0.5497
   67CHL1  H21A 7417   2.570   4.640   9.047 -0.8156 -1.2777 -1.4313
   67CHL1  H21B 7418   2.555   4.681   9.214 -1.2993 -1.2775  1.8713
   67CHL1  H21C 7419   2.522   4.510   9.155  0.1534  0.9494  1.7611
   67CHL1   C22 7420   2.748   4.422   9.040 -0.4839  0.3725 -0.0162
   67CHL1  H22A 7421   2.855   4.394   9.029 -0.1718  1.0612  1.1528
   67CHL1  H22B 7422   2.690   4.328   9.059 -0.7213  0.5512  0.1476
   67CHL1   C23 7423   2.705   4.458   8.898  0.6809 -0.6364 -0.3069
   67CHL1  H23A 7424   2.595   4.465   8.891  0.6579 -0.1045  0.4204
   67CHL1  H23B 7425   2.740   4.560   8.872 -4.2608  1.1172 -1.0565
   67CHL1   C24 7426   2.756   4.359   8.791  0.8408  0.4882 -0.2994
   67CHL1  H24A 7427   2.863   4.382   8.771  0.3380  2.6588 -0.6512
   67CHL1  H24B 7428   2.746   4.257   8.835  0.2134  0.1121 -1.2853
   67CHL1   C25 7429   2.682   4.361   8.656 -0.1296 -0.0633  0.4618
   67CHL1   H25 7430   2.574   4.342   8.673 -0.9049  1.3278 -2.3006
   67CHL1   C26 7431   2.683   4.501   8.579  0.3055  0.3629  0.6888
   67CHL1  H26A 7432   2.616   4.582   8.615  1.1753  0.7837  1.4088
   67CHL1  H26B 7433   2.788   4.534   8.567  1.0424 -2.0274 -0.1555
   67CHL1  H26C 7434   2.639   4.467   8.483  0.0962 -1.9932  1.5429
   67CHL1   C27 7435   2.737   4.239   8.578 -0.3857 -0.2531 -0.1466
   67CHL1  H27A 7436   2.691   4.213   8.479 -0.7023 -2.3063  0.4818
   67CHL1  H27B 7437   2.847   4.247   8.566 -0.5680  1.3181 -1.0887
   67CHL1  H27C 7438   2.738   4.150   8.645  2.5469  0.1907  0.5296
   68CHL1    C3 7439   1.330   4.845  10.209 -0.0225 -0.1639  0.0756
   68CHL1    H3 7440   1.396   4.930  10.179  0.9219 -0.8802  0.0612
   68CHL1    O3 7441   1.322   4.830  10.351 -0.9764 -0.0861 -0.0538
   68CHL1   H3' 7442   1.267   4.753  10.371  0.1116 -1.3680 -1.7280
   68CHL1    C4 7443   1.188   4.880  10.161 -0.2046  0.0908  0.8372
   68CHL1   H4A 7444   1.114   4.806  10.197  0.3999 -0.7544  0.3669
   68CHL1   H4B 7445   1.162   4.978  10.208  2.0987 -0.0465  2.5879
   68CHL1    C5 7446   1.181   4.885  10.007 -0.2037  0.8076  0.7129
   68CHL1    C6 7447   1.142   4.990   9.937 -0.2306 -0.4779 -0.0314
   68CHL1    H6 7448   1.108   5.075   9.998 -3.0281 -1.3714 -0.1692
   68CHL1    C7 7449   1.125   5.001   9.790  0.4774 -0.2740  0.1697
   68CHL1   H7A 7450   1.019   5.025   9.765  0.1863  0.2499  1.8019
   68CHL1   H7B 7451   1.191   5.074   9.740 -1.6500  1.7203  0.1221
   68CHL1    C8 7452   1.140   4.858   9.727 -0.4115 -0.3858  0.2518
   68CHL1    H8 7453   1.042   4.807   9.736 -0.7849  0.3899  0.6812
   68CHL1   C14 7454   1.170   4.863   9.577  0.1536 -0.4063  0.2357
   68CHL1   H14 7455   1.274   4.900   9.578  0.4254 -1.1060 -0.7064
   68CHL1   C15 7456   1.086   4.958   9.503  0.3441 -0.8988 -0.3627
   68CHL1  H15A 7457   0.977   4.953   9.523  0.3547  1.0529  0.4447
   68CHL1  H15B 7458   1.110   5.066   9.515 -1.0953 -0.7143  1.2373
   68CHL1   C16 7459   1.112   4.924   9.354 -0.7207 -0.6079 -0.2477
   68CHL1  H16A 7460   1.018   4.897   9.301 -2.0414  1.5350  0.8708
   68CHL1  H16B 7461   1.174   4.998   9.299 -0.6433 -1.6756 -1.6792
   68CHL1   C17 7462   1.190   4.790   9.359 -0.8615 -0.3001 -0.5371
   68CHL1   H17 7463   1.294   4.829   9.353 -0.3174 -1.0494  2.4276
   68CHL1   C13 7464   1.167   4.732   9.497 -0.7468 -0.2243  0.7927
   68CHL1   C18 7465   1.035   4.663   9.488  0.1177 -0.1260 -0.1340
   68CHL1  H18A 7466   0.999   4.646   9.592 -0.6068 -2.7626 -0.7587
   68CHL1  H18B 7467   0.960   4.734   9.447  0.5424 -0.6113 -1.8300
   68CHL1  H18C 7468   1.051   4.566   9.436  1.1737 -0.3250  0.5366
   68CHL1   C12 7469   1.276   4.645   9.559 -0.7705  1.1282  0.2551
   68CHL1  H12A 7470   1.280   4.544   9.513 -0.0820  0.8857  0.8317
   68CHL1  H12B 7471   1.368   4.698   9.526 -0.4962  0.3369 -0.2617
   68CHL1   C11 7472   1.252   4.629   9.707  0.3884 -0.3327 -0.8401
   68CHL1  H11A 7473   1.160   4.568   9.725  0.3142  0.2891  1.0952
   68CHL1  H11B 7474   1.333   4.570   9.754  1.0603  2.7254  2.2354
   68CHL1    C9 7475   1.246   4.766   9.784 -0.0260  0.0658  0.0503
   68CHL1    H9 7476   1.342   4.820   9.771 -0.6973  1.2142 -0.3116
   68CHL1   C10 7477   1.227   4.755   9.939  0.7970  0.1235 -0.6385
   68CHL1   C19 7478   1.122   4.644   9.975  0.3977 -0.4911  0.0972
   68CHL1  H19A 7479   1.143   4.546   9.927  0.2178 -0.1892 -0.6100
   68CHL1  H19B 7480   1.105   4.630  10.084  0.1762 -1.1507 -0.0165
   68CHL1  H19C 7481   1.022   4.674   9.937  0.4141  1.7599  1.6820
   68CHL1    C1 7482   1.371   4.731   9.992  0.2237 -0.0441 -0.1447
   68CHL1   H1A 7483   1.411   4.638   9.946 -2.0216 -0.7699 -0.7452
   68CHL1   H1B 7484   1.437   4.818   9.968  0.3953  0.3353  1.6189
   68CHL1    C2 7485   1.374   4.714  10.146 -0.0110  0.0133  0.3523
   68CHL1   H2A 7486   1.479   4.690  10.171  0.0738 -3.1602 -2.3692
   68CHL1   H2B 7487   1.311   4.626  10.172 -0.9084  0.3756 -0.5225
   68CHL1   C20 7488   1.178   4.704   9.231  0.3805  0.6302  0.5083
   68CHL1   H20 7489   1.077   4.658   9.221  0.9734 -0.5411 -0.4077
   68CHL1   C21 7490   1.258   4.572   9.242 -0.1058  0.1013  0.2703
   68CHL1  H21A 7491   1.220   4.513   9.328 -1.4320  1.4290  0.6402
   68CHL1  H21B 7492   1.365   4.597   9.258  0.4357 -1.7208 -0.2791
   68CHL1  H21C 7493   1.245   4.512   9.150  1.5317  0.4940 -0.2518
   68CHL1   C22 7494   1.197   4.777   9.097 -0.4219  0.2985  0.0079
   68CHL1  H22A 7495   1.128   4.864   9.093 -1.4525 -0.5267 -0.6704
   68CHL1  H22B 7496   1.303   4.811   9.097  0.3853 -1.7590  3.3896
   68CHL1   C23 7497   1.174   4.689   8.974 -0.1260  0.4796  0.7094
   68CHL1  H23A 7498   1.248   4.609   8.954  0.9065  1.0128  2.2143
   68CHL1  H23B 7499   1.074   4.642   8.986  0.3440 -0.8518 -0.3867
   68CHL1   C24 7500   1.159   4.775   8.846 -1.3062 -0.9827  0.8724
   68CHL1  H24A 7501   1.083   4.853   8.870 -3.9886 -3.2441  0.1590
   68CHL1  H24B 7502   1.252   4.824   8.809 -0.4821 -2.7114  0.5694
   68CHL1   C25 7503   1.088   4.713   8.724  0.7546  0.6881 -0.7705
   68CHL1   H25 7504   0.988   4.675   8.755  1.9966 -2.4126 -0.1427
   68CHL1   C26 7505   1.079   4.818   8.609 -0.1942 -0.0445  0.2674
   68CHL1  H26A 7506   1.184   4.837   8.577  0.4426 -1.9164  1.1362
   68CHL1  H26B 7507   1.019   4.774   8.527 -1.2657  0.6845  0.6456
   68CHL1  H26C 7508   1.026   4.907   8.648 -0.1991 -0.0304  0.2290
   68CHL1   C27 7509   1.166   4.585   8.684 -0.3214  0.3693  0.1814
   68CHL1  H27A 7510   1.133   4.555   8.583  0.8089 -1.7610  0.3743
   68CHL1  H27B 7511   1.273   4.611   8.693 -0.8616  2.8626 -0.0981
   68CHL1  H27C 7512   1.141   4.504   8.757  0.8787  1.3240  1.7375
   69CHL1    C3 7513   0.988   3.530   6.803  0.3613  0.7725  0.1062
   69CHL1    H3 7514   0.944   3.432   6.831  0.8631  0.3553 -0.5429
   69CHL1    O3 7515   1.019   3.528   6.666  0.7647 -0.1162 -0.0074
   69CHL1   H3' 7516   0.937   3.560   6.626  0.1708 -2.4921 -0.8438
   69CHL1    C4 7517   0.896   3.645   6.837 -0.1858 -0.3593  0.5075
   69CHL1   H4A 7518   0.929   3.745   6.801 -1.0340  0.1790  1.1768
   69CHL1   H4B 7519   0.800   3.637   6.782  0.9193  0.0114 -1.5508
   69CHL1    C5 7520   0.864   3.644   6.983  0.5350 -0.7695 -0.1873
   69CHL1    C6 7521   0.740   3.629   7.028 -0.4561  0.0605 -0.2945
   69CHL1    H6 7522   0.660   3.603   6.956 -2.2847  2.6904  0.6401
   69CHL1    C7 7523   0.702   3.635   7.174 -0.2739  0.2250  0.6757
   69CHL1   H7A 7524   0.612   3.697   7.190  0.2199  0.8942  0.8794
   69CHL1   H7B 7525   0.675   3.534   7.211 -1.1380  0.5001  0.8132
   69CHL1    C8 7526   0.812   3.705   7.263 -0.4949  0.5716  0.0011
   69CHL1    H8 7527   0.801   3.813   7.239 -1.6688  0.3164 -0.6901
   69CHL1   C14 7528   0.796   3.671   7.409 -0.0775 -0.1073 -0.0749
   69CHL1   H14 7529   0.823   3.563   7.417  0.7168 -0.0103 -1.1953
   69CHL1   C15 7530   0.656   3.682   7.466  0.0189 -0.6092 -1.2383
   69CHL1  H15A 7531   0.617   3.784   7.448  1.6440  1.0979  3.3767
   69CHL1  H15B 7532   0.579   3.605   7.444  0.8586 -1.8021 -0.1762
   69CHL1   C16 7533   0.687   3.678   7.624  0.4026 -0.2560  0.5401
   69CHL1  H16A 7534   0.647   3.778   7.651 -0.8783 -0.5502 -0.2124
   69CHL1  H16B 7535   0.643   3.589   7.672  3.5210 -0.3899  3.5405
   69CHL1   C17 7536   0.838   3.680   7.637  0.1645  0.3684 -0.1009
   69CHL1   H17 7537   0.867   3.573   7.644 -0.8130 -0.0433 -1.7348
   69CHL1   C13 7538   0.895   3.733   7.510 -0.4126 -0.6949  0.1872
   69CHL1   C18 7539   0.883   3.884   7.509  0.2272  0.2403  0.4402
   69CHL1  H18A 7540   0.967   3.940   7.555 -0.1591  0.0796  1.3739
   69CHL1  H18B 7541   0.887   3.924   7.405  1.5946  2.0356  1.1426
   69CHL1  H18C 7542   0.790   3.918   7.559  1.2576  1.6429  1.4605
   69CHL1   C12 7543   1.034   3.686   7.467 -0.6139 -0.0604  0.3479
   69CHL1  H12A 7544   1.114   3.726   7.533  0.5253  1.8596 -2.0314
   69CHL1  H12B 7545   1.045   3.576   7.476  1.0161  0.0953  0.4705
   69CHL1   C11 7546   1.060   3.730   7.329 -0.2602 -0.1604 -0.7484
   69CHL1  H11A 7547   1.065   3.839   7.313  1.4798 -0.3014 -1.4685
   69CHL1  H11B 7548   1.157   3.689   7.293 -1.0922 -2.2818 -0.7290
   69CHL1    C9 7549   0.956   3.662   7.225 -0.0755  0.8607  0.1049
   69CHL1    H9 7550   0.955   3.554   7.250  1.8570  0.7383 -0.1880
   69CHL1   C10 7551   0.985   3.673   7.071 -0.0050 -0.7413 -0.0646
   69CHL1   C19 7552   1.036   3.819   7.041  0.3631 -0.4460  0.3207
   69CHL1  H19A 7553   0.955   3.893   7.057  1.3621  0.5225  1.0245
   69CHL1  H19B 7554   1.116   3.851   7.111  0.8586  2.0378 -1.2292
   69CHL1  H19C 7555   1.075   3.833   6.937  1.8970 -1.3475  0.7452
   69CHL1    C1 7556   1.089   3.568   7.040 -0.0110  0.0791  0.2536
   69CHL1   H1A 7557   1.184   3.588   7.094 -0.9779 -2.2789  3.0323
   69CHL1   H1B 7558   1.051   3.468   7.070  0.4657 -0.2572 -0.2514
   69CHL1    C2 7559   1.120   3.548   6.881  0.2037 -0.5029 -0.7412
   69CHL1   H2A 7560   1.176   3.452   6.881  2.6543  0.8103 -2.6884
   69CHL1   H2B 7561   1.192   3.622   6.838  1.3785 -0.9774  0.3378
   69CHL1   C20 7562   0.893   3.728   7.775 -0.4446 -0.5980 -0.3136
   69CHL1   H20 7563   0.845   3.827   7.793  2.3192  0.7951 -0.0454
   69CHL1   C21 7564   1.044   3.754   7.788  0.0263 -0.5601 -0.6190
   69CHL1  H21A 7565   1.064   3.764   7.897  0.0599 -0.5995 -0.6217
   69CHL1  H21B 7566   1.064   3.853   7.741  1.5816 -0.9167 -0.7640
   69CHL1  H21C 7567   1.106   3.666   7.762  0.1533 -1.1535  1.4699
   69CHL1   C22 7568   0.841   3.620   7.885 -0.2161 -0.6285  0.3858
   69CHL1  H22A 7569   0.733   3.601   7.869  0.1129 -1.1648 -1.4399
   69CHL1  H22B 7570   0.892   3.524   7.864  0.0922  0.2104 -3.5345
   69CHL1   C23 7571   0.854   3.669   8.031  0.7857  0.5561 -0.1686
   69CHL1  H23A 7572   0.961   3.678   8.061  0.4311 -0.1114  1.4009
   69CHL1  H23B 7573   0.826   3.775   8.046 -3.1270  0.0141 -2.3566
   69CHL1   C24 7574   0.772   3.583   8.132 -0.0564 -0.4894  0.0960
   69CHL1  H24A 7575   0.666   3.587   8.101  0.2541  3.5405 -1.0578
   69CHL1  H24B 7576   0.810   3.479   8.123 -0.0243 -0.6666  1.9922
   69CHL1   C25 7577   0.799   3.630   8.282 -0.6546  0.0039 -0.2480
   69CHL1   H25 7578   0.858   3.723   8.267 -1.7372  0.4601 -2.0555
   69CHL1   C26 7579   0.667   3.652   8.353  0.3716  0.1667 -0.1194
   69CHL1  H26A 7580   0.597   3.566   8.348  0.8750 -0.2445 -0.1916
   69CHL1  H26B 7581   0.687   3.690   8.456  1.1419  1.8030 -0.8362
   69CHL1  H26C 7582   0.611   3.733   8.302  0.1704 -0.2617 -0.5811
   69CHL1   C27 7583   0.870   3.522   8.356  0.0290 -0.2326 -0.1309
   69CHL1  H27A 7584   0.817   3.426   8.343  1.3361 -0.7806 -1.7885
   69CHL1  H27B 7585   0.980   3.508   8.350  0.4985  0.7820  3.6621
   69CHL1  H27C 7586   0.872   3.547   8.464  0.9084 -1.5469  0.1766
   70CHL1    C3 7587   4.999   0.484   7.050  0.3996  0.3212  0.6381
   70CHL1    H3 7588   5.082   0.552   7.079  0.9753 -0.2806  0.4563
   70CHL1    O3 7589   5.004   0.454   6.914 -0.6094 -0.1497 -0.1640
   70CHL1   H3' 7590   5.097   0.441   6.897 -0.6587  2.0578 -2.9004
   70CHL1    C4 7591   5.015   0.357   7.136 -0.5820  0.3498 -0.1759
   70CHL1   H4A 7592   4.959   0.278   7.081  1.0418 -0.5850 -0.5381
   70CHL1   H4B 7593   5.123   0.331   7.129 -0.9200 -1.1101 -0.2741
   70CHL1    C5 7594   4.965   0.371   7.278 -0.1422 -0.0743 -0.2276
   70CHL1    C6 7595   5.044   0.326   7.374 -0.3340 -0.3412  0.6391
   70CHL1    H6 7596   5.143   0.285   7.353 -0.8675 -0.8013 -1.0911
   70CHL1    C7 7597   5.002   0.323   7.520 -0.0230  0.1950  0.3967
   70CHL1   H7A 7598   4.998   0.214   7.540 -2.3273  0.1458 -0.1250
   70CHL1   H7B 7599   5.084   0.356   7.588  1.7852 -0.4142 -1.3881
   70CHL1    C8 7600   4.865   0.386   7.552  1.0725 -0.3819 -0.3296
   70CHL1    H8 7601   4.789   0.307   7.533  0.5055 -0.1373  0.8476
   70CHL1   C14 7602   4.854   0.438   7.698  0.1583  0.3312 -0.1682
   70CHL1   H14 7603   4.930   0.519   7.702  0.3750  0.1250  3.3114
   70CHL1   C15 7604   4.886   0.330   7.802 -0.4739 -0.0652 -0.0636
   70CHL1  H15A 7605   4.825   0.238   7.785 -1.7679  1.0499 -1.8550
   70CHL1  H15B 7606   4.993   0.303   7.804  0.5530  3.4071 -1.1150
   70CHL1   C16 7607   4.835   0.390   7.930 -0.3601 -0.1594 -0.1461
   70CHL1  H16A 7608   4.763   0.326   7.986 -0.9196  0.7231  0.1698
   70CHL1  H16B 7609   4.917   0.418   7.999 -1.6780 -0.7224  1.7393
   70CHL1   C17 7610   4.763   0.523   7.893 -0.0429 -0.5466  0.2818
   70CHL1   H17 7611   4.839   0.603   7.891  0.2723 -0.8557 -0.8264
   70CHL1   C13 7612   4.730   0.506   7.741 -0.3547 -0.2930  0.6614
   70CHL1   C18 7613   4.613   0.408   7.742  0.0587  0.0390 -0.0193
   70CHL1  H18A 7614   4.591   0.390   7.634 -2.7682  1.1136  0.2934
   70CHL1  H18B 7615   4.631   0.311   7.793 -2.7581 -0.6054 -0.0620
   70CHL1  H18C 7616   4.520   0.458   7.776  1.2239  1.2553  1.4794
   70CHL1   C12 7617   4.717   0.629   7.652  0.0320  0.0117 -0.2885
   70CHL1  H12A 7618   4.621   0.683   7.670 -0.6995 -1.4445  0.3280
   70CHL1  H12B 7619   4.793   0.704   7.683 -1.0801  1.1062 -0.0842
   70CHL1   C11 7620   4.716   0.598   7.504  0.4386  0.6658  0.5021
   70CHL1  H11A 7621   4.624   0.538   7.491 -0.4294  1.8134  1.1280
   70CHL1  H11B 7622   4.705   0.682   7.432 -2.6571  1.1206  1.3749
   70CHL1    C9 7623   4.838   0.502   7.459  0.2100  0.6616 -0.3483
   70CHL1    H9 7624   4.930   0.564   7.461  0.9905 -0.0309 -4.4201
   70CHL1   C10 7625   4.844   0.456   7.306  1.5447  0.0100  1.1333
   70CHL1   C19 7626   4.714   0.371   7.282 -0.2504 -0.1786  0.2976
   70CHL1  H19A 7627   4.699   0.363   7.172 -2.2050  0.9213  0.4442
   70CHL1  H19B 7628   4.712   0.271   7.331 -0.6495  0.5057  1.7233
   70CHL1  H19C 7629   4.621   0.423   7.315 -0.2958 -0.4097  0.5474
   70CHL1    C1 7630   4.854   0.581   7.223 -0.2593 -0.0359  0.6666
   70CHL1   H1A 7631   4.761   0.643   7.232 -0.2362 -0.0538  1.0359
   70CHL1   H1B 7632   4.945   0.640   7.247 -0.9343  1.5286 -0.4538
   70CHL1    C2 7633   4.863   0.552   7.071  0.6031 -0.2942 -0.0998
   70CHL1   H2A 7634   4.848   0.648   7.018 -3.3897 -0.7606 -0.1250
   70CHL1   H2B 7635   4.786   0.477   7.042  0.0282 -0.4846  1.7720
   70CHL1   C20 7636   4.652   0.568   7.988 -0.0694 -0.6566 -0.1113
   70CHL1   H20 7637   4.576   0.489   8.004 -0.0375 -0.3029  2.0147
   70CHL1   C21 7638   4.579   0.691   7.937 -0.1121  0.2193  0.4199
   70CHL1  H21A 7639   4.495   0.651   7.876  1.0149  2.5224 -2.9559
   70CHL1  H21B 7640   4.648   0.755   7.878 -0.7160  0.2805 -0.2426
   70CHL1  H21C 7641   4.528   0.754   8.013 -2.2905  0.7260 -1.3537
   70CHL1   C22 7642   4.704   0.586   8.135  0.3865  0.7636 -0.4747
   70CHL1  H22A 7643   4.738   0.483   8.156  0.1594  0.5198 -1.2618
   70CHL1  H22B 7644   4.793   0.650   8.154 -0.9459  1.7633  3.2296
   70CHL1   C23 7645   4.600   0.629   8.243  0.6275 -0.2426  0.2846
   70CHL1  H23A 7646   4.561   0.732   8.231 -1.6293 -0.9468  1.0276
   70CHL1  H23B 7647   4.510   0.572   8.209 -1.3274  3.3454 -1.0727
   70CHL1   C24 7648   4.643   0.591   8.389 -0.0052  0.1437  0.4748
   70CHL1  H24A 7649   4.681   0.487   8.382 -2.7650 -0.9320  0.5360
   70CHL1  H24B 7650   4.722   0.660   8.425  0.4427 -0.7978  1.3439
   70CHL1   C25 7651   4.530   0.611   8.496 -0.1153 -1.0273  0.2948
   70CHL1   H25 7652   4.516   0.720   8.507 -0.5594 -0.7260 -2.6222
   70CHL1   C26 7653   4.385   0.551   8.464 -0.0631  0.6786  0.8365
   70CHL1  H26A 7654   4.350   0.583   8.364 -1.7878 -0.8176  0.9193
   70CHL1  H26B 7655   4.398   0.441   8.463  1.1443  0.8026 -0.3071
   70CHL1  H26C 7656   4.306   0.588   8.533 -1.2384  0.8996 -0.6020
   70CHL1   C27 7657   4.567   0.557   8.633 -0.8047  0.0261  0.5318
   70CHL1  H27A 7658   4.653   0.606   8.684 -1.9012  1.1793  1.3290
   70CHL1  H27B 7659   4.486   0.576   8.707 -0.0430  1.3308  1.0743
   70CHL1  H27C 7660   4.581   0.447   8.627  1.3190  0.2173  1.0104
   71CHL1    C3 7661   1.683   3.938   6.663  0.5082  0.9483 -0.8718
   71CHL1    H3 7662   1.741   4.024   6.702  3.9727 -2.2127  1.5849
   71CHL1    O3 7663   1.713   3.930   6.531  0.1207  0.8030 -0.3504
   71CHL1   H3' 7664   1.669   3.848   6.506 -2.8905  1.8559  1.0414
   71CHL1    C4 7665   1.727   3.815   6.738  0.3492  0.1910 -0.6338
   71CHL1   H4A 7666   1.659   3.741   6.691 -0.1801  0.7714 -0.7934
   71CHL1   H4B 7667   1.834   3.793   6.719  1.9466  3.5618  2.9034
   71CHL1    C5 7668   1.708   3.812   6.889  0.1449 -0.1247  1.2969
   71CHL1    C6 7669   1.812   3.792   6.976  0.3250 -0.2854  1.0875
   71CHL1    H6 7670   1.914   3.764   6.946  0.2023  0.7041 -0.3548
   71CHL1    C7 7671   1.792   3.789   7.122 -0.2587 -0.5931  0.1725
   71CHL1   H7A 7672   1.824   3.695   7.173 -0.4604 -0.3875  0.6823
   71CHL1   H7B 7673   1.833   3.876   7.177 -1.4895 -0.2695  0.6035
   71CHL1    C8 7674   1.642   3.787   7.164 -0.9546 -0.0788  0.9461
   71CHL1    H8 7675   1.613   3.680   7.158 -0.1559 -0.2088 -2.3036
   71CHL1   C14 7676   1.634   3.837   7.306 -0.6964  0.2568 -0.3711
   71CHL1   H14 7677   1.661   3.945   7.304  0.2865  0.3192  4.4905
   71CHL1   C15 7678   1.725   3.771   7.409  0.0761  0.1243  0.4311
   71CHL1  H15A 7679   1.700   3.663   7.402  1.7711 -0.2002 -1.5721
   71CHL1  H15B 7680   1.834   3.789   7.397  0.3201 -0.1320  2.0142
   71CHL1   C16 7681   1.668   3.821   7.544 -0.0290  0.2041  0.2495
   71CHL1  H16A 7682   1.655   3.739   7.617 -1.2939 -0.1456 -0.3363
   71CHL1  H16B 7683   1.746   3.889   7.583  0.3291 -0.1724  0.1923
   71CHL1   C17 7684   1.536   3.899   7.514  0.1147  0.7117 -0.0573
   71CHL1   H17 7685   1.561   4.007   7.508  2.8164  0.4147  3.0461
   71CHL1   C13 7686   1.495   3.845   7.375 -0.4374 -0.5341 -0.0522
   71CHL1   C18 7687   1.427   3.710   7.388 -0.3824  0.3606  1.2875
   71CHL1  H18A 7688   1.328   3.709   7.438 -1.7167 -0.1830 -1.2020
   71CHL1  H18B 7689   1.409   3.660   7.290  0.5498 -0.8012  1.6686
   71CHL1  H18C 7690   1.482   3.646   7.461  0.0872  0.3493  0.9292
   71CHL1   C12 7691   1.412   3.939   7.287  1.2490 -0.2631  0.7191
   71CHL1  H12A 7692   1.305   3.944   7.315  0.8924  1.2709 -0.7701
   71CHL1  H12B 7693   1.448   4.044   7.295 -1.6857  0.9088 -0.2932
   71CHL1   C11 7694   1.405   3.897   7.135  0.4674 -0.0915  0.3400
   71CHL1  H11A 7695   1.340   3.807   7.127 -0.4439  0.5049  0.9324
   71CHL1  H11B 7696   1.354   3.974   7.075 -0.7620 -0.6341  0.6622
   71CHL1    C9 7697   1.552   3.877   7.078  0.4874  0.4750 -0.1552
   71CHL1    H9 7698   1.601   3.976   7.086 -1.5977  1.5871 -0.3999
   71CHL1   C10 7699   1.560   3.841   6.930 -0.0282 -1.0175 -0.1950
   71CHL1   C19 7700   1.488   3.710   6.908  1.0236  0.0421  0.5387
   71CHL1  H19A 7701   1.382   3.714   6.939 -0.5584  1.2301 -4.2284
   71CHL1  H19B 7702   1.489   3.691   6.799 -2.6290 -0.3663  0.4661
   71CHL1  H19C 7703   1.529   3.621   6.961  0.3306 -0.7769 -0.2659
   71CHL1    C1 7704   1.499   3.958   6.849  0.4868 -0.5699 -0.3917
   71CHL1   H1A 7705   1.390   3.938   6.852  0.5280 -0.7336  2.0362
   71CHL1   H1B 7706   1.524   4.052   6.902 -0.8341 -0.0847 -0.5936
   71CHL1    C2 7707   1.535   3.963   6.695  0.1782  0.1031 -0.0423
   71CHL1   H2A 7708   1.507   4.057   6.642 -3.2444 -1.1811 -0.8000
   71CHL1   H2B 7709   1.474   3.886   6.642 -0.0953  2.1647 -2.9687
   71CHL1   C20 7710   1.438   3.878   7.635 -0.2980  0.1672 -0.6002
   71CHL1   H20 7711   1.418   3.768   7.640 -0.5496  0.2588  1.2439
   71CHL1   C21 7712   1.305   3.949   7.606 -0.9210 -0.0561  0.1350
   71CHL1  H21A 7713   1.333   4.033   7.538  1.8900 -0.4163  0.7262
   71CHL1  H21B 7714   1.260   3.981   7.702 -1.4031  0.7317 -0.3477
   71CHL1  H21C 7715   1.228   3.892   7.550 -2.3903  1.3581  0.6656
   71CHL1   C22 7716   1.496   3.923   7.773  0.0838 -0.5637 -0.5728
   71CHL1  H22A 7717   1.606   3.908   7.775  0.0614 -0.7829 -0.8965
   71CHL1  H22B 7718   1.474   4.032   7.777 -0.8035 -0.7666  1.6137
   71CHL1   C23 7719   1.425   3.832   7.881 -0.0296  0.1294  0.6525
   71CHL1  H23A 7720   1.316   3.848   7.887 -0.1037  0.3619 -0.8939
   71CHL1  H23B 7721   1.437   3.723   7.861 -1.0827  0.0777  0.2523
   71CHL1   C24 7722   1.483   3.855   8.015 -0.9195  0.0286 -0.6988
   71CHL1  H24A 7723   1.593   3.850   8.005 -0.5136 -1.0703  2.8608
   71CHL1  H24B 7724   1.464   3.959   8.047  1.6202  0.1732  0.6064
   71CHL1   C25 7725   1.450   3.750   8.118  0.0515  0.5118  0.4134
   71CHL1   H25 7726   1.457   3.648   8.075  0.8087  1.0425 -0.7718
   71CHL1   C26 7727   1.549   3.759   8.240 -0.7855 -0.3696  0.4734
   71CHL1  H26A 7728   1.532   3.857   8.289  0.8664 -0.8244  2.0921
   71CHL1  H26B 7729   1.538   3.672   8.308  0.2425 -1.5426 -0.8035
   71CHL1  H26C 7730   1.651   3.758   8.196 -0.4048  1.3926  1.2152
   71CHL1   C27 7731   1.315   3.780   8.177  0.4009  1.3626 -0.0911
   71CHL1  H27A 7732   1.233   3.749   8.109  1.6345  2.0440 -2.0068
   71CHL1  H27B 7733   1.304   3.726   8.273  0.3246 -0.4920 -1.0955
   71CHL1  H27C 7734   1.307   3.890   8.191 -1.8679  1.4435 -1.5485
   72CHL1    C3 7735   6.217   6.538   6.938  0.0718  0.7648 -0.5528
   72CHL1    H3 7736   6.156   6.630   6.939 -0.0917  0.7800  3.4957
   72CHL1    O3 7737   6.271   6.497   6.816 -0.0611  0.0201  0.1882
   72CHL1   H3' 7738   6.289   6.403   6.829 -2.2390 -0.8399 -2.0448
   72CHL1    C4 7739   6.342   6.558   7.029 -0.2087 -0.1718 -0.0567
   72CHL1   H4A 7740   6.405   6.469   7.010  0.6486  0.1310  1.2151
   72CHL1   H4B 7741   6.410   6.637   6.991  2.1753 -0.8516  2.4840
   72CHL1    C5 7742   6.316   6.574   7.181 -1.0181  0.1438 -0.2822
   72CHL1    C6 7743   6.368   6.669   7.260  0.0845 -0.3122  0.0011
   72CHL1    H6 7744   6.449   6.731   7.218 -1.5844  1.2884 -1.0095
   72CHL1    C7 7745   6.345   6.682   7.402  0.5046  0.4372 -0.2260
   72CHL1   H7A 7746   6.442   6.702   7.452  0.2381 -0.2329  0.5974
   72CHL1   H7B 7747   6.279   6.767   7.431 -1.2080 -1.0025  0.3061
   72CHL1    C8 7748   6.278   6.545   7.466  0.0359 -0.9883  0.1776
   72CHL1    H8 7749   6.357   6.468   7.468  0.9839 -0.0781 -1.0046
   72CHL1   C14 7750   6.221   6.580   7.605 -1.3171 -0.3321  0.0342
   72CHL1   H14 7751   6.139   6.653   7.588 -1.6088 -0.3990  1.0846
   72CHL1   C15 7752   6.317   6.655   7.711 -0.3025 -0.4030 -0.4121
   72CHL1  H15A 7753   6.424   6.628   7.709 -0.6890 -2.0963  0.3208
   72CHL1  H15B 7754   6.325   6.763   7.686  0.3907 -0.4658 -0.4735
   72CHL1   C16 7755   6.245   6.616   7.845 -1.2000 -0.7790  0.0752
   72CHL1  H16A 7756   6.319   6.568   7.913 -0.6579 -0.3574 -0.2075
   72CHL1  H16B 7757   6.221   6.707   7.905 -0.4243  0.6109 -1.6285
   72CHL1   C17 7758   6.120   6.538   7.810 -0.0820  0.4907  0.2893
   72CHL1   H17 7759   6.045   6.608   7.767 -1.7956 -2.4539 -1.8799
   72CHL1   C13 7760   6.162   6.464   7.683 -0.3734  0.4107  0.6481
   72CHL1   C18 7761   6.267   6.358   7.713  0.6605  0.0552  0.8283
   72CHL1  H18A 7762   6.309   6.328   7.614 -0.0418  3.4920 -0.6583
   72CHL1  H18B 7763   6.350   6.403   7.772 -0.9206  0.0840  3.1430
   72CHL1  H18C 7764   6.227   6.273   7.772  0.2615 -0.8037 -0.6074
   72CHL1   C12 7765   6.046   6.404   7.598 -0.0488 -0.4901  0.4606
   72CHL1  H12A 7766   6.000   6.317   7.649 -1.0861 -0.5056 -0.4695
   72CHL1  H12B 7767   5.963   6.474   7.577  1.2046  0.4559 -1.7668
   72CHL1   C11 7768   6.093   6.370   7.457 -0.4117  0.3182  0.6297
   72CHL1  H11A 7769   6.156   6.279   7.452  0.6039  0.9768  0.9836
   72CHL1  H11B 7770   6.003   6.349   7.395 -0.4370 -0.6072  0.9649
   72CHL1    C9 7771   6.166   6.489   7.381 -0.9706 -0.2067 -0.6077
   72CHL1    H9 7772   6.079   6.558   7.378 -0.4599  0.5313  0.9701
   72CHL1   C10 7773   6.217   6.463   7.231  0.0173 -0.0956 -0.6863
   72CHL1   C19 7774   6.296   6.328   7.232  0.1829  0.0257 -0.1473
   72CHL1  H19A 7775   6.235   6.240   7.259  0.3986  0.0276  0.3493
   72CHL1  H19B 7776   6.341   6.287   7.138  0.8488 -1.1224  0.6570
   72CHL1  H19C 7777   6.376   6.334   7.309 -0.3615 -2.5158  0.6892
   72CHL1    C1 7778   6.097   6.455   7.134  0.7654  0.0872 -0.7612
   72CHL1   H1A 7779   6.023   6.381   7.173  1.8072  0.5711  2.4343
   72CHL1   H1B 7780   6.042   6.551   7.145  0.1119 -0.4358  1.0437
   72CHL1    C2 7781   6.136   6.419   6.991 -0.7156  0.1556 -0.2280
   72CHL1   H2A 7782   6.044   6.409   6.930 -0.7438 -0.1328 -0.1388
   72CHL1   H2B 7783   6.189   6.321   6.992 -0.8233  0.0700 -1.4199
   72CHL1   C20 7784   6.060   6.463   7.933 -0.1100  0.1667 -0.4903
   72CHL1   H20 7785   6.112   6.365   7.945 -0.4388 -0.0243 -0.6148
   72CHL1   C21 7786   5.904   6.435   7.902 -0.0242 -0.2746 -0.2677
   72CHL1  H21A 7787   5.852   6.533   7.900  3.2647  1.7971  2.9705
   72CHL1  H21B 7788   5.864   6.361   7.975  1.3403  0.3338  1.1592
   72CHL1  H21C 7789   5.890   6.388   7.802  0.6700  1.6240 -1.2964
   72CHL1   C22 7790   6.066   6.541   8.067 -0.6972 -0.5073  0.2649
   72CHL1  H22A 7791   6.171   6.573   8.084 -0.2102 -0.3077 -2.5931
   72CHL1  H22B 7792   6.001   6.631   8.061 -0.0921  0.0524  1.8383
   72CHL1   C23 7793   6.014   6.457   8.181 -0.7763 -0.7791 -0.8066
   72CHL1  H23A 7794   5.905   6.445   8.167 -0.7086  0.2475 -2.5193
   72CHL1  H23B 7795   6.060   6.356   8.187 -1.2230 -0.9085  0.9880
   72CHL1   C24 7796   6.035   6.533   8.313 -0.3954 -0.0356 -0.2871
   72CHL1  H24A 7797   6.141   6.561   8.331  0.0565 -1.4087 -0.7534
   72CHL1  H24B 7798   5.983   6.631   8.306  0.3075  0.3480 -0.1953
   72CHL1   C25 7799   5.998   6.454   8.435 -1.0449 -0.4727 -0.4836
   72CHL1   H25 7800   6.063   6.364   8.424 -0.3202  0.0150 -0.2677
   72CHL1   C26 7801   6.059   6.528   8.560  0.5613  0.0236 -0.3046
   72CHL1  H26A 7802   6.024   6.473   8.650 -0.8286  0.5959 -0.4707
   72CHL1  H26B 7803   6.170   6.530   8.569  0.4097 -0.5744  2.7000
   72CHL1  H26C 7804   6.016   6.630   8.568 -0.6854 -0.5388  0.6229
   72CHL1   C27 7805   5.851   6.435   8.449  0.5414  0.2439  0.0522
   72CHL1  H27A 7806   5.801   6.440   8.350 -1.6444 -1.4404  0.9738
   72CHL1  H27B 7807   5.843   6.329   8.482  3.5691 -0.3839 -0.9549
   72CHL1  H27C 7808   5.804   6.517   8.508 -0.6820  0.7616 -1.5759
   73CHL1    C3 7809   6.012   2.913   6.957  0.3539  0.4887  0.2495
   73CHL1    H3 7810   6.015   3.021   6.929  0.0403  0.9375  1.8284
   73CHL1    O3 7811   5.992   2.843   6.834 -0.1551  0.5579  0.7984
   73CHL1   H3' 7812   5.942   2.764   6.856 -1.8400  1.5782  0.8038
   73CHL1    C4 7813   6.135   2.865   7.025 -0.1850 -0.6874  0.7207
   73CHL1   H4A 7814   6.135   2.754   7.033  0.1985 -0.6950  0.6561
   73CHL1   H4B 7815   6.222   2.897   6.963 -0.7501 -1.9147 -0.7876
   73CHL1    C5 7816   6.155   2.900   7.166 -0.3415  0.1157 -0.5145
   73CHL1    C6 7817   6.271   2.944   7.204 -0.2648  0.2911  0.1334
   73CHL1    H6 7818   6.352   2.947   7.130 -0.7827 -2.9768 -0.6985
   73CHL1    C7 7819   6.307   2.983   7.345  0.1933  0.0014  0.6766
   73CHL1   H7A 7820   6.391   2.916   7.371  1.9202  1.2401 -1.4453
   73CHL1   H7B 7821   6.333   3.091   7.348  0.1705  0.1531 -2.1123
   73CHL1    C8 7822   6.194   2.947   7.450 -1.0922 -0.5932 -0.1665
   73CHL1    H8 7823   6.213   2.839   7.467 -2.0685 -0.8053 -0.3608
   73CHL1   C14 7824   6.210   3.027   7.580  0.8957  0.0699  0.4772
   73CHL1   H14 7825   6.201   3.134   7.552  2.8700  0.6191  1.6593
   73CHL1   C15 7826   6.341   3.016   7.644  0.4856  0.3689  0.3018
   73CHL1  H15A 7827   6.378   2.911   7.642  0.5826  0.3808  1.1466
   73CHL1  H15B 7828   6.411   3.089   7.597  0.9883 -0.4270 -0.2180
   73CHL1   C16 7829   6.311   3.065   7.794 -0.9549 -0.0289  0.8584
   73CHL1  H16A 7830   6.360   2.996   7.867 -1.8398 -0.9067  0.6493
   73CHL1  H16B 7831   6.354   3.165   7.815  2.8171 -1.9884  3.5935
   73CHL1   C17 7832   6.160   3.072   7.808  0.4342  0.1850 -0.0192
   73CHL1   H17 7833   6.138   3.179   7.787 -1.5324  0.1038  1.3944
   73CHL1   C13 7834   6.105   2.986   7.685  0.1134  0.0121  0.0407
   73CHL1   C18 7835   6.108   2.838   7.726  0.2156  0.3299  0.0830
   73CHL1  H18A 7836   6.013   2.819   7.779  0.0393  2.7580  0.7735
   73CHL1  H18B 7837   6.113   2.770   7.638 -2.5226 -2.3768  1.8315
   73CHL1  H18C 7838   6.188   2.805   7.795 -0.0699 -0.1391  0.1917
   73CHL1   C12 7839   5.966   3.025   7.627  0.3888 -0.1291 -0.2306
   73CHL1  H12A 7840   5.893   3.003   7.708 -0.9717 -0.0145 -1.3917
   73CHL1  H12B 7841   5.969   3.136   7.623  1.7837 -0.1474 -0.1037
   73CHL1   C11 7842   5.934   2.953   7.497  0.1200 -0.4466  0.5233
   73CHL1  H11A 7843   5.922   2.846   7.522 -0.0051 -0.4162  0.5929
   73CHL1  H11B 7844   5.847   3.004   7.451 -0.0351 -0.2098  1.0666
   73CHL1    C9 7845   6.051   2.962   7.389  0.3335  0.6023 -0.9818
   73CHL1    H9 7846   6.044   3.068   7.356 -0.4628  0.5123 -1.1186
   73CHL1   C10 7847   6.032   2.879   7.261 -0.2072  0.0252 -0.0426
   73CHL1   C19 7848   6.021   2.726   7.296  0.8781  0.2680  0.5584
   73CHL1  H19A 7849   5.933   2.696   7.357  2.0275 -1.8093  1.3414
   73CHL1  H19B 7850   6.029   2.657   7.209  0.1613  2.4109 -1.3007
   73CHL1  H19C 7851   6.107   2.696   7.360  0.2832  0.3828  1.4234
   73CHL1    C1 7852   5.907   2.930   7.182 -0.2443  0.0049  0.2927
   73CHL1   H1A 7853   5.818   2.897   7.239 -1.1768 -0.1087 -1.1808
   73CHL1   H1B 7854   5.921   3.040   7.170  0.6887 -0.4123 -4.3597
   73CHL1    C2 7855   5.882   2.882   7.039 -1.0230 -0.2222 -0.4213
   73CHL1   H2A 7856   5.796   2.931   6.989  0.5535  2.5276 -0.6414
   73CHL1   H2B 7857   5.872   2.772   7.050 -0.6133 -0.0370  2.6916
   73CHL1   C20 7858   6.105   3.043   7.951 -0.1467 -0.3993  0.7883
   73CHL1   H20 7859   6.125   2.935   7.963  2.0273 -0.1053  0.4001
   73CHL1   C21 7860   5.953   3.053   7.951 -0.1092 -0.5966 -0.7433
   73CHL1  H21A 7861   5.890   2.965   7.926 -1.7866  0.4047 -0.2824
   73CHL1  H21B 7862   5.905   3.140   7.901 -3.2198 -1.6651  0.1240
   73CHL1  H21C 7863   5.928   3.067   8.058  0.3372  0.3553 -0.7522
   73CHL1   C22 7864   6.188   3.122   8.060  0.0878  0.7286  0.1181
   73CHL1  H22A 7865   6.297   3.101   8.044  0.2724 -0.8410  2.8979
   73CHL1  H22B 7866   6.170   3.231   8.057  0.1481  0.7403  0.1769
   73CHL1   C23 7867   6.175   3.081   8.203 -0.2002 -0.5174 -0.5196
   73CHL1  H23A 7868   6.221   3.162   8.263 -0.2327 -0.3265 -0.7485
   73CHL1  H23B 7869   6.067   3.066   8.224  0.2903 -2.8857  0.6641
   73CHL1   C24 7870   6.233   2.940   8.229  0.4702  0.4419 -0.2422
   73CHL1  H24A 7871   6.233   2.885   8.133  1.4704 -0.4755  0.2598
   73CHL1  H24B 7872   6.341   2.944   8.257  0.4762  2.1037 -0.3978
   73CHL1   C25 7873   6.157   2.861   8.336 -0.1720 -0.1754 -0.4625
   73CHL1   H25 7874   6.218   2.776   8.374  0.4136  0.5437  0.2420
   73CHL1   C26 7875   6.116   2.944   8.461 -0.2386 -0.2218 -0.7740
   73CHL1  H26A 7876   6.205   3.003   8.490 -1.0554  1.3580 -1.3454
   73CHL1  H26B 7877   6.046   3.028   8.439  1.1284  1.4358  0.9097
   73CHL1  H26C 7878   6.090   2.883   8.550 -2.7511  0.5810 -0.8791
   73CHL1   C27 7879   6.038   2.791   8.277  0.1740  0.6621  0.3235
   73CHL1  H27A 7880   6.067   2.732   8.187 -0.6379 -0.1132  0.5579
   73CHL1  H27B 7881   5.983   2.721   8.344 -0.3219 -0.8788 -1.5942
   73CHL1  H27C 7882   5.966   2.867   8.242  1.4497  1.3877 -0.8285
   74CHL1    C3 7883   6.544   1.331   6.894  0.2749 -0.0694  0.5596
   74CHL1    H3 7884   6.654   1.330   6.877  0.0674 -0.9457 -0.8637
   74CHL1    O3 7885   6.477   1.310   6.768 -0.0727 -0.0137 -0.0015
   74CHL1   H3' 7886   6.414   1.382   6.760 -0.2902 -0.1944  0.1066
   74CHL1    C4 7887   6.509   1.214   6.985 -0.3456  0.2344  0.2329
   74CHL1   H4A 7888   6.399   1.208   7.002 -0.6022  1.5768 -0.7590
   74CHL1   H4B 7889   6.537   1.127   6.921  1.8975  1.8947 -1.1666
   74CHL1    C5 7890   6.578   1.221   7.129 -0.4002  0.5802 -0.1558
   74CHL1    C6 7891   6.645   1.121   7.192  0.3322 -0.3542 -0.2968
   74CHL1    H6 7892   6.657   1.031   7.131 -1.0043  0.2658 -1.5295
   74CHL1    C7 7893   6.700   1.140   7.328 -0.2778  1.2481 -0.0326
   74CHL1   H7A 7894   6.710   1.048   7.389 -2.3654  1.1107  0.1754
   74CHL1   H7B 7895   6.808   1.160   7.311  0.1190 -1.9116 -2.1078
   74CHL1    C8 7896   6.648   1.258   7.408  0.3308  0.3904 -0.0490
   74CHL1    H8 7897   6.544   1.225   7.429  0.1034  0.7288 -0.5947
   74CHL1   C14 7898   6.728   1.284   7.533  0.2821 -0.4281  0.5206
   74CHL1   H14 7899   6.829   1.321   7.505 -0.1119  0.5778  0.4018
   74CHL1   C15 7900   6.752   1.167   7.621 -0.2247 -0.3746  0.6079
   74CHL1  H15A 7901   6.671   1.092   7.622 -2.1391  1.5892  1.9687
   74CHL1  H15B 7902   6.842   1.118   7.577 -0.5331  0.3269 -0.8829
   74CHL1   C16 7903   6.791   1.218   7.760  0.1689  0.0822 -0.4396
   74CHL1  H16A 7904   6.716   1.176   7.830  1.0885 -1.6598 -0.4541
   74CHL1  H16B 7905   6.893   1.182   7.785 -0.4274 -1.7897 -0.5241
   74CHL1   C17 7906   6.779   1.377   7.740  0.4862 -0.3746  0.5644
   74CHL1   H17 7907   6.878   1.408   7.700 -0.3029 -1.1660 -2.2123
   74CHL1   C13 7908   6.673   1.389   7.633  0.6432  0.5221 -0.0868
   74CHL1   C18 7909   6.531   1.350   7.689  0.8005  0.4745  0.6867
   74CHL1  H18A 7910   6.537   1.265   7.761  0.8037  1.5406  1.9919
   74CHL1  H18B 7911   6.492   1.440   7.742 -1.2909  0.1642 -0.2149
   74CHL1  H18C 7912   6.456   1.313   7.616  0.5656 -0.6007  1.4404
   74CHL1   C12 7913   6.662   1.519   7.559  0.5579 -0.0283  0.1441
   74CHL1  H12A 7914   6.620   1.598   7.625  0.5731 -0.6024  0.8564
   74CHL1  H12B 7915   6.762   1.554   7.528  0.1697 -0.7717 -2.1433
   74CHL1   C11 7916   6.591   1.515   7.421 -0.5421  1.0740 -0.1498
   74CHL1  H11A 7917   6.486   1.500   7.453  0.4481 -0.2043  2.8642
   74CHL1  H11B 7918   6.597   1.610   7.364 -0.6093  0.7961 -0.6315
   74CHL1    C9 7919   6.633   1.391   7.334 -0.3459  0.3215 -0.3811
   74CHL1    H9 7920   6.738   1.411   7.306  0.2980 -0.6019  1.2812
   74CHL1   C10 7921   6.555   1.368   7.191  0.6349  0.1485  0.4187
   74CHL1   C19 7922   6.404   1.355   7.224 -0.4295  0.3627  0.6076
   74CHL1  H19A 7923   6.338   1.352   7.134 -1.0429  1.5454  0.9997
   74CHL1  H19B 7924   6.391   1.274   7.298  0.5114  0.5939  1.0512
   74CHL1  H19C 7925   6.369   1.446   7.277 -2.4589 -0.8960  1.5072
   74CHL1    C1 7926   6.574   1.483   7.093 -0.1592 -0.5828  0.6135
   74CHL1   H1A 7927   6.537   1.580   7.133  0.8767  0.5390 -1.0306
   74CHL1   H1B 7928   6.681   1.484   7.063  0.1363  1.2248  1.5328
   74CHL1    C2 7929   6.509   1.467   6.955  0.1904 -1.1623  1.6273
   74CHL1   H2A 7930   6.540   1.554   6.892 -0.6691 -0.1173  2.6054
   74CHL1   H2B 7931   6.398   1.473   6.960  0.1328  0.4899 -0.1340
   74CHL1   C20 7932   6.747   1.445   7.872 -0.7105 -0.8405  0.8575
   74CHL1   H20 7933   6.643   1.430   7.908 -0.5101  0.0958  1.8857
   74CHL1   C21 7934   6.754   1.601   7.860 -0.2747  0.1516 -0.6123
   74CHL1  H21A 7935   6.676   1.645   7.794 -0.8838 -1.9245 -1.3634
   74CHL1  H21B 7936   6.859   1.626   7.830  0.9912 -1.9902  1.6484
   74CHL1  H21C 7937   6.723   1.649   7.955  0.9040 -0.1282 -0.0634
   74CHL1   C22 7938   6.848   1.396   7.982  0.2604 -0.1966  0.4406
   74CHL1  H22A 7939   6.826   1.288   7.999 -2.0851  0.1429 -0.0367
   74CHL1  H22B 7940   6.957   1.403   7.964  0.6487 -0.0350  2.5257
   74CHL1   C23 7941   6.830   1.463   8.122  0.1113  0.1560 -1.0744
   74CHL1  H23A 7942   6.849   1.571   8.109 -2.1032  1.1609  2.5142
   74CHL1  H23B 7943   6.720   1.454   8.140  0.3591  2.3071  2.4343
   74CHL1   C24 7944   6.904   1.403   8.237 -0.2515 -1.3504 -0.5577
   74CHL1  H24A 7945   6.866   1.303   8.265 -3.3152  0.3094  1.8950
   74CHL1  H24B 7946   7.012   1.394   8.211 -0.1980  0.2909 -1.0213
   74CHL1   C25 7947   6.876   1.490   8.360  0.1522 -0.0345  0.4249
   74CHL1   H25 7948   6.909   1.594   8.339  0.3237 -0.5609 -2.2904
   74CHL1   C26 7949   6.720   1.507   8.378  0.5758  0.2891  0.0667
   74CHL1  H26A 7950   6.676   1.567   8.295  1.7585 -0.5824 -1.2381
   74CHL1  H26B 7951   6.679   1.404   8.369  0.3748  0.3276  0.5282
   74CHL1  H26C 7952   6.695   1.562   8.471  0.5557  0.0945  0.1755
   74CHL1   C27 7953   6.944   1.428   8.479  0.2975  0.1932  0.6056
   74CHL1  H27A 7954   6.912   1.478   8.573 -1.4920  0.2030  0.0194
   74CHL1  H27B 7955   6.918   1.321   8.496 -0.9197  0.3593 -0.1312
   74CHL1  H27C 7956   7.054   1.443   8.467  0.8469  0.9465  4.8095
   75CHL1    C3 7957   2.106   4.305   6.698  0.6643 -0.3307  0.1884
   75CHL1    H3 7958   2.214   4.320   6.718  0.7049 -0.0079 -0.2525
   75CHL1    O3 7959   2.084   4.315   6.558 -0.0103 -0.2380  0.1470
   75CHL1   H3' 7960   2.118   4.398   6.523  1.0623 -1.3747 -1.7108
   75CHL1    C4 7961   2.058   4.169   6.736 -0.0828 -0.0239 -0.4196
   75CHL1   H4A 7962   1.959   4.145   6.691  0.7441 -1.1748 -1.7300
   75CHL1   H4B 7963   2.108   4.088   6.678  0.1559  0.3539 -0.7515
   75CHL1    C5 7964   2.063   4.147   6.889  0.1517  0.7339  0.3810
   75CHL1    C6 7965   2.123   4.048   6.949  0.1794  0.2495 -0.0259
   75CHL1    H6 7966   2.164   3.967   6.887 -1.4536 -1.5928  1.1775
   75CHL1    C7 7967   2.116   4.026   7.096 -0.0571  0.7998 -0.0705
   75CHL1   H7A 7968   2.081   3.921   7.111  0.4528  0.4864 -0.9868
   75CHL1   H7B 7969   2.218   4.038   7.137  0.0271  2.3046 -0.6798
   75CHL1    C8 7970   2.013   4.114   7.175 -0.3231 -0.0955  0.1565
   75CHL1    H8 7971   1.911   4.073   7.160  0.3216 -1.3950 -0.8917
   75CHL1   C14 7972   2.055   4.110   7.322 -0.4245  1.3657 -0.6555
   75CHL1   H14 7973   2.152   4.161   7.341  0.4499 -0.9053  1.7135
   75CHL1   C15 7974   2.077   3.972   7.396  0.3801  0.3793 -0.2494
   75CHL1  H15A 7975   2.006   3.897   7.356  0.9038 -0.1188 -0.2619
   75CHL1  H15B 7976   2.175   3.924   7.377 -1.0907 -2.6184 -0.9933
   75CHL1   C16 7977   2.053   4.002   7.550  0.6801  0.2900 -0.0407
   75CHL1  H16A 7978   1.960   3.951   7.585  0.2687 -0.0511 -1.5379
   75CHL1  H16B 7979   2.132   3.965   7.619  1.1869 -0.8393 -1.1716
   75CHL1   C17 7980   2.019   4.158   7.555 -0.0753 -0.0208 -0.1321
   75CHL1   H17 7981   2.112   4.217   7.568 -1.8208  2.6139  1.1056
   75CHL1   C13 7982   1.964   4.193   7.411 -0.3880 -0.3330 -0.2288
   75CHL1   C18 7983   1.821   4.135   7.402 -0.2077  0.3824  0.2290
   75CHL1  H18A 7984   1.824   4.034   7.449 -0.1663  0.8920  1.3420
   75CHL1  H18B 7985   1.758   4.203   7.463 -0.9507 -0.8169  0.8385
   75CHL1  H18C 7986   1.777   4.150   7.301  1.9905  0.8449 -0.7129
   75CHL1   C12 7987   1.982   4.334   7.373 -0.2903 -0.5596 -0.1292
   75CHL1  H12A 7988   1.910   4.398   7.428  1.0527  0.7258  0.2145
   75CHL1  H12B 7989   2.085   4.374   7.390 -1.2703  2.6809 -1.0325
   75CHL1   C11 7990   1.957   4.354   7.215 -0.1680 -0.0643 -0.0842
   75CHL1  H11A 7991   1.847   4.361   7.206 -0.1624  3.3337  0.8401
   75CHL1  H11B 7992   2.004   4.455   7.206 -0.3306 -0.0083 -0.2916
   75CHL1    C9 7993   2.021   4.250   7.119  0.2292 -0.6062 -0.3412
   75CHL1    H9 7994   2.129   4.271   7.130  0.6080 -2.5270  0.0717
   75CHL1   C10 7995   1.984   4.255   6.968  0.0543  0.1265 -0.1638
   75CHL1   C19 7996   1.835   4.217   6.945 -0.2321  0.2413  0.5099
   75CHL1  H19A 7997   1.781   4.286   7.013  2.5392  1.0402  2.0503
   75CHL1  H19B 7998   1.809   4.247   6.841 -0.9599  0.6382  0.7981
   75CHL1  H19C 7999   1.805   4.111   6.957 -1.6580  0.5631  0.0031
   75CHL1    C1 8000   2.018   4.400   6.920 -0.5157 -0.0497  0.9592
   75CHL1   H1A 8001   1.939   4.470   6.955  0.8815  1.7084  0.6966
   75CHL1   H1B 8002   2.118   4.430   6.955  0.5877 -2.8183  0.4321
   75CHL1    C2 8003   2.023   4.412   6.764 -0.1747  0.4720  0.2862
   75CHL1   H2A 8004   2.051   4.515   6.732  0.0617  0.3603  0.1319
   75CHL1   H2B 8005   1.920   4.394   6.727 -0.8816  0.0812  2.3229
   75CHL1   C20 8006   1.936   4.198   7.680  0.6232 -0.1554  0.7757
   75CHL1   H20 8007   1.827   4.182   7.673  0.6810 -0.0302 -0.6049
   75CHL1   C21 8008   1.960   4.356   7.701  0.1364 -0.0532  0.9745
   75CHL1  H21A 8009   1.889   4.385   7.781 -0.1990  0.9625  0.3288
   75CHL1  H21B 8010   1.938   4.429   7.620 -1.5526 -0.7817  0.7213
   75CHL1  H21C 8011   2.063   4.361   7.741  0.2512  1.4786  0.5435
   75CHL1   C22 8012   1.976   4.135   7.816  0.6204  0.3096 -0.1125
   75CHL1  H22A 8013   2.084   4.124   7.837  0.7988  0.7383 -0.7894
   75CHL1  H22B 8014   1.932   4.202   7.893 -1.4241 -0.8091 -0.2199
   75CHL1   C23 8015   1.897   4.007   7.856  0.0979  0.3785  0.1543
   75CHL1  H23A 8016   1.792   4.020   7.826  0.2625 -1.8109 -1.6523
   75CHL1  H23B 8017   1.934   3.923   7.793 -2.0159 -0.3723 -0.1703
   75CHL1   C24 8018   1.917   3.959   7.999  0.1161 -0.3443  0.2919
   75CHL1  H24A 8019   1.864   4.031   8.065 -1.7647 -1.2096 -0.2086
   75CHL1  H24B 8020   1.875   3.856   8.007 -2.2873  0.6352  1.3946
   75CHL1   C25 8021   2.064   3.942   8.042  0.2882 -0.1515 -0.4718
   75CHL1   H25 8022   2.118   4.038   8.055 -1.0951  0.9298 -2.2290
   75CHL1   C26 8023   2.064   3.877   8.187  0.5753 -0.1743 -0.3277
   75CHL1  H26A 8024   2.028   3.772   8.184 -1.3273  0.4609 -0.7949
   75CHL1  H26B 8025   2.162   3.884   8.240 -0.1296  0.5512  0.9210
   75CHL1  H26C 8026   1.993   3.943   8.241 -0.4926  0.8142 -2.7847
   75CHL1   C27 8027   2.144   3.856   7.951 -0.1782  0.4936  0.0071
   75CHL1  H27A 8028   2.165   3.898   7.850  0.1050  0.6768  0.1405
   75CHL1  H27B 8029   2.246   3.841   7.992 -0.3199 -0.0275  0.1700
   75CHL1  H27C 8030   2.099   3.756   7.936  1.1019  0.1338 -1.7742
   76CHL1    C3 8031   4.593   5.127   7.330 -0.3901  0.1901 -0.1862
   76CHL1    H3 8032   4.495   5.176   7.348 -1.3262 -0.8104 -2.2262
   76CHL1    O3 8033   4.623   5.103   7.191  0.6711 -0.0209 -0.1361
   76CHL1   H3' 8034   4.555   5.046   7.154 -1.1071  0.4747  2.0863
   76CHL1    C4 8035   4.701   5.218   7.395 -0.5016  0.5159 -0.4055
   76CHL1   H4A 8036   4.799   5.172   7.371 -1.3108 -0.4436 -2.0936
   76CHL1   H4B 8037   4.698   5.319   7.348  0.9058  1.4810  1.4611
   76CHL1    C5 8038   4.683   5.238   7.542  0.1651  0.1101  0.4001
   76CHL1    C6 8039   4.668   5.354   7.595 -0.1590  0.0687 -0.3525
   76CHL1    H6 8040   4.671   5.439   7.526  0.7760  0.7515  0.4946
   76CHL1    C7 8041   4.663   5.375   7.742 -0.2603 -1.0085 -0.2480
   76CHL1   H7A 8042   4.722   5.465   7.769 -1.1686 -1.3357  3.4481
   76CHL1   H7B 8043   4.558   5.399   7.770 -0.1020  1.6836 -1.6418
   76CHL1    C8 8044   4.714   5.258   7.826  0.0358 -0.7804  0.7215
   76CHL1    H8 8045   4.818   5.229   7.801  0.3913  0.6724  0.4326
   76CHL1   C14 8046   4.692   5.279   7.974  0.1167  0.5021 -0.1982
   76CHL1   H14 8047   4.586   5.313   7.978 -0.0086  0.0480  0.5447
   76CHL1   C15 8048   4.770   5.388   8.047 -0.2599  0.0860 -0.1063
   76CHL1  H15A 8049   4.879   5.377   8.035 -0.1833  0.1589  0.4572
   76CHL1  H15B 8050   4.734   5.491   8.024 -1.4730 -0.1320  0.7136
   76CHL1   C16 8051   4.741   5.355   8.191 -0.4347  0.4486 -1.3677
   76CHL1  H16A 8052   4.842   5.341   8.235 -0.3455 -2.1901 -2.2279
   76CHL1  H16B 8053   4.679   5.434   8.238  0.1547  0.7315 -1.0516
   76CHL1   C17 8054   4.665   5.213   8.203  0.2913 -1.0589  0.1526
   76CHL1   H17 8055   4.563   5.252   8.183  1.6285  1.8639 -1.6982
   76CHL1   C13 8056   4.697   5.156   8.060  0.4728  0.7503 -0.1636
   76CHL1   C18 8057   4.843   5.098   8.074  0.0431 -0.6068 -0.1102
   76CHL1  H18A 8058   4.923   5.174   8.088  0.1673 -0.2207 -2.4681
   76CHL1  H18B 8059   4.849   5.020   8.153  0.2887 -1.0004 -0.5093
   76CHL1  H18C 8060   4.863   5.048   7.976 -1.4913  1.8621 -1.7910
   76CHL1   C12 8061   4.605   5.052   8.010  0.3002  0.1603  0.5329
   76CHL1  H12A 8062   4.606   4.958   8.070 -1.4017  0.0286  0.4060
   76CHL1  H12B 8063   4.500   5.088   8.015  0.2188  0.0207 -0.0823
   76CHL1   C11 8064   4.627   5.015   7.857 -0.4604 -0.0146  0.4115
   76CHL1  H11A 8065   4.727   4.967   7.860 -0.6710 -0.4056  1.2757
   76CHL1  H11B 8066   4.549   4.941   7.828 -2.6044  1.6567  1.5631
   76CHL1    C9 8067   4.636   5.134   7.763  0.7693 -0.4404 -0.4754
   76CHL1    H9 8068   4.529   5.162   7.764  0.4842 -1.3133  2.2665
   76CHL1   C10 8069   4.681   5.105   7.617  0.8464 -0.4567  0.1815
   76CHL1   C19 8070   4.824   5.049   7.610  0.1536  0.0614  0.4478
   76CHL1  H19A 8071   4.842   5.027   7.503 -1.4524 -0.6761  0.3031
   76CHL1  H19B 8072   4.896   5.123   7.651 -0.4433 -0.6927  3.0641
   76CHL1  H19C 8073   4.830   4.952   7.663 -1.0385 -0.1499  0.2280
   76CHL1    C1 8074   4.583   4.995   7.550 -0.2080  0.1577 -0.1439
   76CHL1   H1A 8075   4.620   4.899   7.592  0.4989 -0.3806 -1.8731
   76CHL1   H1B 8076   4.480   5.028   7.575  0.2953  0.5857  1.4791
   76CHL1    C2 8077   4.591   4.991   7.393 -0.0763  0.4263  1.0552
   76CHL1   H2A 8078   4.513   4.931   7.341  0.5979  0.0574  0.4608
   76CHL1   H2B 8079   4.690   4.944   7.377  1.0962  2.1281  2.8238
   76CHL1   C20 8080   4.659   5.127   8.326 -0.6540 -0.1423 -0.2053
   76CHL1   H20 8081   4.651   5.022   8.289  1.0383  0.1534 -1.5159
   76CHL1   C21 8082   4.529   5.158   8.407  0.1842 -0.3104  0.3049
   76CHL1  H21A 8083   4.445   5.154   8.334 -1.3203  0.8810  1.9119
   76CHL1  H21B 8084   4.543   5.261   8.445 -0.6209 -0.3591  0.7354
   76CHL1  H21C 8085   4.515   5.084   8.488  0.9343  0.0013  0.7325
   76CHL1   C22 8086   4.800   5.137   8.406 -0.6299 -1.1307  0.2704
   76CHL1  H22A 8087   4.882   5.108   8.337 -0.5831  0.1198 -0.2218
   76CHL1  H22B 8088   4.814   5.241   8.441  1.3948 -1.1876 -0.2926
   76CHL1   C23 8089   4.808   5.052   8.533  0.2295  0.1278 -0.2704
   76CHL1  H23A 8090   4.719   5.050   8.600  1.0149 -0.9806  0.8032
   76CHL1  H23B 8091   4.818   4.944   8.508 -1.1641 -0.0708 -0.0661
   76CHL1   C24 8092   4.930   5.095   8.616  0.0514  0.6437 -0.6938
   76CHL1  H24A 8093   5.003   5.140   8.546  0.8721  2.9502  1.4969
   76CHL1  H24B 8094   4.883   5.167   8.686  0.8250  3.8645 -3.2700
   76CHL1   C25 8095   4.986   4.980   8.713 -0.3291  0.4301  0.0522
   76CHL1   H25 8096   4.898   4.926   8.753  0.8731 -1.3398  0.4430
   76CHL1   C26 8097   5.078   4.885   8.628  0.1566  0.0062 -0.4136
   76CHL1  H26A 8098   5.108   4.802   8.696  0.1469 -0.2251 -0.6885
   76CHL1  H26B 8099   5.018   4.841   8.545 -0.9600 -0.6051  0.6831
   76CHL1  H26C 8100   5.170   4.929   8.584  0.2200  0.8242  0.5198
   76CHL1   C27 8101   5.058   5.032   8.834 -0.2053 -1.2398  0.5350
   76CHL1  H27A 8102   5.107   4.957   8.900 -0.6672  0.3044  2.7771
   76CHL1  H27B 8103   5.140   5.100   8.801 -0.9397 -0.7329 -0.2774
   76CHL1  H27C 8104   4.989   5.100   8.889  0.4465 -0.4271  0.3730
   77CHL1    C3 8105   6.376   3.851   6.864  0.0378  0.1805  0.2734
   77CHL1    H3 8106   6.298   3.780   6.898  0.8734  0.2737  2.5957
   77CHL1    O3 8107   6.382   3.843   6.720 -0.4518  0.1006 -0.7938
   77CHL1   H3' 8108   6.412   3.930   6.693 -0.6369  0.2379 -0.5714
   77CHL1    C4 8109   6.347   3.999   6.906 -0.7893  0.1065 -0.2818
   77CHL1   H4A 8110   6.425   4.069   6.869  0.0036  0.1324  1.3380
   77CHL1   H4B 8111   6.248   4.016   6.860 -0.0095 -2.1787 -3.0843
   77CHL1    C5 8112   6.337   4.022   7.053  0.1846 -0.3696  0.0459
   77CHL1    C6 8113   6.232   4.085   7.107 -0.2348  0.6657  0.5237
   77CHL1    H6 8114   6.157   4.139   7.047 -2.0229 -0.5375  1.5817
   77CHL1    C7 8115   6.211   4.101   7.252  0.1900 -0.6249  0.2908
   77CHL1   H7A 8116   6.181   4.202   7.286 -2.8921 -1.2634 -0.2442
   77CHL1   H7B 8117   6.132   4.031   7.287  1.0935 -1.7256  0.2247
   77CHL1    C8 8118   6.330   4.057   7.341 -0.8235  0.1261  0.0428
   77CHL1    H8 8119   6.395   4.147   7.344 -2.2473  1.1572  0.9028
   77CHL1   C14 8120   6.287   4.020   7.478  0.4350 -0.4981 -0.8524
   77CHL1   H14 8121   6.233   3.925   7.457 -1.4432  0.5746 -0.9844
   77CHL1   C15 8122   6.189   4.121   7.552  0.7017  0.0976  0.0974
   77CHL1  H15A 8123   6.223   4.227   7.556  2.5887 -0.4850  0.3627
   77CHL1  H15B 8124   6.090   4.119   7.501  0.8092 -0.3075 -0.0978
   77CHL1   C16 8125   6.189   4.064   7.701 -0.0124  0.3100 -0.1091
   77CHL1  H16A 8126   6.225   4.144   7.769  4.3517 -1.7587  0.3499
   77CHL1  H16B 8127   6.101   4.009   7.739 -0.5342  1.3559  0.2439
   77CHL1   C17 8128   6.299   3.950   7.698  0.1408  0.9476 -1.0437
   77CHL1   H17 8129   6.236   3.862   7.675  0.9430  0.2007 -0.4410
   77CHL1   C13 8130   6.392   3.976   7.572 -0.4675  0.0924 -0.2963
   77CHL1   C18 8131   6.480   4.100   7.594 -0.4075 -1.0813  0.7314
   77CHL1  H18A 8132   6.438   4.181   7.658  0.0937 -2.3171  2.7116
   77CHL1  H18B 8133   6.564   4.068   7.659  1.7522  0.1755 -1.2687
   77CHL1  H18C 8134   6.523   4.144   7.501 -2.2332  0.0516  0.3775
   77CHL1   C12 8135   6.483   3.864   7.510 -0.5875  1.0181  0.9067
   77CHL1  H12A 8136   6.572   3.855   7.576  1.4684 -1.0222 -1.9081
   77CHL1  H12B 8137   6.426   3.769   7.505 -1.0798  1.3791 -1.4692
   77CHL1   C11 8138   6.531   3.893   7.370  0.0305 -0.9065  0.3541
   77CHL1  H11A 8139   6.609   3.971   7.385  1.0744 -1.7584 -0.4751
   77CHL1  H11B 8140   6.594   3.817   7.319  0.4641 -0.1755 -0.2153
   77CHL1    C9 8141   6.411   3.938   7.280  0.4641  0.4374  0.4344
   77CHL1    H9 8142   6.339   3.854   7.281 -0.5030  1.2324 -0.3038
   77CHL1   C10 8143   6.455   3.958   7.139  0.1409  0.7036  0.2228
   77CHL1   C19 8144   6.564   4.068   7.141 -0.0613  0.1547  0.0695
   77CHL1  H19A 8145   6.533   4.146   7.213  0.8692  1.3960 -0.8308
   77CHL1  H19B 8146   6.665   4.030   7.168  0.2392  0.2085 -0.9394
   77CHL1  H19C 8147   6.583   4.114   7.042 -1.9495  1.4679  0.2790
   77CHL1    C1 8148   6.501   3.822   7.075 -0.4097 -0.1850 -0.4974
   77CHL1   H1A 8149   6.602   3.798   7.114 -1.0235 -2.5461 -0.1989
   77CHL1   H1B 8150   6.438   3.741   7.118  1.5920 -2.1292 -1.0528
   77CHL1    C2 8151   6.505   3.798   6.926 -0.4096  0.4212  0.4201
   77CHL1   H2A 8152   6.502   3.689   6.901 -0.8425  0.6520 -0.5811
   77CHL1   H2B 8153   6.591   3.846   6.875 -0.6814  0.8788  0.3900
   77CHL1   C20 8154   6.377   3.926   7.834  0.3948 -0.2228 -0.3474
   77CHL1   H20 8155   6.433   4.018   7.861 -0.1411  0.1919 -0.6425
   77CHL1   C21 8156   6.473   3.812   7.817 -0.3740  0.0226  0.3004
   77CHL1  H21A 8157   6.491   3.760   7.913 -0.7039  0.9252  0.8608
   77CHL1  H21B 8158   6.566   3.854   7.773 -1.0783 -0.2442 -1.5552
   77CHL1  H21C 8159   6.432   3.726   7.759  2.3262 -1.2158  0.0682
   77CHL1   C22 8160   6.267   3.890   7.946 -0.5071 -0.5622 -0.0368
   77CHL1  H22A 8161   6.185   3.840   7.891 -1.1495 -1.2154  1.4634
   77CHL1  H22B 8162   6.310   3.820   8.020  2.0726  1.4324  0.5175
   77CHL1   C23 8163   6.212   4.002   8.033 -0.5615  0.4602 -0.0187
   77CHL1  H23A 8164   6.300   4.037   8.091 -0.0026 -1.3141  0.2627
   77CHL1  H23B 8165   6.186   4.090   7.970 -0.5608 -1.5945 -3.0688
   77CHL1   C24 8166   6.101   3.952   8.126 -0.4646  0.3672  0.3047
   77CHL1  H24A 8167   6.008   3.927   8.071  0.6597 -0.5064 -1.2916
   77CHL1  H24B 8168   6.137   3.855   8.167  1.6447 -0.0077 -2.1053
   77CHL1   C25 8169   6.068   4.054   8.230  0.1152 -0.1720  0.0863
   77CHL1   H25 8170   6.055   4.151   8.177 -2.2555 -1.6062 -2.1782
   77CHL1   C26 8171   5.940   4.021   8.308 -0.2508 -0.1452 -0.1769
   77CHL1  H26A 8172   5.951   3.928   8.367  2.0055  0.5109  0.5401
   77CHL1  H26B 8173   5.903   4.103   8.373 -2.6630 -0.8055 -0.6107
   77CHL1  H26C 8174   5.854   4.025   8.237 -0.4886  2.2955  0.1698
   77CHL1   C27 8175   6.186   4.085   8.327 -0.2286 -0.1969  0.4763
   77CHL1  H27A 8176   6.265   4.143   8.274 -1.1279  1.8151  1.2445
   77CHL1  H27B 8177   6.171   4.148   8.418 -0.9728  1.0210 -0.4552
   77CHL1  H27C 8178   6.221   3.981   8.341  1.5715  0.2668 -0.2153
   78CHL1    C3 8179   0.101   5.947   6.747  0.6549 -0.1412 -0.6041
   78CHL1    H3 8180   0.020   5.905   6.810 -1.0500  5.2664  1.3740
   78CHL1    O3 8181   0.060   5.951   6.612 -0.2921  0.2159  0.6765
   78CHL1   H3' 8182   0.136   5.987   6.566  0.4679 -0.0547  1.6677
   78CHL1    C4 8183   0.121   6.092   6.797 -0.3062  0.6443  0.4655
   78CHL1   H4A 8184   0.201   6.144   6.740  0.1256 -0.3703  0.1064
   78CHL1   H4B 8185   0.027   6.148   6.775 -1.2263 -1.0117  0.0104
   78CHL1    C5 8186   0.155   6.090   6.943 -0.6927 -0.6695 -0.5282
   78CHL1    C6 8187   0.075   6.146   7.035 -0.1292 -0.2336  0.5604
   78CHL1    H6 8188  -0.013   6.199   6.995  0.5767 -0.2219 -1.0296
   78CHL1    C7 8189   0.114   6.146   7.181 -0.4685 -0.2610  0.1347
   78CHL1   H7A 8190   0.102   6.244   7.232 -0.1625 -0.7464  1.1508
   78CHL1   H7B 8191   0.053   6.072   7.236  0.8754 -0.7492  1.0014
   78CHL1    C8 8192   0.259   6.102   7.206 -0.8563 -0.1129 -0.3441
   78CHL1    H8 8193   0.332   6.183   7.182  1.1504 -1.7044  0.1440
   78CHL1   C14 8194   0.288   6.074   7.363  0.0955  0.5157  0.2756
   78CHL1   H14 8195   0.224   5.988   7.393 -0.0957 -0.0961 -1.7345
   78CHL1   C15 8196   0.238   6.181   7.465  0.4406  0.0858 -0.0230
   78CHL1  H15A 8197   0.265   6.284   7.432 -3.7664  1.3950  0.1319
   78CHL1  H15B 8198   0.130   6.198   7.482  0.6698  0.8331  0.7250
   78CHL1   C16 8199   0.313   6.141   7.596  0.2609  0.6302  0.1536
   78CHL1  H16A 8200   0.352   6.229   7.652 -1.4450 -0.0022  2.4790
   78CHL1  H16B 8201   0.241   6.103   7.671  0.1772  1.7925  0.6819
   78CHL1   C17 8202   0.419   6.026   7.562  0.4062  0.4368  0.5413
   78CHL1   H17 8203   0.371   5.928   7.580  1.4680  0.1607  2.1115
   78CHL1   C13 8204   0.433   6.027   7.399 -0.6719  0.2849  0.1494
   78CHL1   C18 8205   0.534   6.134   7.370  0.1175 -1.1344  0.0688
   78CHL1  H18A 8206   0.541   6.163   7.263 -1.8915  1.5484  0.5697
   78CHL1  H18B 8207   0.501   6.227   7.420 -1.0570 -1.4462 -0.0877
   78CHL1  H18C 8208   0.634   6.108   7.410  0.6009  0.5443 -0.0020
   78CHL1   C12 8209   0.466   5.896   7.319  0.6360 -0.5080 -0.4228
   78CHL1  H12A 8210   0.569   5.861   7.343  0.9490  1.7542  1.9644
   78CHL1  H12B 8211   0.387   5.830   7.359  0.7284 -0.4495 -0.1425
   78CHL1   C11 8212   0.443   5.917   7.163  0.0208  0.2998 -0.0543
   78CHL1  H11A 8213   0.520   5.987   7.123 -1.1494  0.6111 -1.9240
   78CHL1  H11B 8214   0.465   5.824   7.107  1.0591 -0.8859  2.2089
   78CHL1    C9 8215   0.303   5.982   7.124  0.0194  0.7628  0.5855
   78CHL1    H9 8216   0.237   5.902   7.164 -0.3659  0.7390 -0.0717
   78CHL1   C10 8217   0.282   5.999   6.973 -0.7340 -0.0974  0.0172
   78CHL1   C19 8218   0.406   6.072   6.912 -0.5988 -0.4209  0.0917
   78CHL1  H19A 8219   0.387   6.086   6.804 -0.9685 -1.1284  0.0550
   78CHL1  H19B 8220   0.413   6.169   6.965  0.3427 -1.5277  2.1483
   78CHL1  H19C 8221   0.503   6.022   6.934  0.5953  0.8303 -2.0249
   78CHL1    C1 8222   0.276   5.865   6.901  0.0844  0.9079 -0.2985
   78CHL1   H1A 8223   0.377   5.818   6.902 -0.0792  0.5637  0.6780
   78CHL1   H1B 8224   0.202   5.804   6.956 -0.2939  0.7218 -0.9985
   78CHL1    C2 8225   0.230   5.871   6.755  0.0123 -0.5659  0.3379
   78CHL1   H2A 8226   0.205   5.769   6.719 -0.5668 -0.3078 -0.0036
   78CHL1   H2B 8227   0.313   5.921   6.702 -0.0967  0.2077  0.8885
   78CHL1   C20 8228   0.539   6.022   7.657  0.2368  0.0169  0.1559
   78CHL1   H20 8229   0.595   6.113   7.627  0.4177 -1.0887 -3.2336
   78CHL1   C21 8230   0.616   5.890   7.631  1.1422 -0.6778  0.2549
   78CHL1  H21A 8231   0.549   5.803   7.647  1.7347 -0.9867  1.1294
   78CHL1  H21B 8232   0.698   5.877   7.705  2.3336 -1.4300 -1.1451
   78CHL1  H21C 8233   0.664   5.887   7.531  0.1077  2.5678 -0.4512
   78CHL1   C22 8234   0.495   6.025   7.816 -0.3146 -0.4362  0.1194
   78CHL1  H22A 8235   0.431   6.115   7.833 -1.3520 -0.7889 -1.6564
   78CHL1  H22B 8236   0.425   5.942   7.840 -2.1005  0.9985  0.0718
   78CHL1   C23 8237   0.621   6.034   7.905  0.1288  0.8468 -0.9476
   78CHL1  H23A 8238   0.652   5.927   7.895 -0.5258  0.5469  0.0587
   78CHL1  H23B 8239   0.679   6.116   7.858  3.3576 -0.2867  0.6899
   78CHL1   C24 8240   0.592   6.078   8.047 -0.1132  0.6570 -0.0179
   78CHL1  H24A 8241   0.526   6.167   8.050  0.7602  1.4642 -2.1401
   78CHL1  H24B 8242   0.516   6.010   8.091  0.0520  1.8985  2.3499
   78CHL1   C25 8243   0.717   6.106   8.135  0.0196  0.2896 -0.1855
   78CHL1   H25 8244   0.788   6.164   8.072  0.5288  1.1361  1.1310
   78CHL1   C26 8245   0.672   6.176   8.262 -0.0592  0.0224  0.6728
   78CHL1  H26A 8246   0.596   6.127   8.326 -0.1124  1.5274  1.8110
   78CHL1  H26B 8247   0.754   6.183   8.336 -0.3386 -0.8006  1.0699
   78CHL1  H26C 8248   0.647   6.283   8.247  0.0864 -0.1318 -0.9412
   78CHL1   C27 8249   0.777   5.971   8.183  0.4489 -0.5087  0.2311
   78CHL1  H27A 8250   0.799   5.912   8.091 -0.4797  0.4046 -0.5986
   78CHL1  H27B 8251   0.874   5.981   8.237  0.5299  0.1988 -0.0383
   78CHL1  H27C 8252   0.702   5.930   8.254 -2.4260  2.0989 -1.0788
   79CHL1    C3 8253   5.726   5.199   7.153  0.3905 -0.2617  0.3679
   79CHL1    H3 8254   5.627   5.237   7.118  0.1520 -1.2254 -0.0587
   79CHL1    O3 8255   5.805   5.151   7.047 -0.2280  0.1208  0.3329
   79CHL1   H3' 8256   5.771   5.062   7.035  3.3614 -1.0008 -3.6981
   79CHL1    C4 8257   5.782   5.327   7.220 -0.1306 -0.0748  0.4188
   79CHL1   H4A 8258   5.893   5.322   7.224 -0.0071  0.0458 -1.5993
   79CHL1   H4B 8259   5.769   5.416   7.154 -0.1486 -0.2794  0.1440
   79CHL1    C5 8260   5.738   5.354   7.365 -0.4242 -0.3403  1.3340
   79CHL1    C6 8261   5.702   5.477   7.392  0.4887 -0.5254 -0.3660
   79CHL1    H6 8262   5.693   5.555   7.314 -0.9864  0.4367  0.7046
   79CHL1    C7 8263   5.659   5.520   7.534  0.2670  0.2384  0.0752
   79CHL1   H7A 8264   5.685   5.625   7.557 -1.3617  0.9166 -1.0289
   79CHL1   H7B 8265   5.549   5.524   7.544  0.3310  0.5994  0.7187
   79CHL1    C8 8266   5.710   5.422   7.644 -0.0311  0.6958 -0.4027
   79CHL1    H8 8267   5.818   5.442   7.660 -0.0123  0.1144  0.2473
   79CHL1   C14 8268   5.637   5.451   7.777  0.3681 -0.5775 -0.7348
   79CHL1   H14 8269   5.528   5.444   7.757  0.3842  0.8023 -1.4193
   79CHL1   C15 8270   5.654   5.588   7.847  0.3644  0.6023  0.0341
   79CHL1  H15A 8271   5.756   5.629   7.835 -0.9671  4.3629  0.3013
   79CHL1  H15B 8272   5.593   5.665   7.794  0.6430  0.7827 -0.0266
   79CHL1   C16 8273   5.614   5.559   7.991 -0.3517 -0.7296 -0.0346
   79CHL1  H16A 8274   5.673   5.611   8.069 -2.3335  1.1568  0.3086
   79CHL1  H16B 8275   5.513   5.605   7.997  0.2062  1.1070 -3.0939
   79CHL1   C17 8276   5.594   5.401   8.007 -0.6667 -0.1998 -0.2155
   79CHL1   H17 8277   5.484   5.400   7.992 -0.6253 -1.5418 -0.5572
   79CHL1   C13 8278   5.672   5.343   7.887  0.3566  0.1597 -0.0468
   79CHL1   C18 8279   5.827   5.351   7.914  0.1732 -0.2042  0.3273
   79CHL1  H18A 8280   5.881   5.305   7.828 -1.3900 -0.4474 -0.5630
   79CHL1  H18B 8281   5.855   5.456   7.938 -0.2418 -0.2417  0.9901
   79CHL1  H18C 8282   5.857   5.291   8.002  2.1351 -0.2553 -0.3318
   79CHL1   C12 8283   5.623   5.202   7.835 -0.0968 -0.2265  0.1477
   79CHL1  H12A 8284   5.648   5.116   7.901 -1.8317 -1.9982 -1.3867
   79CHL1  H12B 8285   5.513   5.209   7.824 -0.0907  1.8804  0.9873
   79CHL1   C11 8286   5.693   5.165   7.699  0.6184 -0.3311 -0.2784
   79CHL1  H11A 8287   5.799   5.144   7.725 -0.0875 -1.8258  1.5848
   79CHL1  H11B 8288   5.647   5.071   7.664  1.0702 -0.1828 -1.2992
   79CHL1    C9 8289   5.676   5.279   7.594 -0.4793  0.0825  0.1670
   79CHL1    H9 8290   5.569   5.292   7.566 -0.0545  0.0044 -1.5990
   79CHL1   C10 8291   5.728   5.237   7.455 -0.3833 -0.3826 -0.4131
   79CHL1   C19 8292   5.869   5.179   7.478 -0.1128  0.3427  0.9696
   79CHL1  H19A 8293   5.929   5.246   7.542 -1.2651  1.5092  0.8695
   79CHL1  H19B 8294   5.863   5.085   7.538 -2.0489  0.5881  1.2251
   79CHL1  H19C 8295   5.933   5.158   7.390  1.6156  3.7916  1.2412
   79CHL1    C1 8296   5.652   5.120   7.393 -0.6383 -0.1784 -0.0769
   79CHL1   H1A 8297   5.680   5.036   7.460  1.7259  0.4067 -0.2433
   79CHL1   H1B 8298   5.541   5.132   7.387 -0.5487  0.6611 -0.1622
   79CHL1    C2 8299   5.692   5.080   7.249 -0.0864 -0.1996  0.0328
   79CHL1   H2A 8300   5.614   5.015   7.203 -0.9136  0.7109  0.1098
   79CHL1   H2B 8301   5.782   5.016   7.258 -0.4356 -0.5047  1.7669
   79CHL1   C20 8302   5.627   5.353   8.146 -0.3554 -0.2409  0.1108
   79CHL1   H20 8303   5.736   5.364   8.163 -0.4019 -2.2148  2.1389
   79CHL1   C21 8304   5.588   5.205   8.169 -0.5997 -0.0879  0.7653
   79CHL1  H21A 8305   5.649   5.138   8.105 -1.8570 -0.5574  0.0196
   79CHL1  H21B 8306   5.479   5.189   8.152 -0.6275  2.0378 -1.4739
   79CHL1  H21C 8307   5.597   5.175   8.276 -1.3394  1.9745  1.4533
   79CHL1   C22 8308   5.559   5.427   8.260  0.2774 -0.2683  0.6270
   79CHL1  H22A 8309   5.576   5.372   8.355 -1.3496  1.4237  1.9406
   79CHL1  H22B 8310   5.596   5.529   8.281 -2.7134  1.2619 -0.9011
   79CHL1   C23 8311   5.406   5.442   8.243  0.1933  0.4438  0.0293
   79CHL1  H23A 8312   5.381   5.489   8.146 -0.3718 -0.5538 -0.3228
   79CHL1  H23B 8313   5.352   5.346   8.260  0.3499  0.7955  3.1598
   79CHL1   C24 8314   5.360   5.540   8.361  0.2522  0.5168 -0.1653
   79CHL1  H24A 8315   5.427   5.523   8.448  2.0235 -1.9043 -1.8275
   79CHL1  H24B 8316   5.382   5.644   8.331  0.5518  0.8666  1.1842
   79CHL1   C25 8317   5.213   5.520   8.394  0.5068 -0.2563 -0.6866
   79CHL1   H25 8318   5.194   5.415   8.426 -0.3100  0.4616  1.3189
   79CHL1   C26 8319   5.166   5.604   8.511 -0.2989  0.3173 -0.2988
   79CHL1  H26A 8320   5.225   5.582   8.602  1.9612  1.9839 -1.2790
   79CHL1  H26B 8321   5.188   5.712   8.495 -0.5931  0.2013 -1.6845
   79CHL1  H26C 8322   5.063   5.568   8.533  0.4095 -2.5021 -1.2475
   79CHL1   C27 8323   5.130   5.555   8.271  0.9817 -0.1418  0.3343
   79CHL1  H27A 8324   5.031   5.597   8.298  1.2720  0.2343  0.8309
   79CHL1  H27B 8325   5.175   5.629   8.200  0.8533 -1.9279 -1.7169
   79CHL1  H27C 8326   5.103   5.466   8.210 -2.9593  1.4649 -0.5207
   80CHL1    C3 8327   6.143   2.318   7.192  0.4188  1.3310 -0.8358
   80CHL1    H3 8328   6.052   2.374   7.221 -2.2962 -3.4111  0.8515
   80CHL1    O3 8329   6.156   2.304   7.049 -0.0152 -0.0507  0.9432
   80CHL1   H3' 8330   6.079   2.252   7.025 -2.1311  2.9971  0.5577
   80CHL1    C4 8331   6.280   2.377   7.244 -0.7287 -0.1083 -0.3302
   80CHL1   H4A 8332   6.361   2.309   7.211 -0.5148 -0.4369  0.8536
   80CHL1   H4B 8333   6.290   2.473   7.188 -2.2844 -0.7146 -1.7634
   80CHL1    C5 8334   6.268   2.397   7.397 -0.1245 -0.1119 -0.4247
   80CHL1    C6 8335   6.289   2.520   7.453  0.0106  0.1850  0.1125
   80CHL1    H6 8336   6.308   2.602   7.383  4.8429 -0.4596  0.3021
   80CHL1    C7 8337   6.284   2.537   7.596  0.7923  0.1320  0.6458
   80CHL1   H7A 8338   6.361   2.615   7.618  1.7437 -0.3320 -0.8336
   80CHL1   H7B 8339   6.180   2.569   7.617  0.7102 -1.7918  3.6008
   80CHL1    C8 8340   6.301   2.408   7.689 -0.0254  0.6998  0.9192
   80CHL1    H8 8341   6.407   2.379   7.674  0.5099  1.2559  3.2011
   80CHL1   C14 8342   6.264   2.438   7.827 -1.1555 -0.3678  0.0977
   80CHL1   H14 8343   6.160   2.477   7.831 -0.4650  1.4711  1.5785
   80CHL1   C15 8344   6.347   2.545   7.891  0.6985  0.1295  0.6563
   80CHL1  H15A 8345   6.454   2.525   7.869  0.4945  0.7373 -1.0704
   80CHL1  H15B 8346   6.322   2.649   7.858 -0.9433  0.0487  1.5342
   80CHL1   C16 8347   6.317   2.520   8.043 -0.1573  0.4845  0.2130
   80CHL1  H16A 8348   6.417   2.519   8.092  0.3684  0.0681 -0.8472
   80CHL1  H16B 8349   6.248   2.600   8.077 -1.6478 -0.6288 -0.0478
   80CHL1   C17 8350   6.242   2.390   8.053 -0.1289 -0.4456 -0.9337
   80CHL1   H17 8351   6.133   2.406   8.055  0.0591  1.1351 -1.8617
   80CHL1   C13 8352   6.267   2.321   7.924 -0.3108 -0.4792  0.1147
   80CHL1   C18 8353   6.413   2.258   7.928 -0.1972 -0.0776 -0.2586
   80CHL1  H18A 8354   6.417   2.162   7.982 -1.1013 -0.1738 -0.3581
   80CHL1  H18B 8355   6.447   2.245   7.823 -1.4266  2.1034 -1.0034
   80CHL1  H18C 8356   6.489   2.324   7.976 -0.4882 -0.8574  1.3038
   80CHL1   C12 8357   6.176   2.208   7.875  0.6478  1.0046 -1.1513
   80CHL1  H12A 8358   6.193   2.118   7.937 -1.3790  0.7638 -0.8915
   80CHL1  H12B 8359   6.070   2.241   7.870  0.3496 -0.0627 -4.5399
   80CHL1   C11 8360   6.207   2.168   7.731  0.5201 -0.3512  0.2511
   80CHL1  H11A 8361   6.306   2.116   7.726  1.2883  0.8855  1.6633
   80CHL1  H11B 8362   6.128   2.102   7.689  0.7665 -0.0702 -0.6887
   80CHL1    C9 8363   6.208   2.298   7.634 -0.0695 -0.4010  0.1180
   80CHL1    H9 8364   6.103   2.333   7.640 -0.5633 -2.0681  2.5835
   80CHL1   C10 8365   6.232   2.274   7.478 -0.7628 -0.1316 -0.5034
   80CHL1   C19 8366   6.355   2.183   7.467  0.0336 -1.1055 -0.3540
   80CHL1  H19A 8367   6.432   2.224   7.536 -0.8894 -1.2402  0.7757
   80CHL1  H19B 8368   6.335   2.077   7.495  0.4618 -1.0342  0.2343
   80CHL1  H19C 8369   6.404   2.191   7.368  0.1277  2.8461 -0.1167
   80CHL1    C1 8370   6.119   2.197   7.414  0.8041 -0.1946 -0.8609
   80CHL1   H1A 8371   6.107   2.091   7.447 -2.0491  0.7459  1.5424
   80CHL1   H1B 8372   6.021   2.241   7.441  0.8392 -0.1591 -0.7906
   80CHL1    C2 8373   6.124   2.184   7.264 -0.1024 -0.4681  0.7280
   80CHL1   H2A 8374   6.037   2.128   7.224 -0.2544 -0.2370  0.7392
   80CHL1   H2B 8375   6.213   2.124   7.236  1.4263  1.8390  0.3761
   80CHL1   C20 8376   6.273   2.315   8.190 -0.4462  0.2607 -0.5906
   80CHL1   H20 8377   6.362   2.249   8.183 -0.4374  0.1290  0.5514
   80CHL1   C21 8378   6.150   2.229   8.232 -0.4710 -0.8525  0.0804
   80CHL1  H21A 8379   6.067   2.297   8.259 -1.2667 -0.9031 -2.0024
   80CHL1  H21B 8380   6.169   2.160   8.317  0.0570  0.1873  0.8238
   80CHL1  H21C 8381   6.123   2.179   8.136  1.1884 -1.6080 -0.0293
   80CHL1   C22 8382   6.304   2.427   8.301  0.1708 -0.1467  0.3332
   80CHL1  H22A 8383   6.393   2.491   8.282  0.2691 -0.7128 -1.2784
   80CHL1  H22B 8384   6.220   2.500   8.291  0.2486 -0.1448 -0.3676
   80CHL1   C23 8385   6.307   2.384   8.445  0.0690 -0.2086 -0.2949
   80CHL1  H23A 8386   6.315   2.467   8.518  0.7656 -0.2879 -0.2678
   80CHL1  H23B 8387   6.208   2.356   8.486 -0.4988  2.0156 -0.0520
   80CHL1   C24 8388   6.411   2.278   8.482  0.3713  0.1264 -0.0168
   80CHL1  H24A 8389   6.384   2.193   8.416 -0.9500  2.1430 -2.2079
   80CHL1  H24B 8390   6.512   2.303   8.444  0.9358 -2.4772 -0.3975
   80CHL1   C25 8391   6.411   2.239   8.629  0.1824  0.4534 -0.0410
   80CHL1   H25 8392   6.312   2.192   8.648  0.1696  0.1424 -0.8097
   80CHL1   C26 8393   6.508   2.123   8.658 -0.1006 -0.0596 -0.3678
   80CHL1  H26A 8394   6.486   2.086   8.760 -0.3329  0.6818 -0.1433
   80CHL1  H26B 8395   6.502   2.046   8.579  2.8677  0.2946 -1.0642
   80CHL1  H26C 8396   6.610   2.167   8.652 -1.2777  2.7518 -1.2050
   80CHL1   C27 8397   6.426   2.351   8.729  0.3562 -0.1604  0.4076
   80CHL1  H27A 8398   6.500   2.428   8.700 -2.0906  1.1323 -3.0679
   80CHL1  H27B 8399   6.330   2.405   8.743 -0.1510 -1.2346  1.2532
   80CHL1  H27C 8400   6.440   2.301   8.827 -2.1304 -3.5060 -0.7721
   81CHL1    C3 8401   3.714   2.652   6.830  0.0503 -0.5680 -0.0243
   81CHL1    H3 8402   3.708   2.761   6.848 -0.0005 -0.3774 -1.1346
   81CHL1    O3 8403   3.714   2.656   6.692  0.1481  0.4336  0.3823
   81CHL1   H3' 8404   3.679   2.570   6.666 -1.8104  0.9944  1.0440
   81CHL1    C4 8405   3.838   2.578   6.884 -0.1458  0.6609 -0.0771
   81CHL1   H4A 8406   3.841   2.467   6.875  2.2316  0.3118  3.2221
   81CHL1   H4B 8407   3.925   2.613   6.823 -1.6105  0.3403 -2.4956
   81CHL1    C5 8408   3.844   2.596   7.031  0.1946  0.0349 -0.3023
   81CHL1    C6 8409   3.946   2.657   7.088 -0.2598 -0.3237 -0.5163
   81CHL1    H6 8410   4.031   2.690   7.026  1.5277 -2.9255  0.3924
   81CHL1    C7 8411   3.948   2.676   7.237  0.2771 -0.4252  0.1029
   81CHL1   H7A 8412   4.055   2.656   7.260  1.0734  0.8258 -2.1847
   81CHL1   H7B 8413   3.934   2.783   7.262 -0.1052 -0.2831 -0.6871
   81CHL1    C8 8414   3.847   2.587   7.315 -0.3438  0.1148  0.2351
   81CHL1    H8 8415   3.899   2.489   7.317 -0.4074  0.0608 -0.6759
   81CHL1   C14 8416   3.854   2.640   7.459 -0.8223  0.1528  0.3524
   81CHL1   H14 8417   3.813   2.743   7.461 -1.3555 -0.0490  1.9342
   81CHL1   C15 8418   3.989   2.649   7.532  0.4425  0.8252  1.0167
   81CHL1  H15A 8419   4.063   2.573   7.500 -0.4717  0.7751 -1.1505
   81CHL1  H15B 8420   4.024   2.752   7.509  0.6716  0.6691  0.6497
   81CHL1   C16 8421   3.946   2.628   7.685 -0.7856  0.6839  0.3763
   81CHL1  H16A 8422   3.999   2.535   7.713  1.4660  2.4622  2.4285
   81CHL1  H16B 8423   3.981   2.715   7.744 -1.5482  1.5014 -0.3333
   81CHL1   C17 8424   3.787   2.635   7.687 -0.1522  0.1007  0.4282
   81CHL1   H17 8425   3.764   2.743   7.680 -0.6302  0.0577  1.2801
   81CHL1   C13 8426   3.755   2.570   7.551 -0.8305  0.1126 -0.4719
   81CHL1   C18 8427   3.783   2.421   7.562 -0.1578  0.0345  0.4277
   81CHL1  H18A 8428   3.724   2.369   7.640  0.3876  1.3617  1.7567
   81CHL1  H18B 8429   3.776   2.366   7.466 -0.7780  1.3790 -0.3256
   81CHL1  H18C 8430   3.888   2.409   7.598 -0.9058  0.8846  3.0712
   81CHL1   C12 8431   3.609   2.590   7.487  0.3686 -0.2584 -0.4855
   81CHL1  H12A 8432   3.538   2.528   7.546 -0.6109  1.0626 -0.2475
   81CHL1  H12B 8433   3.587   2.699   7.485 -0.9263 -0.5200 -1.7911
   81CHL1   C11 8434   3.598   2.540   7.340 -0.4348  0.0177  0.7526
   81CHL1  H11A 8435   3.605   2.429   7.335  2.0456  0.1988 -1.8280
   81CHL1  H11B 8436   3.494   2.562   7.307 -0.7880 -0.4411  1.5264
   81CHL1    C9 8437   3.711   2.593   7.250  0.8484 -0.6145  0.5851
   81CHL1    H9 8438   3.694   2.702   7.242 -0.5780 -0.9128 -0.7066
   81CHL1   C10 8439   3.710   2.548   7.098  0.3299  0.2229 -0.3870
   81CHL1   C19 8440   3.704   2.391   7.110 -0.4065  0.9828 -0.0984
   81CHL1  H19A 8441   3.729   2.337   7.016  0.3158  0.7586  0.2187
   81CHL1  H19B 8442   3.785   2.379   7.184 -1.8315 -0.1289  1.3457
   81CHL1  H19C 8443   3.607   2.350   7.145 -0.6035  0.6260 -1.0283
   81CHL1    C1 8444   3.584   2.590   7.033 -0.1648 -0.0358  0.2649
   81CHL1   H1A 8445   3.507   2.531   7.088  0.1769  1.1372  2.0932
   81CHL1   H1B 8446   3.578   2.695   7.069  1.0604  1.0110 -2.3843
   81CHL1    C2 8447   3.594   2.585   6.878  1.0108 -0.0101 -0.3085
   81CHL1   H2A 8448   3.499   2.632   6.845  0.6612  1.7141  2.8068
   81CHL1   H2B 8449   3.586   2.478   6.850 -2.6427 -0.2145  1.0633
   81CHL1   C20 8450   3.725   2.580   7.813  0.1956  0.1388  0.2978
   81CHL1   H20 8451   3.703   2.472   7.808  0.8253  0.0465 -0.7412
   81CHL1   C21 8452   3.582   2.638   7.822 -0.2917 -0.0210 -0.2690
   81CHL1  H21A 8453   3.539   2.605   7.919  2.2073  0.3036  1.0304
   81CHL1  H21B 8454   3.524   2.580   7.748  0.3564  0.5896 -1.2768
   81CHL1  H21C 8455   3.569   2.748   7.810  0.2642  0.0865  0.0557
   81CHL1   C22 8456   3.807   2.602   7.939 -0.2332 -0.0949 -0.0190
   81CHL1  H22A 8457   3.892   2.532   7.932 -0.2294 -0.0759 -0.1890
   81CHL1  H22B 8458   3.848   2.706   7.943  1.3818 -0.7520  1.4561
   81CHL1   C23 8459   3.734   2.582   8.080  0.1011  0.6542  0.5045
   81CHL1  H23A 8460   3.660   2.666   8.079 -0.2363  0.4035  2.3482
   81CHL1  H23B 8461   3.667   2.494   8.076  0.1225  0.6605 -0.1271
   81CHL1   C24 8462   3.822   2.592   8.205  0.3966 -0.3720  0.1133
   81CHL1  H24A 8463   3.888   2.503   8.199 -0.4521 -1.1442  1.8022
   81CHL1  H24B 8464   3.873   2.691   8.199  1.2501 -0.8145 -0.0655
   81CHL1   C25 8465   3.755   2.567   8.346 -0.2932 -0.0376 -0.8773
   81CHL1   H25 8466   3.692   2.477   8.327  1.3363 -1.0356 -1.7716
   81CHL1   C26 8467   3.856   2.548   8.455 -0.0993 -0.5639 -0.1763
   81CHL1  H26A 8468   3.814   2.524   8.555  1.1556 -0.6063  0.3632
   81CHL1  H26B 8469   3.922   2.466   8.416 -0.8205 -0.0795 -2.6022
   81CHL1  H26C 8470   3.913   2.642   8.471 -2.6923  0.6935  2.3062
   81CHL1   C27 8471   3.657   2.679   8.392 -0.2185  0.5207 -0.2418
   81CHL1  H27A 8472   3.719   2.771   8.382  2.0165 -0.6221  1.8482
   81CHL1  H27B 8473   3.580   2.692   8.314 -1.3342  0.0911  0.7544
   81CHL1  H27C 8474   3.621   2.666   8.497  3.9578 -0.4649  1.2954
   82CHL1    C3 8475   5.250   2.676   6.968  0.2672  0.0706 -0.6595
   82CHL1    H3 8476   5.154   2.723   6.937  1.2953  1.9636 -1.0917
   82CHL1    O3 8477   5.324   2.676   6.850  0.0184 -0.2326  0.2519
   82CHL1   H3' 8478   5.295   2.761   6.815 -3.2356 -0.1932  2.6244
   82CHL1    C4 8479   5.316   2.754   7.081 -0.8527  0.3841 -0.5216
   82CHL1   H4A 8480   5.408   2.694   7.097 -0.3697  1.8349  2.9053
   82CHL1   H4B 8481   5.340   2.852   7.034 -0.0257  0.7551  0.6312
   82CHL1    C5 8482   5.239   2.765   7.206 -0.2097  0.1551  0.3193
   82CHL1    C6 8483   5.209   2.887   7.264 -0.9331  0.2324  0.1191
   82CHL1    H6 8484   5.252   2.983   7.231 -2.1890  1.7516  2.5791
   82CHL1    C7 8485   5.133   2.889   7.389  0.2479 -0.0786 -0.4210
   82CHL1   H7A 8486   5.172   2.971   7.453 -1.2595  0.4144 -0.0852
   82CHL1   H7B 8487   5.026   2.912   7.368 -0.0933  0.2925  1.4657
   82CHL1    C8 8488   5.126   2.760   7.475 -0.5058  0.2854 -0.1851
   82CHL1    H8 8489   5.223   2.741   7.524 -0.8938  2.1849  1.4546
   82CHL1   C14 8490   5.009   2.770   7.578 -0.4969 -0.3873  0.0343
   82CHL1   H14 8491   4.916   2.777   7.518  0.1215 -0.1877 -0.9361
   82CHL1   C15 8492   5.014   2.898   7.670  0.0427 -0.1880  0.5614
   82CHL1  H15A 8493   5.121   2.917   7.694  0.6240 -2.6063  0.1123
   82CHL1  H15B 8494   4.967   2.976   7.607  1.4650 -0.3744 -0.8036
   82CHL1   C16 8495   4.936   2.862   7.794  0.4007 -0.0411  0.4323
   82CHL1  H16A 8496   5.008   2.873   7.878  0.4152  0.2910  0.3792
   82CHL1  H16B 8497   4.842   2.920   7.809  0.9694  0.6883  1.2270
   82CHL1   C17 8498   4.900   2.709   7.782 -0.0108 -0.5514  0.0797
   82CHL1   H17 8499   4.801   2.712   7.730  0.4160  2.6526 -0.7980
   82CHL1   C13 8500   5.001   2.651   7.672 -0.3746 -0.4314  0.0143
   82CHL1   C18 8501   5.126   2.615   7.746  0.2526  0.0601  0.0240
   82CHL1  H18A 8502   5.100   2.540   7.824 -0.1574 -0.9938 -1.0839
   82CHL1  H18B 8503   5.209   2.567   7.689 -0.0577 -1.8419  1.0973
   82CHL1  H18C 8504   5.177   2.706   7.783  1.4843 -0.7207  0.3009
   82CHL1   C12 8505   4.963   2.529   7.581  0.0689  0.3354  0.0014
   82CHL1  H12A 8506   4.960   2.438   7.645 -0.4342  0.5494  0.2857
   82CHL1  H12B 8507   4.863   2.543   7.535  0.7183 -0.3106 -1.6960
   82CHL1   C11 8508   5.062   2.513   7.459  0.1033 -0.0284 -0.5056
   82CHL1  H11A 8509   5.156   2.473   7.503 -0.1374 -1.5103 -1.2545
   82CHL1  H11B 8510   5.016   2.442   7.387  0.2330 -3.6315  2.6544
   82CHL1    C9 8511   5.093   2.645   7.380 -0.2095 -0.3471  0.1705
   82CHL1    H9 8512   4.993   2.669   7.340 -0.1891 -1.1520 -0.3771
   82CHL1   C10 8513   5.187   2.631   7.259  1.4611 -0.8608  0.5133
   82CHL1   C19 8514   5.312   2.558   7.307 -0.5098 -0.3560 -0.2776
   82CHL1  H19A 8515   5.286   2.462   7.356 -0.3046  0.0089  0.5511
   82CHL1  H19B 8516   5.387   2.539   7.226 -0.4231 -0.2859 -0.2139
   82CHL1  H19C 8517   5.368   2.618   7.381  0.4995 -0.9799 -0.5136
   82CHL1    C1 8518   5.128   2.543   7.141  0.0728 -0.8504  0.1005
   82CHL1   H1A 8519   5.111   2.438   7.173 -2.6416 -0.7207 -0.6750
   82CHL1   H1B 8520   5.025   2.582   7.122  0.3809  1.4350  2.4813
   82CHL1    C2 8521   5.207   2.535   7.014 -0.1526 -0.3117  0.4580
   82CHL1   H2A 8522   5.142   2.482   6.940  1.0972 -0.9068 -0.2418
   82CHL1   H2B 8523   5.290   2.464   7.032  0.0474 -0.4108 -0.7912
   82CHL1   C20 8524   4.874   2.620   7.902  0.2542 -1.1138 -0.2243
   82CHL1   H20 8525   4.969   2.614   7.959  0.6548 -0.4747 -0.8160
   82CHL1   C21 8526   4.824   2.477   7.876  0.5996 -0.9457  0.0726
   82CHL1  H21A 8527   4.754   2.487   7.790 -1.3301  2.3469  1.8098
   82CHL1  H21B 8528   4.767   2.437   7.962  0.7204  0.5256  0.8534
   82CHL1  H21C 8529   4.905   2.404   7.852  0.3730 -1.3619  0.5443
   82CHL1   C22 8530   4.782   2.692   8.007  0.5330 -0.2954 -0.1192
   82CHL1  H22A 8531   4.802   2.802   8.010  0.1870 -0.2079 -0.8089
   82CHL1  H22B 8532   4.680   2.668   7.972 -0.6371  1.4421  1.8826
   82CHL1   C23 8533   4.783   2.639   8.157  0.3380  0.3118  0.9048
   82CHL1  H23A 8534   4.772   2.532   8.131  0.2610  0.8452 -1.4958
   82CHL1  H23B 8535   4.883   2.651   8.204  0.8629 -3.1652  0.9772
   82CHL1   C24 8536   4.671   2.699   8.246  0.4414 -0.1314  0.5113
   82CHL1  H24A 8537   4.681   2.809   8.263 -0.6633 -0.2667  2.3987
   82CHL1  H24B 8538   4.577   2.678   8.191  1.1587 -0.0904 -0.7639
   82CHL1   C25 8539   4.664   2.629   8.382  0.2392  0.0213  0.3291
   82CHL1   H25 8540   4.766   2.619   8.426  0.3613  0.5334  0.1630
   82CHL1   C26 8541   4.597   2.710   8.491 -0.1106 -0.4353  0.2969
   82CHL1  H26A 8542   4.498   2.748   8.459  0.4161 -0.0004 -0.8664
   82CHL1  H26B 8543   4.588   2.654   8.587  2.6525  1.5900  1.9176
   82CHL1  H26C 8544   4.657   2.804   8.502  0.1643 -0.6109  0.3063
   82CHL1   C27 8545   4.600   2.486   8.377  0.2335  0.1420 -0.1582
   82CHL1  H27A 8546   4.496   2.491   8.339  0.2136 -0.1898 -0.1480
   82CHL1  H27B 8547   4.651   2.414   8.309  1.1539  1.3161 -0.7462
   82CHL1  H27C 8548   4.601   2.441   8.479  0.6603  2.3637  0.8901
   83CHL1    C3 8549   5.660   4.407   6.982  0.1894 -0.2028  0.2445
   83CHL1    H3 8550   5.566   4.426   7.039  0.1913 -3.0009  1.3781
   83CHL1    O3 8551   5.627   4.379   6.847 -0.2413 -0.5015  0.3930
   83CHL1   H3' 8552   5.710   4.374   6.799 -0.1848 -5.2398  0.5664
   83CHL1    C4 8553   5.744   4.536   6.995  0.2637 -0.0151  0.3933
   83CHL1   H4A 8554   5.838   4.521   6.938  0.2849  0.3301  0.3361
   83CHL1   H4B 8555   5.687   4.623   6.957  1.8060  1.6191  1.6460
   83CHL1    C5 8556   5.779   4.567   7.146  0.4659 -0.2680 -0.2772
   83CHL1    C6 8557   5.761   4.689   7.210  0.1196 -0.2193 -0.1752
   83CHL1    H6 8558   5.732   4.782   7.159 -0.9613 -0.3768  0.1417
   83CHL1    C7 8559   5.798   4.701   7.354 -0.9279  0.6079 -0.1796
   83CHL1   H7A 8560   5.853   4.797   7.358 -2.5124  1.5198  0.5671
   83CHL1   H7B 8561   5.696   4.703   7.398 -1.1414 -2.4015 -0.3104
   83CHL1    C8 8562   5.879   4.584   7.418  0.4054 -0.5405  0.7048
   83CHL1    H8 8563   5.986   4.603   7.393 -0.1657  2.3179  0.1269
   83CHL1   C14 8564   5.861   4.610   7.572 -0.2123 -0.4214  0.7293
   83CHL1   H14 8565   5.758   4.579   7.602 -0.2465 -2.7548 -1.4358
   83CHL1   C15 8566   5.887   4.746   7.642 -0.0210  0.0356 -0.2168
   83CHL1  H15A 8567   5.970   4.804   7.596 -0.4303  2.5918  2.0067
   83CHL1  H15B 8568   5.792   4.804   7.651 -0.0285  0.1049 -0.6875
   83CHL1   C16 8569   5.942   4.711   7.784  0.4549 -0.1295 -0.5594
   83CHL1  H16A 8570   6.045   4.747   7.804  0.0118  1.3676 -0.8335
   83CHL1  H16B 8571   5.869   4.760   7.852 -0.2466  0.1144 -1.4746
   83CHL1   C17 8572   5.926   4.558   7.794 -0.2341 -0.2720  0.2189
   83CHL1   H17 8573   5.819   4.536   7.817 -0.2908 -1.1735 -0.8368
   83CHL1   C13 8574   5.944   4.508   7.647  0.1550  0.2754  0.4473
   83CHL1   C18 8575   6.089   4.511   7.608  0.6445  0.2895  0.3404
   83CHL1  H18A 8576   6.141   4.601   7.648 -1.6348  0.2420  3.8470
   83CHL1  H18B 8577   6.140   4.422   7.650 -0.2404 -0.9796 -1.1384
   83CHL1  H18C 8578   6.106   4.496   7.499 -3.6173  1.2362 -0.6473
   83CHL1   C12 8579   5.892   4.367   7.599  0.1823 -0.2668 -0.2180
   83CHL1  H12A 8580   5.951   4.286   7.647  0.9508  0.9843  1.0329
   83CHL1  H12B 8581   5.790   4.351   7.640  0.6271 -0.8703  0.6914
   83CHL1   C11 8582   5.904   4.335   7.448  0.2338 -0.1953  0.1756
   83CHL1  H11A 8583   6.007   4.311   7.416  0.1590 -1.1605  0.6190
   83CHL1  H11B 8584   5.848   4.240   7.434  0.8284 -0.3640 -1.1911
   83CHL1    C9 8585   5.831   4.443   7.370 -0.2388 -0.5567 -0.5284
   83CHL1    H9 8586   5.729   4.434   7.413 -0.3467 -1.9869 -1.0338
   83CHL1   C10 8587   5.835   4.437   7.218  0.6637 -1.1692  0.3398
   83CHL1   C19 8588   5.977   4.420   7.170  0.2239  0.6140  0.2938
   83CHL1  H19A 8589   6.031   4.517   7.181  1.3315 -0.0984  1.3944
   83CHL1  H19B 8590   6.024   4.337   7.227 -1.5581 -1.3526 -0.9467
   83CHL1  H19C 8591   5.974   4.394   7.062 -1.3231 -1.9589  0.8926
   83CHL1    C1 8592   5.756   4.303   7.189  0.4636  1.2520  0.4024
   83CHL1   H1A 8593   5.810   4.213   7.224 -0.4235 -0.1387 -1.5852
   83CHL1   H1B 8594   5.654   4.303   7.235 -0.3098 -1.4975 -1.1061
   83CHL1    C2 8595   5.723   4.280   7.039  0.5298 -0.3014  0.8234
   83CHL1   H2A 8596   5.665   4.187   7.021  1.4699 -0.5933 -0.9106
   83CHL1   H2B 8597   5.811   4.252   6.978 -1.3502 -1.1560 -1.6955
   83CHL1   C20 8598   6.018   4.502   7.899  0.4668 -0.0050  0.1028
   83CHL1   H20 8599   6.126   4.523   7.884  0.0905  2.5456  0.4486
   83CHL1   C21 8600   5.984   4.353   7.914 -0.0212  0.0738 -0.1102
   83CHL1  H21A 8601   5.993   4.291   7.822 -0.1630 -1.0708  0.6244
   83CHL1  H21B 8602   5.878   4.333   7.940  0.5181 -1.9480  0.7226
   83CHL1  H21C 8603   6.041   4.282   7.979  0.0018 -1.0801 -1.3292
   83CHL1   C22 8604   5.986   4.574   8.035  0.2688  0.5327 -0.6977
   83CHL1  H22A 8605   6.005   4.683   8.022  1.5124  0.2479 -1.4301
   83CHL1  H22B 8606   5.879   4.555   8.059  0.4113  0.5183 -0.0664
   83CHL1   C23 8607   6.058   4.521   8.163  0.1529 -0.3739 -0.1057
   83CHL1  H23A 8608   6.056   4.410   8.172  1.3093 -0.5562 -1.6515
   83CHL1  H23B 8609   6.167   4.527   8.140  0.4331 -1.0333  0.9473
   83CHL1   C24 8610   6.019   4.591   8.290  0.1153 -0.3613 -0.3570
   83CHL1  H24A 8611   6.078   4.685   8.297 -0.7828  0.0949  1.9682
   83CHL1  H24B 8612   5.913   4.621   8.302 -0.1911 -1.8165  0.8796
   83CHL1   C25 8613   6.046   4.503   8.408  0.0932  1.0876 -0.5230
   83CHL1   H25 8614   5.987   4.410   8.394  2.2167 -0.7849  1.9471
   83CHL1   C26 8615   6.198   4.465   8.415  0.4045  0.1926  0.0426
   83CHL1  H26A 8616   6.234   4.404   8.328 -2.9971 -1.7233 -0.1921
   83CHL1  H26B 8617   6.265   4.549   8.441  1.0427 -0.1829 -0.3395
   83CHL1  H26C 8618   6.211   4.390   8.496 -1.4186 -1.8139 -1.3795
   83CHL1   C27 8619   5.996   4.552   8.545  0.4312 -0.2271 -1.0141
   83CHL1  H27A 8620   5.894   4.596   8.538  0.5082  0.6087  1.7786
   83CHL1  H27B 8621   5.982   4.471   8.620  1.2474  0.7735  0.2581
   83CHL1  H27C 8622   6.063   4.634   8.580 -0.4582 -0.3916  1.2106
   84CHL1    C3 8623   1.366   1.182   6.775  0.4608 -0.1423 -0.3374
   84CHL1    H3 8624   1.459   1.175   6.835  0.6094  0.8912 -0.4166
   84CHL1    O3 8625   1.367   1.082   6.676  0.0379 -0.6443  0.2927
   84CHL1   H3' 8626   1.450   1.095   6.631 -0.5903  0.8564 -0.5266
   84CHL1    C4 8627   1.231   1.173   6.858 -0.0795  0.6005  0.3299
   84CHL1   H4A 8628   1.143   1.179   6.790  0.4611  3.4577 -0.2478
   84CHL1   H4B 8629   1.232   1.073   6.907 -2.0605  0.9437  1.1456
   84CHL1    C5 8630   1.227   1.277   6.963 -0.2502  0.4294 -0.1579
   84CHL1    C6 8631   1.213   1.237   7.090 -0.6971  0.1254 -0.1922
   84CHL1    H6 8632   1.189   1.133   7.117 -2.3725  0.2461 -1.0845
   84CHL1    C7 8633   1.203   1.346   7.192 -0.5162  0.0822  0.1559
   84CHL1   H7A 8634   1.123   1.322   7.267 -2.4223  0.1328 -1.7602
   84CHL1   H7B 8635   1.302   1.343   7.242 -0.9379  0.3469  1.0315
   84CHL1    C8 8636   1.176   1.490   7.141 -0.1525 -0.5561 -0.4760
   84CHL1    H8 8637   1.072   1.491   7.101 -0.2181 -0.3182 -0.2998
   84CHL1   C14 8638   1.183   1.597   7.250  0.4584  0.4274  0.8956
   84CHL1   H14 8639   1.287   1.600   7.288  0.7777 -1.9001  0.3580
   84CHL1   C15 8640   1.091   1.580   7.376  0.8701  0.2043  0.1889
   84CHL1  H15A 8641   0.991   1.546   7.345  0.5332  2.0155 -0.8347
   84CHL1  H15B 8642   1.139   1.517   7.454  3.5133  3.3971  1.4346
   84CHL1   C16 8643   1.086   1.723   7.439  0.2913  0.6783 -0.6763
   84CHL1  H16A 8644   0.982   1.762   7.442  0.6745  1.6683  0.5572
   84CHL1  H16B 8645   1.128   1.716   7.541 -1.2810 -2.3285 -0.1273
   84CHL1   C17 8646   1.167   1.819   7.340 -0.4770  0.1438  0.0521
   84CHL1   H17 8647   1.273   1.810   7.372  0.0311 -1.4791 -1.9317
   84CHL1   C13 8648   1.163   1.745   7.202 -0.3634  0.2945  0.3104
   84CHL1   C18 8649   1.024   1.764   7.142 -0.5223 -0.8554  0.1013
   84CHL1  H18A 8650   0.944   1.750   7.217 -1.0503  1.2262 -0.0153
   84CHL1  H18B 8651   1.018   1.872   7.115  1.5723 -0.9201 -0.7769
   84CHL1  H18C 8652   1.000   1.711   7.047  0.3450  2.0350 -1.8597
   84CHL1   C12 8653   1.277   1.771   7.102 -0.2506 -0.1431  0.1991
   84CHL1  H12A 8654   1.278   1.879   7.072  0.1504  1.4870  5.1736
   84CHL1  H12B 8655   1.377   1.756   7.147 -0.5566 -0.0499  0.9206
   84CHL1   C11 8656   1.265   1.675   6.983 -0.6739  0.4204  0.1066
   84CHL1  H11A 8657   1.168   1.686   6.929 -0.9900 -0.8635  0.3732
   84CHL1  H11B 8658   1.352   1.685   6.915 -1.0535  0.2094 -0.4184
   84CHL1    C9 8659   1.273   1.519   7.030  0.1509 -0.3194 -0.1090
   84CHL1    H9 8660   1.377   1.499   7.063 -0.0504 -0.7120  0.2949
   84CHL1   C10 8661   1.241   1.428   6.915  0.4726  0.5634 -0.0569
   84CHL1   C19 8662   1.099   1.449   6.851 -0.2942  0.7624  0.6891
   84CHL1  H19A 8663   1.011   1.438   6.918  0.3841 -2.3169  1.2389
   84CHL1  H19B 8664   1.093   1.549   6.803  1.0786 -0.1118 -1.4436
   84CHL1  H19C 8665   1.091   1.375   6.768 -0.9055  0.1952  1.2401
   84CHL1    C1 8666   1.351   1.439   6.806 -0.2472  0.5668 -0.1637
   84CHL1   H1A 8667   1.324   1.523   6.738 -2.8741  0.8140  1.0608
   84CHL1   H1B 8668   1.450   1.456   6.854  0.3880  1.4082 -1.6825
   84CHL1    C2 8669   1.372   1.318   6.704  0.2173 -0.5445 -0.1173
   84CHL1   H2A 8670   1.464   1.343   6.648 -0.8085  1.9618 -0.8358
   84CHL1   H2B 8671   1.283   1.329   6.639 -0.7755 -0.8054  1.1523
   84CHL1   C20 8672   1.124   1.965   7.346 -0.1108  0.6947  0.0779
   84CHL1   H20 8673   1.016   1.968   7.320  0.2408  3.5228 -1.4065
   84CHL1   C21 8674   1.199   2.054   7.248  0.5186 -0.2733 -0.4271
   84CHL1  H21A 8675   1.162   2.029   7.147  0.8320 -0.2440 -0.5525
   84CHL1  H21B 8676   1.308   2.035   7.258  0.6961  1.1767  0.7723
   84CHL1  H21C 8677   1.186   2.162   7.271 -0.3405 -0.0675 -1.7709
   84CHL1   C22 8678   1.150   2.011   7.489 -0.0620  0.5538  0.1901
   84CHL1  H22A 8679   1.097   1.947   7.562  0.0108 -0.3296 -0.5150
   84CHL1  H22B 8680   1.259   1.995   7.503 -0.3747 -1.5159  0.5425
   84CHL1   C23 8681   1.117   2.159   7.528  0.0834 -0.1277  0.4307
   84CHL1  H23A 8682   1.167   2.226   7.456  0.2191  1.8067  2.2274
   84CHL1  H23B 8683   1.010   2.168   7.497  0.8145 -1.1670 -2.7595
   84CHL1   C24 8684   1.168   2.204   7.663  0.9781 -0.2967 -0.1856
   84CHL1  H24A 8685   1.134   2.144   7.750 -0.3973  0.1561 -0.3886
   84CHL1  H24B 8686   1.279   2.192   7.667  0.9995  0.2344  1.2396
   84CHL1   C25 8687   1.146   2.351   7.694  0.0774  0.3895 -0.3673
   84CHL1   H25 8688   1.192   2.379   7.791 -1.4132  2.1099 -0.1075
   84CHL1   C26 8689   1.205   2.454   7.590  0.0582  0.8259 -0.0974
   84CHL1  H26A 8690   1.158   2.443   7.490  0.0670  1.4193 -0.1721
   84CHL1  H26B 8691   1.183   2.555   7.631 -2.5855 -0.3255  1.5681
   84CHL1  H26C 8692   1.315   2.444   7.576 -0.1723 -0.9040 -0.9963
   84CHL1   C27 8693   0.994   2.371   7.725  0.1361 -0.3445 -0.4827
   84CHL1  H27A 8694   0.928   2.368   7.636 -0.0716  0.4711 -0.3637
   84CHL1  H27B 8695   0.952   2.292   7.791  1.4610 -1.2693 -0.7149
   84CHL1  H27C 8696   0.977   2.470   7.773  0.7032 -1.2764  1.7691
   85CHL1    C3 8697   1.209   5.059   6.810 -0.0950  0.3735 -0.7526
   85CHL1    H3 8698   1.105   5.021   6.801 -0.3836  1.3594 -1.6537
   85CHL1    O3 8699   1.262   5.015   6.688  0.5156 -0.1135 -0.6290
   85CHL1   H3' 8700   1.211   5.054   6.616  0.6712 -1.6801 -1.6454
   85CHL1    C4 8701   1.211   5.212   6.832  0.1862  0.0431  0.3750
   85CHL1   H4A 8702   1.313   5.256   6.825  0.2473  0.0440  1.1672
   85CHL1   H4B 8703   1.153   5.257   6.749 -1.9053 -1.6642  0.7993
   85CHL1    C5 8704   1.164   5.258   6.967  0.2875 -0.0250  0.0733
   85CHL1    C6 8705   1.072   5.357   6.981 -0.1363  0.2288 -0.4945
   85CHL1    H6 8706   1.027   5.399   6.890 -1.1640  2.6054  1.0295
   85CHL1    C7 8707   1.022   5.415   7.105  0.0231  0.2854 -0.4927
   85CHL1   H7A 8708   1.012   5.524   7.089 -1.1061  0.2211 -0.3170
   85CHL1   H7B 8709   0.919   5.375   7.116  0.5384 -0.6227  1.6232
   85CHL1    C8 8710   1.110   5.371   7.226 -0.2062  0.7681 -0.1362
   85CHL1    H8 8711   1.204   5.429   7.232 -0.3600  1.0086 -0.0581
   85CHL1   C14 8712   1.032   5.389   7.355  0.2051 -0.2680  0.4325
   85CHL1   H14 8713   0.953   5.312   7.344  0.6764 -0.4250 -3.8361
   85CHL1   C15 8714   0.958   5.520   7.374  0.7202 -0.3539 -0.3444
   85CHL1  H15A 8715   1.030   5.604   7.357  0.1555 -0.2558 -2.6753
   85CHL1  H15B 8716   0.869   5.559   7.318 -1.2859 -0.2509  2.6910
   85CHL1   C16 8717   0.916   5.521   7.528 -0.3662  0.0903 -0.6295
   85CHL1  H16A 8718   0.963   5.612   7.571 -0.0548  0.5105 -1.8388
   85CHL1  H16B 8719   0.808   5.527   7.556 -0.0666  1.4135  0.3431
   85CHL1   C17 8720   0.985   5.395   7.584 -0.3412 -0.2092  0.3243
   85CHL1   H17 8721   0.917   5.307   7.575 -0.9304  0.4636 -2.4886
   85CHL1   C13 8722   1.097   5.358   7.486  0.5288 -0.0055 -0.1479
   85CHL1   C18 8723   1.217   5.457   7.504 -0.2917 -0.3401 -0.6092
   85CHL1  H18A 8724   1.175   5.559   7.510 -0.1265 -0.2742 -0.5779
   85CHL1  H18B 8725   1.271   5.419   7.593 -1.7515 -1.2103 -0.0441
   85CHL1  H18C 8726   1.289   5.440   7.422  1.0458  1.8685  0.0291
   85CHL1   C12 8727   1.141   5.210   7.477  0.2756 -0.5476 -0.0156
   85CHL1  H12A 8728   1.203   5.179   7.563  0.9533  0.6576 -0.0479
   85CHL1  H12B 8729   1.061   5.134   7.466  0.5022 -0.8661  0.5095
   85CHL1   C11 8730   1.221   5.180   7.345  0.1173 -0.1572 -0.2686
   85CHL1  H11A 8731   1.318   5.234   7.348  0.4798 -0.6436 -1.9873
   85CHL1  H11B 8732   1.245   5.072   7.333 -1.1948 -0.4527 -0.4016
   85CHL1    C9 8733   1.151   5.221   7.214  0.1323 -0.2860  0.0590
   85CHL1    H9 8734   1.058   5.160   7.213 -0.2301  0.2153  1.3032
   85CHL1   C10 8735   1.234   5.192   7.087 -0.5858  0.2449 -0.4512
   85CHL1   C19 8736   1.381   5.244   7.092 -0.0512  0.4680 -0.7670
   85CHL1  H19A 8737   1.443   5.181   7.160 -0.8232  0.3742 -0.1353
   85CHL1  H19B 8738   1.425   5.259   6.991  0.2390  3.7617 -0.2701
   85CHL1  H19C 8739   1.376   5.345   7.139  0.3605 -0.3522  1.1533
   85CHL1    C1 8740   1.236   5.036   7.066 -0.5768 -0.0876  0.7432
   85CHL1   H1A 8741   1.296   4.978   7.139  0.1870  0.5460  0.6246
   85CHL1   H1B 8742   1.130   5.008   7.082 -1.4168 -0.0825 -3.4993
   85CHL1    C2 8743   1.290   4.998   6.929 -0.2392  0.4911  0.3026
   85CHL1   H2A 8744   1.294   4.887   6.923  0.9218  0.5355 -0.1278
   85CHL1   H2B 8745   1.393   5.038   6.913  0.0756 -0.0199  0.9981
   85CHL1   C20 8746   1.030   5.405   7.730  0.1749  0.0574  0.8132
   85CHL1   H20 8747   1.093   5.495   7.747  1.7344 -0.8539  0.0343
   85CHL1   C21 8748   1.111   5.288   7.779  0.6689 -0.8354  0.0186
   85CHL1  H21A 8749   1.110   5.306   7.889 -2.6503  2.8171 -0.3975
   85CHL1  H21B 8750   1.217   5.303   7.750  0.0669  1.7709 -1.1002
   85CHL1  H21C 8751   1.067   5.188   7.760 -2.8176  0.3630  1.0101
   85CHL1   C22 8752   0.908   5.431   7.817  0.8260 -0.1155  0.0639
   85CHL1  H22A 8753   0.837   5.501   7.769 -0.2062 -0.5490  0.9135
   85CHL1  H22B 8754   0.847   5.339   7.829 -0.3729  0.2910 -2.3938
   85CHL1   C23 8755   0.931   5.491   7.958 -0.0782  0.0091 -0.2211
   85CHL1  H23A 8756   0.955   5.409   8.029  3.0136  1.8218  1.0662
   85CHL1  H23B 8757   1.028   5.546   7.961  0.8344 -1.5223 -0.5149
   85CHL1   C24 8758   0.830   5.586   8.012  0.9289 -0.4567  0.4244
   85CHL1  H24A 8759   0.835   5.682   7.957 -1.6029 -0.7887 -0.5235
   85CHL1  H24B 8760   0.735   5.535   7.986  2.7209 -2.8628 -1.9516
   85CHL1   C25 8761   0.835   5.615   8.164 -0.6304 -0.1817  0.3315
   85CHL1   H25 8762   0.757   5.690   8.189  0.5039  1.3862 -0.6370
   85CHL1   C26 8763   0.810   5.490   8.249 -0.1666  0.6548 -0.1207
   85CHL1  H26A 8764   0.800   5.534   8.350 -0.4510  0.3782 -0.0244
   85CHL1  H26B 8765   0.716   5.442   8.212  0.4598 -0.5221 -0.2429
   85CHL1  H26C 8766   0.882   5.406   8.260 -0.5995  0.3900  0.8147
   85CHL1   C27 8767   0.970   5.680   8.201 -0.4081 -0.2996  0.0443
   85CHL1  H27A 8768   0.990   5.781   8.160  2.9431 -1.5279 -1.6841
   85CHL1  H27B 8769   0.974   5.693   8.311  1.1838 -0.4578  0.0305
   85CHL1  H27C 8770   1.058   5.619   8.173 -0.4816  0.0204 -0.9185
   86CHL1    C3 8771   3.741   2.997   7.038 -0.4185 -0.0536 -0.6319
   86CHL1    H3 8772   3.772   2.896   7.074  1.3489  0.7455  0.2240
   86CHL1    O3 8773   3.799   3.022   6.911  0.3537 -0.1049 -0.2537
   86CHL1   H3' 8774   3.772   3.111   6.888 -3.5427 -1.5159 -1.8926
   86CHL1    C4 8775   3.589   3.010   7.035 -0.5360  0.1222 -0.9264
   86CHL1   H4A 8776   3.586   3.115   6.998  1.9627  1.2836  1.8163
   86CHL1   H4B 8777   3.540   2.952   6.953 -0.4076  0.6072 -1.3494
   86CHL1    C5 8778   3.513   2.995   7.165 -0.3219  0.4187  0.1641
   86CHL1    C6 8779   3.409   2.908   7.170  0.7591 -0.0779 -0.3199
   86CHL1    H6 8780   3.377   2.852   7.082 -3.2190  0.6228  0.4806
   86CHL1    C7 8781   3.335   2.896   7.299  0.3616 -0.8774 -0.2482
   86CHL1   H7A 8782   3.229   2.924   7.279  0.3782 -1.4830 -1.2539
   86CHL1   H7B 8783   3.350   2.790   7.330 -1.3471 -1.0124  0.2163
   86CHL1    C8 8784   3.372   2.991   7.421  0.8950 -0.2531  0.6534
   86CHL1    H8 8785   3.322   3.087   7.398  3.6964  1.6748  2.0161
   86CHL1   C14 8786   3.334   2.931   7.557 -0.3556  0.3821  0.1411
   86CHL1   H14 8787   3.389   2.835   7.571 -1.4595 -0.2661  0.1107
   86CHL1   C15 8788   3.192   2.884   7.587  0.0006  0.8522  0.5392
   86CHL1  H15A 8789   3.114   2.951   7.545 -1.8119 -0.3583  1.8273
   86CHL1  H15B 8790   3.167   2.785   7.544  3.5579  0.1316 -0.2097
   86CHL1   C16 8791   3.179   2.877   7.739 -0.9399 -0.1585  0.2322
   86CHL1  H16A 8792   3.102   2.954   7.758 -1.8279 -0.4933 -1.8742
   86CHL1  H16B 8793   3.156   2.780   7.788  2.8466 -0.4150  1.9045
   86CHL1   C17 8794   3.311   2.936   7.796  0.3630 -0.2797  0.0039
   86CHL1   H17 8795   3.384   2.855   7.815  1.3361  0.4359 -0.5787
   86CHL1   C13 8796   3.366   3.023   7.683  0.1051 -0.7096  0.6113
   86CHL1   C18 8797   3.288   3.159   7.664 -0.2753 -0.7395 -0.8818
   86CHL1  H18A 8798   3.178   3.142   7.668 -0.2459 -1.3524 -1.9603
   86CHL1  H18B 8799   3.310   3.234   7.742 -0.5301 -0.4207 -1.1102
   86CHL1  H18C 8800   3.303   3.217   7.570 -2.1087  0.5542 -0.4295
   86CHL1   C12 8801   3.522   3.046   7.681  0.7848 -0.2624  0.1454
   86CHL1  H12A 8802   3.555   3.113   7.763 -1.7131 -1.7019  2.5107
   86CHL1  H12B 8803   3.579   2.951   7.686 -1.9296 -2.0845 -1.1986
   86CHL1   C11 8804   3.567   3.098   7.540  0.1702 -0.4004 -0.0753
   86CHL1  H11A 8805   3.525   3.200   7.527 -1.0767 -0.7754  0.7978
   86CHL1  H11B 8806   3.677   3.116   7.539  0.2968 -1.1556 -0.4641
   86CHL1    C9 8807   3.525   3.014   7.424  0.6056  0.6181  0.2289
   86CHL1    H9 8808   3.581   2.920   7.441  1.2875  0.7162 -1.3187
   86CHL1   C10 8809   3.574   3.067   7.287 -0.5074  0.4363  0.6535
   86CHL1   C19 8810   3.529   3.211   7.270 -0.1330 -0.1850 -0.1822
   86CHL1  H19A 8811   3.550   3.250   7.169  0.3491  0.5293  0.1824
   86CHL1  H19B 8812   3.418   3.224   7.270 -0.0209  0.9608  0.6095
   86CHL1  H19C 8813   3.568   3.282   7.347  1.3502 -0.4631 -0.6618
   86CHL1    C1 8814   3.726   3.073   7.285 -0.0673  0.2788  0.3142
   86CHL1   H1A 8815   3.774   3.148   7.350 -0.8411 -1.3118  2.8639
   86CHL1   H1B 8816   3.760   2.973   7.320  0.4572  0.4143  0.1982
   86CHL1    C2 8817   3.795   3.090   7.142 -0.6319 -0.0609  0.2716
   86CHL1   H2A 8818   3.904   3.081   7.162 -0.1454 -0.8177 -2.3233
   86CHL1   H2B 8819   3.772   3.196   7.117  1.7882  0.6801  0.8757
   86CHL1   C20 8820   3.288   3.007   7.925  0.0089 -0.5152 -0.9927
   86CHL1   H20 8821   3.212   3.087   7.914 -0.4524 -1.1329 -2.5247
   86CHL1   C21 8822   3.425   3.066   7.976  0.0575 -0.9562 -0.3768
   86CHL1  H21A 8823   3.414   3.083   8.085  1.1759 -1.1603 -0.2183
   86CHL1  H21B 8824   3.455   3.158   7.922 -0.1265 -0.4770  0.3252
   86CHL1  H21C 8825   3.496   2.982   7.958  3.1058  1.3546 -0.0166
   86CHL1   C22 8826   3.238   2.900   8.031 -0.3250  0.0716  0.0773
   86CHL1  H22A 8827   3.233   2.950   8.130  1.4238 -2.0133  1.3040
   86CHL1  H22B 8828   3.138   2.863   7.998  0.0831 -0.8125 -0.1797
   86CHL1   C23 8829   3.317   2.772   8.056 -0.6604  0.6318 -0.5774
   86CHL1  H23A 8830   3.324   2.704   7.968 -1.0705  0.3318 -0.3807
   86CHL1  H23B 8831   3.421   2.799   8.084 -1.5646  2.2141  1.4793
   86CHL1   C24 8832   3.254   2.694   8.178  0.5633  0.5888 -0.0162
   86CHL1  H24A 8833   3.255   2.749   8.274  0.7431 -1.4017  1.1850
   86CHL1  H24B 8834   3.147   2.673   8.158  1.1966 -1.7024 -1.4460
   86CHL1   C25 8835   3.325   2.556   8.209  0.0534  0.0430 -0.7489
   86CHL1   H25 8836   3.435   2.565   8.197  0.2393 -0.6202  0.3345
   86CHL1   C26 8837   3.299   2.510   8.359 -0.4281  0.1581  0.2573
   86CHL1  H26A 8838   3.346   2.578   8.433 -1.8402  2.8561 -1.1576
   86CHL1  H26B 8839   3.191   2.500   8.382 -0.2509 -0.5016  0.8392
   86CHL1  H26C 8840   3.343   2.408   8.363 -2.0697 -0.7381 -1.9723
   86CHL1   C27 8841   3.286   2.450   8.107 -0.2159 -0.5623  0.6691
   86CHL1  H27A 8842   3.323   2.483   8.008 -1.1208  0.1367  0.5409
   86CHL1  H27B 8843   3.341   2.357   8.131  1.7344  1.1243  3.2673
   86CHL1  H27C 8844   3.177   2.427   8.109  0.1043 -2.4200 -0.6504
   87CHL1    C3 8845   3.920   0.003   6.950  0.3087  0.4513 -0.9217
   87CHL1    H3 8846   4.029   0.021   6.946  0.5136 -0.5705 -0.4027
   87CHL1    O3 8847   3.861   0.039   6.825 -0.0048 -0.2651 -0.3252
   87CHL1   H3' 8848   3.910  -0.020   6.767  0.1427 -1.8182  1.2848
   87CHL1    C4 8849   3.904  -0.147   6.982  0.4454 -0.2506 -0.1182
   87CHL1   H4A 8850   3.793  -0.159   6.982  0.3977  0.1286 -0.5546
   87CHL1   H4B 8851   3.956  -0.211   6.908  0.0620 -0.6409 -0.0563
   87CHL1    C5 8852   3.960  -0.182   7.119  0.3939  0.5337 -0.2368
   87CHL1    C6 8853   4.052  -0.276   7.136 -0.0314  0.7797  0.4870
   87CHL1    H6 8854   4.080  -0.340   7.051 -2.0061 -1.5244  1.4456
   87CHL1    C7 8855   4.120  -0.312   7.267 -0.4730  0.1271  0.5934
   87CHL1   H7A 8856   4.132  -0.422   7.263  0.0398  0.1971 -1.8489
   87CHL1   H7B 8857   4.224  -0.273   7.270 -0.0001 -0.7564 -1.7046
   87CHL1    C8 8858   4.032  -0.267   7.389  0.7611 -0.5560  0.4289
   87CHL1    H8 8859   3.942  -0.333   7.397 -1.0337  1.7138 -0.0007
   87CHL1   C14 8860   4.115  -0.273   7.510 -0.2165 -0.1618  0.4558
   87CHL1   H14 8861   4.203  -0.208   7.488 -0.5089  0.4089  0.9327
   87CHL1   C15 8862   4.180  -0.413   7.538  0.0754 -0.1484  0.7110
   87CHL1  H15A 8863   4.119  -0.503   7.519  0.2881 -0.2022  0.2761
   87CHL1  H15B 8864   4.268  -0.425   7.471 -1.1179  0.6679 -1.0746
   87CHL1   C16 8865   4.233  -0.389   7.682 -0.1852  0.0702 -0.2156
   87CHL1  H16A 8866   4.212  -0.478   7.746 -1.6226  0.8210  0.4126
   87CHL1  H16B 8867   4.344  -0.392   7.678 -0.0901  2.2599 -0.1606
   87CHL1   C17 8868   4.172  -0.257   7.724 -0.2098 -0.1699 -0.6420
   87CHL1   H17 8869   4.250  -0.182   7.701  0.2023 -0.7481 -1.1671
   87CHL1   C13 8870   4.051  -0.226   7.638 -0.1909  0.7578  0.1334
   87CHL1   C18 8871   3.934  -0.321   7.678  0.2427 -0.4534  0.3363
   87CHL1  H18A 8872   3.964  -0.428   7.668 -2.0964 -1.1939  0.4405
   87CHL1  H18B 8873   3.888  -0.314   7.779 -1.3837  0.0692 -0.3914
   87CHL1  H18C 8874   3.860  -0.307   7.596 -1.7575 -3.0832  1.5251
   87CHL1   C12 8875   4.009  -0.081   7.626  0.0707 -0.3468  0.7030
   87CHL1  H12A 8876   3.938  -0.063   7.711  0.3282  1.8131  0.5274
   87CHL1  H12B 8877   4.094  -0.012   7.642 -1.1219  1.4898 -0.4485
   87CHL1   C11 8878   3.931  -0.053   7.498 -0.0640  0.0563  0.1897
   87CHL1  H11A 8879   3.829  -0.096   7.508  0.5629 -1.6558 -0.2568
   87CHL1  H11B 8880   3.927   0.058   7.491 -1.6201 -0.0719 -2.1777
   87CHL1    C9 8881   3.992  -0.119   7.364  0.2932 -0.6002  0.2936
   87CHL1    H9 8882   4.092  -0.072   7.352  0.9108 -2.2501 -1.7389
   87CHL1   C10 8883   3.913  -0.091   7.235 -0.0782  0.5790  0.4401
   87CHL1   C19 8884   3.770  -0.133   7.261 -1.0954 -0.3485 -0.4640
   87CHL1  H19A 8885   3.709  -0.148   7.169 -0.3000 -2.1103 -0.7453
   87CHL1  H19B 8886   3.767  -0.227   7.319 -1.0765  1.1426  2.0867
   87CHL1  H19C 8887   3.705  -0.054   7.304 -0.4524  0.1131 -0.3262
   87CHL1    C1 8888   3.925   0.059   7.204  0.2608  0.3365  0.2644
   87CHL1   H1A 8889   3.870   0.112   7.285 -2.4457  1.0268 -1.8397
   87CHL1   H1B 8890   4.033   0.082   7.210  0.4939 -1.0976  2.4841
   87CHL1    C2 8891   3.862   0.096   7.066 -0.1815 -0.4370 -0.4336
   87CHL1   H2A 8892   3.882   0.201   7.034 -0.7136 -0.3895 -0.6214
   87CHL1   H2B 8893   3.752   0.084   7.074 -0.2347 -0.0648 -0.5909
   87CHL1   C20 8894   4.151  -0.260   7.881  0.2025 -0.3251  0.8673
   87CHL1   H20 8895   4.062  -0.322   7.904 -0.1038  0.2198  1.1587
   87CHL1   C21 8896   4.110  -0.119   7.930 -0.6041  0.3278  0.0628
   87CHL1  H21A 8897   4.181  -0.044   7.889 -0.6955  0.3293 -0.0926
   87CHL1  H21B 8898   4.121  -0.103   8.039  1.6627  1.4966 -0.2914
   87CHL1  H21C 8899   4.007  -0.096   7.895 -0.6592  3.6012  1.9899
   87CHL1   C22 8900   4.280  -0.316   7.951 -0.6042  0.6271  0.2499
   87CHL1  H22A 8901   4.305  -0.414   7.905  0.7567  2.2761 -2.8198
   87CHL1  H22B 8902   4.365  -0.248   7.928 -1.5039  1.2893 -1.2555
   87CHL1   C23 8903   4.273  -0.342   8.106  0.3718 -0.4801  0.1140
   87CHL1  H23A 8904   4.254  -0.246   8.160  1.3811  0.9627 -1.9531
   87CHL1  H23B 8905   4.181  -0.401   8.127 -1.0296  1.3953 -0.4879
   87CHL1   C24 8906   4.406  -0.388   8.161  0.0554  0.1069  0.1133
   87CHL1  H24A 8907   4.439  -0.477   8.103  2.2484  1.8366 -1.5014
   87CHL1  H24B 8908   4.481  -0.307   8.148 -0.5070  0.7204  0.6384
   87CHL1   C25 8909   4.403  -0.416   8.315  0.0048  0.2930  0.5477
   87CHL1   H25 8910   4.345  -0.333   8.360 -2.3182 -0.0739 -1.5551
   87CHL1   C26 8911   4.329  -0.541   8.365 -0.5336 -0.0454 -0.7166
   87CHL1  H26A 8912   4.235  -0.545   8.306 -0.7572  1.9554 -0.5726
   87CHL1  H26B 8913   4.390  -0.634   8.358 -0.6780 -0.3732  1.6668
   87CHL1  H26C 8914   4.304  -0.535   8.473  0.2078 -1.0197 -0.4745
   87CHL1   C27 8915   4.543  -0.416   8.380  0.0817 -0.4979 -0.3583
   87CHL1  H27A 8916   4.605  -0.489   8.324  0.0439 -3.1562  2.7671
   87CHL1  H27B 8917   4.587  -0.314   8.374 -2.3783  0.6656  0.0873
   87CHL1  H27C 8918   4.552  -0.437   8.489  0.0613 -1.0648 -0.4664
   88CHL1    C3 8919   0.844   5.987   6.882 -0.1739  0.2275 -0.8135
   88CHL1    H3 8920   0.767   6.059   6.917  0.6140  0.5282  0.3806
   88CHL1    O3 8921   0.837   5.965   6.744 -0.0797  0.0342  0.8095
   88CHL1   H3' 8922   0.884   5.885   6.718 -0.7246 -0.0810 -0.0756
   88CHL1    C4 8923   0.982   6.044   6.913  0.2665  0.3322  0.7090
   88CHL1   H4A 8924   1.059   5.974   6.873 -1.1356 -1.0955  0.4011
   88CHL1   H4B 8925   0.983   6.139   6.855  4.5205  0.8047  1.1889
   88CHL1    C5 8926   1.005   6.073   7.062  0.0182  0.2916  0.0415
   88CHL1    C6 8927   1.034   6.198   7.114 -0.5903 -0.1966 -0.3796
   88CHL1    H6 8928   1.051   6.285   7.050 -1.2857 -1.0876 -1.8313
   88CHL1    C7 8929   1.063   6.222   7.259 -0.0885  0.4512  0.2471
   88CHL1   H7A 8930   1.146   6.295   7.270  1.4483 -1.0104 -0.9427
   88CHL1   H7B 8931   0.967   6.265   7.292 -0.8288  0.0142 -1.2301
   88CHL1    C8 8932   1.074   6.094   7.344 -0.2849 -0.2392 -0.4973
   88CHL1    H8 8933   1.176   6.058   7.317  0.3007  0.5253  0.6202
   88CHL1   C14 8934   1.066   6.126   7.495 -0.2735 -0.3226  0.7017
   88CHL1   H14 8935   0.964   6.168   7.511  0.2337  0.7710  1.1555
   88CHL1   C15 8936   1.156   6.235   7.553  0.4189 -1.1252 -0.1875
   88CHL1  H15A 8937   1.259   6.201   7.532 -0.0846 -1.2443 -2.8419
   88CHL1  H15B 8938   1.138   6.330   7.498 -1.1581  0.0527  2.1811
   88CHL1   C16 8939   1.134   6.235   7.701  0.2452 -0.4251 -0.4299
   88CHL1  H16A 8940   1.231   6.249   7.752  0.4456 -3.0701  0.0300
   88CHL1  H16B 8941   1.059   6.311   7.734  0.1174 -0.3225 -0.9430
   88CHL1   C17 8942   1.067   6.087   7.732 -0.0645 -0.6638 -0.4777
   88CHL1   H17 8943   0.958   6.110   7.739  0.1738  0.4986 -0.2525
   88CHL1   C13 8944   1.080   6.015   7.597  0.7850 -0.0358  0.5589
   88CHL1   C18 8945   1.212   5.938   7.585 -0.6390  0.6093 -0.5171
   88CHL1  H18A 8946   1.290   6.004   7.629  0.4953  2.1261 -4.3280
   88CHL1  H18B 8947   1.194   5.840   7.634 -0.6994  0.0991 -1.5390
   88CHL1  H18C 8948   1.241   5.924   7.478 -0.3146  0.2987 -0.3902
   88CHL1   C12 8949   0.957   5.931   7.559 -0.2681 -0.8322 -0.3895
   88CHL1  H12A 8950   0.943   5.846   7.629  0.7239 -0.9827 -0.3642
   88CHL1  H12B 8951   0.874   6.004   7.562  0.9641  0.5982  0.7508
   88CHL1   C11 8952   0.963   5.877   7.411 -0.0147 -0.6135 -0.8043
   88CHL1  H11A 8953   1.051   5.810   7.399 -0.4503 -1.1196 -1.1951
   88CHL1  H11B 8954   0.871   5.818   7.391 -0.4987  0.4611 -1.8752
   88CHL1    C9 8955   0.974   5.993   7.305  0.0088  0.1374 -0.3953
   88CHL1    H9 8956   0.877   6.046   7.313 -0.4439 -0.5992 -0.8454
   88CHL1   C10 8957   0.981   5.947   7.154 -0.5630  0.2220  0.1221
   88CHL1   C19 8958   1.096   5.839   7.138 -0.1780 -0.4694  0.3545
   88CHL1  H19A 8959   1.125   5.840   7.031 -0.1099 -0.6500  0.3713
   88CHL1  H19B 8960   1.189   5.861   7.194  1.1871  0.5307 -2.1755
   88CHL1  H19C 8961   1.053   5.739   7.161  0.5906 -1.0864 -0.7897
   88CHL1    C1 8962   0.844   5.880   7.124 -0.0059  0.1282  0.4415
   88CHL1   H1A 8963   0.825   5.784   7.178 -0.7229  0.0449  0.0558
   88CHL1   H1B 8964   0.763   5.950   7.152  0.3830  0.3216  1.1130
   88CHL1    C2 8965   0.817   5.855   6.969 -0.4652 -0.1469  0.2160
   88CHL1   H2A 8966   0.719   5.810   6.940 -0.4032 -0.6730  0.8166
   88CHL1   H2B 8967   0.891   5.779   6.938  1.2988  0.3862  2.8149
   88CHL1   C20 8968   1.119   6.034   7.864  0.5523  0.0720  0.2723
   88CHL1   H20 8969   1.230   6.023   7.864  0.6628  0.3407 -2.6950
   88CHL1   C21 8970   1.062   5.892   7.891 -0.1203 -0.1314  0.3484
   88CHL1  H21A 8971   1.083   5.820   7.809  0.2399 -0.2049  0.5019
   88CHL1  H21B 8972   0.955   5.886   7.918 -0.3046  0.3966 -0.2460
   88CHL1  H21C 8973   1.123   5.851   7.974 -0.9511  1.5157  1.8406
   88CHL1   C22 8974   1.080   6.122   7.986  0.3205 -0.6207  0.3214
   88CHL1  H22A 8975   1.113   6.225   7.958  0.7627 -0.4274  1.4765
   88CHL1  H22B 8976   0.970   6.124   8.000  0.4284 -1.7771  1.6257
   88CHL1   C23 8977   1.133   6.076   8.125  0.2807 -0.6154  0.0161
   88CHL1  H23A 8978   1.095   5.976   8.155  0.1031 -0.5900 -0.1265
   88CHL1  H23B 8979   1.243   6.059   8.124  0.0939 -2.0582  0.5056
   88CHL1   C24 8980   1.104   6.174   8.240  0.5099  0.2226 -0.4113
   88CHL1  H24A 8981   1.096   6.276   8.196  0.2281  0.6407  0.5810
   88CHL1  H24B 8982   1.001   6.175   8.282  1.6737  1.7090  2.7100
   88CHL1   C25 8983   1.193   6.159   8.361 -0.6902 -0.1464 -0.1259
   88CHL1   H25 8984   1.299   6.164   8.327  0.2262 -2.0991  2.1053
   88CHL1   C26 8985   1.178   6.281   8.464 -0.0787  0.1946  0.3603
   88CHL1  H26A 8986   1.250   6.280   8.549 -0.8303 -1.7772  1.0398
   88CHL1  H26B 8987   1.181   6.379   8.412  2.3154  1.5111  2.7028
   88CHL1  H26C 8988   1.076   6.274   8.506  0.2804 -0.2459  1.1974
   88CHL1   C27 8989   1.181   6.022   8.422  0.2808 -0.2587 -0.2605
   88CHL1  H27A 8990   1.258   6.015   8.502  0.1689  3.1640  0.3131
   88CHL1  H27B 8991   1.082   5.999   8.468  0.4627 -2.7865 -1.0052
   88CHL1  H27C 8992   1.199   5.950   8.340 -3.0295 -1.2641 -0.2520
   89CHL1    C3 8993   4.866   2.307   6.894  0.4512  0.0629  0.5366
   89CHL1    H3 8994   4.957   2.358   6.931  1.2203  0.7143 -2.0435
   89CHL1    O3 8995   4.880   2.315   6.752  0.0128  0.0388 -0.0043
   89CHL1   H3' 8996   4.944   2.246   6.732  0.3177  0.2934  0.0793
   89CHL1    C4 8997   4.870   2.158   6.930  0.8629  0.2370  0.3867
   89CHL1   H4A 8998   4.785   2.103   6.884 -0.4969  2.1311  0.4876
   89CHL1   H4B 8999   4.957   2.110   6.881  0.7622  2.7973 -2.6541
   89CHL1    C5 9000   4.869   2.160   7.083 -0.9033  1.1074  0.2298
   89CHL1    C6 9001   4.978   2.108   7.150  0.5206 -0.6097  0.0816
   89CHL1    H6 9002   5.058   2.066   7.087 -0.0769 -0.9900 -0.4253
   89CHL1    C7 9003   4.992   2.103   7.296  0.1471  0.0697 -0.3037
   89CHL1   H7A 9004   5.047   2.011   7.323 -0.2914  0.4087  1.9752
   89CHL1   H7B 9005   5.045   2.192   7.337 -0.2158  0.8424 -1.4607
   89CHL1    C8 9006   4.847   2.099   7.358  0.3946 -0.0292 -0.2939
   89CHL1    H8 9007   4.786   2.007   7.347 -1.4822  0.7078  2.8046
   89CHL1   C14 9008   4.858   2.098   7.516  0.1037  0.2153  0.2483
   89CHL1   H14 9009   4.912   2.195   7.530 -0.1184  0.9807 -3.2532
   89CHL1   C15 9010   4.941   1.986   7.584 -0.0635 -0.1817  0.1999
   89CHL1  H15A 9011   4.907   1.886   7.549  0.7810 -0.2281 -0.5153
   89CHL1  H15B 9012   5.049   2.009   7.575  0.4555 -1.0811  3.0020
   89CHL1   C16 9013   4.899   2.009   7.732  0.1483  0.2015 -0.0793
   89CHL1  H16A 9014   4.882   1.906   7.769 -0.4592 -0.4444 -2.0621
   89CHL1  H16B 9015   4.982   2.052   7.793 -0.7836 -0.6424  1.8623
   89CHL1   C17 9016   4.778   2.098   7.726 -0.9356  0.3202  0.3402
   89CHL1   H17 9017   4.807   2.200   7.762 -3.2330  0.1036  3.2121
   89CHL1   C13 9018   4.725   2.110   7.588 -0.1192 -0.1013  0.1240
   89CHL1   C18 9019   4.634   1.984   7.557 -0.2491  0.4199 -0.0726
   89CHL1  H18A 9020   4.687   1.891   7.586 -0.6205  0.4692  0.7975
   89CHL1  H18B 9021   4.540   1.992   7.616 -0.6390  0.7479 -0.7294
   89CHL1  H18C 9022   4.608   1.979   7.449 -0.0366  0.9244 -0.1501
   89CHL1   C12 9023   4.669   2.243   7.538  0.7891  0.6643 -0.4460
   89CHL1  H12A 9024   4.575   2.265   7.593  0.7989 -2.3209  0.9316
   89CHL1  H12B 9025   4.733   2.320   7.586 -0.7225  0.3053  2.3745
   89CHL1   C11 9026   4.644   2.247   7.389 -0.1250 -1.1644  0.4119
   89CHL1  H11A 9027   4.563   2.180   7.352 -1.2059  0.3917 -0.1466
   89CHL1  H11B 9028   4.616   2.350   7.358  0.2615 -0.6168  1.8197
   89CHL1    C9 9029   4.767   2.220   7.304 -0.1689 -0.8591 -0.4732
   89CHL1    H9 9030   4.838   2.302   7.330 -0.0733 -0.6128 -1.4594
   89CHL1   C10 9031   4.750   2.226   7.152 -0.6090 -0.2421 -0.4714
   89CHL1   C19 9032   4.627   2.143   7.107  0.2400  0.4148 -0.0009
   89CHL1  H19A 9033   4.638   2.039   7.144  0.5897  0.0510 -1.0910
   89CHL1  H19B 9034   4.533   2.189   7.144 -1.2194 -0.9800 -1.7343
   89CHL1  H19C 9035   4.621   2.146   6.996  0.4541  0.3912 -0.0138
   89CHL1    C1 9036   4.751   2.370   7.101  0.0053 -0.0904  0.0638
   89CHL1   H1A 9037   4.676   2.435   7.152 -0.1610  1.2372 -1.7822
   89CHL1   H1B 9038   4.847   2.421   7.126  0.8594 -1.2896 -0.7143
   89CHL1    C2 9039   4.743   2.380   6.941  0.6095 -0.2358  0.3947
   89CHL1   H2A 9040   4.746   2.486   6.910 -0.9277 -0.2883 -0.0291
   89CHL1   H2B 9041   4.650   2.327   6.910 -1.2536  1.5132  2.6665
   89CHL1   C20 9042   4.680   2.061   7.838 -0.1162 -0.3344 -0.2201
   89CHL1   H20 9043   4.617   1.976   7.804  2.1234 -1.3248 -2.1442
   89CHL1   C21 9044   4.577   2.180   7.852 -0.3745 -0.0396  0.8125
   89CHL1  H21A 9045   4.624   2.281   7.853  2.1615 -1.1004 -0.5301
   89CHL1  H21B 9046   4.529   2.171   7.952  3.2449 -2.6922  2.5542
   89CHL1  H21C 9047   4.505   2.180   7.767  0.3805  0.9097  0.1419
   89CHL1   C22 9048   4.737   2.031   7.979 -1.2691 -0.4746  0.3348
   89CHL1  H22A 9049   4.651   2.039   8.048 -2.6882  2.9446 -1.5919
   89CHL1  H22B 9050   4.777   1.927   7.982  0.4139  0.1417  0.4734
   89CHL1   C23 9051   4.833   2.138   8.044  0.0316  0.3686 -0.0209
   89CHL1  H23A 9052   4.926   2.153   7.986  0.1424  2.7605  0.6538
   89CHL1  H23B 9053   4.788   2.239   8.032 -2.1688 -0.7163 -1.7257
   89CHL1   C24 9054   4.885   2.095   8.180  0.0950  0.0548 -0.4656
   89CHL1  H24A 9055   4.811   2.133   8.255  0.4758  1.2513 -0.6785
   89CHL1  H24B 9056   4.896   1.985   8.176 -2.9555 -0.3459 -0.9053
   89CHL1   C25 9057   5.032   2.147   8.212 -0.2843  0.3682 -0.4555
   89CHL1   H25 9058   5.095   2.102   8.133  0.5113  0.6768 -0.0047
   89CHL1   C26 9059   5.041   2.305   8.188  0.1550  0.0106  0.3014
   89CHL1  H26A 9060   4.961   2.344   8.253  0.3395 -1.2272  1.2979
   89CHL1  H26B 9061   5.147   2.332   8.211  0.1542 -0.1975  0.5570
   89CHL1  H26C 9062   5.019   2.334   8.083 -1.2668  3.0271  1.3303
   89CHL1   C27 9063   5.082   2.122   8.353  0.2693 -0.1112 -0.3643
   89CHL1  H27A 9064   5.097   2.013   8.365 -0.2410 -0.0523  1.0580
   89CHL1  H27B 9065   5.177   2.175   8.377  1.4198 -3.7737  4.8880
   89CHL1  H27C 9066   5.013   2.154   8.434  0.5353  0.5364 -0.3874
   90CHL1    C3 9067   6.149   3.279   7.010  0.0881  0.4255 -0.4788
   90CHL1    H3 9068   6.098   3.186   7.044 -1.6664  0.9821 -1.4661
   90CHL1    O3 9069   6.189   3.271   6.872  0.7093  0.3507 -0.0343
   90CHL1   H3' 9070   6.154   3.348   6.828  0.2409  0.2724  0.1916
   90CHL1    C4 9071   6.052   3.394   7.030  0.1263 -0.7814  0.7835
   90CHL1   H4A 9072   6.091   3.484   6.977 -0.0005 -1.9237 -1.3718
   90CHL1   H4B 9073   5.957   3.363   6.981  0.4028  0.7062 -0.7953
   90CHL1    C5 9074   6.020   3.417   7.171 -0.4626 -0.4924 -0.8748
   90CHL1    C6 9075   5.894   3.407   7.215  0.7582  0.0679 -0.5253
   90CHL1    H6 9076   5.817   3.388   7.139  1.2280 -2.4831 -0.4490
   90CHL1    C7 9077   5.859   3.416   7.361  0.2633  0.5046 -0.1691
   90CHL1   H7A 9078   5.764   3.467   7.388 -0.0382 -0.9142  1.6834
   90CHL1   H7B 9079   5.843   3.312   7.396  1.3610 -0.1662 -1.5347
   90CHL1    C8 9080   5.959   3.482   7.446 -0.1587 -0.1853  0.5932
   90CHL1    H8 9081   5.947   3.590   7.422 -0.5790 -0.6427 -1.3935
   90CHL1   C14 9082   5.936   3.455   7.590 -0.1908  0.8445  0.0115
   90CHL1   H14 9083   5.936   3.347   7.613 -0.0507  0.7311 -0.5193
   90CHL1   C15 9084   5.793   3.483   7.642 -0.2679  0.0574 -0.7158
   90CHL1  H15A 9085   5.767   3.583   7.602 -1.3772 -0.1388 -0.5051
   90CHL1  H15B 9086   5.712   3.420   7.602 -0.5483  0.2783 -0.5031
   90CHL1   C16 9087   5.832   3.475   7.797  0.2317  0.0815  0.2871
   90CHL1  H16A 9088   5.768   3.554   7.842 -0.1696 -1.2535  2.1776
   90CHL1  H16B 9089   5.797   3.382   7.847  0.0061 -0.4263 -0.7776
   90CHL1   C17 9090   5.980   3.485   7.825  0.1893 -0.2584  0.3441
   90CHL1   H17 9091   6.007   3.381   7.852 -1.2618 -0.4469  1.1440
   90CHL1   C13 9092   6.037   3.522   7.690 -0.2064 -0.0436 -0.6355
   90CHL1   C18 9093   6.032   3.678   7.661 -0.6322 -0.7388  0.8775
   90CHL1  H18A 9094   6.092   3.737   7.735 -0.0701 -0.6688  0.3740
   90CHL1  H18B 9095   6.071   3.696   7.559 -1.9577 -3.3462 -0.1846
   90CHL1  H18C 9096   5.927   3.711   7.672 -1.2316 -3.2823  4.4657
   90CHL1   C12 9097   6.177   3.476   7.662  0.1692  0.0085 -0.5105
   90CHL1  H12A 9098   6.242   3.543   7.722  0.1609  0.2622 -0.7805
   90CHL1  H12B 9099   6.182   3.375   7.708 -2.4715  0.6981  1.5727
   90CHL1   C11 9100   6.215   3.492   7.515  0.0338 -0.4243  0.2294
   90CHL1  H11A 9101   6.246   3.598   7.502  1.5196 -0.7437  0.9415
   90CHL1  H11B 9102   6.302   3.424   7.499 -0.1139 -1.1382  2.1786
   90CHL1    C9 9103   6.103   3.435   7.418  0.2974  0.9896 -0.4274
   90CHL1    H9 9104   6.106   3.327   7.443 -1.0217  1.2065  0.8727
   90CHL1   C10 9105   6.140   3.443   7.269 -0.0012  0.0349  0.0591
   90CHL1   C19 9106   6.185   3.587   7.234  0.1967  0.9823 -0.2094
   90CHL1  H19A 9107   6.120   3.659   7.287  1.0708  0.7942  1.1931
   90CHL1  H19B 9108   6.289   3.592   7.275  1.0296 -0.0117 -2.0737
   90CHL1  H19C 9109   6.180   3.614   7.127 -0.8897  4.1807  0.5540
   90CHL1    C1 9110   6.253   3.340   7.241 -0.0599  0.5927  0.3026
   90CHL1   H1A 9111   6.343   3.351   7.304 -1.5064 -1.2680  2.8651
   90CHL1   H1B 9112   6.206   3.247   7.277 -0.4176 -0.5026 -2.7147
   90CHL1    C2 9113   6.279   3.311   7.094 -0.1284 -0.2473  0.9967
   90CHL1   H2A 9114   6.337   3.216   7.084  0.4299  0.1016  0.8928
   90CHL1   H2B 9115   6.342   3.393   7.054  1.7681 -1.6214  1.0287
   90CHL1   C20 9116   6.012   3.562   7.956 -0.7026 -0.3827 -0.5434
   90CHL1   H20 9117   5.972   3.663   7.936  0.5660  0.3042  0.2184
   90CHL1   C21 9118   6.167   3.563   7.986 -0.5374  0.7149  0.4821
   90CHL1  H21A 9119   6.219   3.615   7.903 -0.0666 -0.6359 -0.0849
   90CHL1  H21B 9120   6.200   3.458   7.997 -1.3743  0.6021  2.4098
   90CHL1  H21C 9121   6.204   3.612   8.078  0.4173  0.7928  0.0664
   90CHL1   C22 9122   5.936   3.503   8.077  0.1872  0.1902  0.8017
   90CHL1  H22A 9123   5.830   3.535   8.090  0.1597 -0.4664  2.4894
   90CHL1  H22B 9124   5.937   3.394   8.055  0.9074  0.2488  0.5398
   90CHL1   C23 9125   5.992   3.520   8.215  0.5773 -0.2017  0.1558
   90CHL1  H23A 9126   6.095   3.484   8.234  0.0425  0.0274  4.6838
   90CHL1  H23B 9127   5.991   3.629   8.235  1.3798  0.2203 -1.8964
   90CHL1   C24 9128   5.908   3.444   8.322  1.0947  0.3995 -1.0587
   90CHL1  H24A 9129   5.801   3.473   8.313  0.5585 -0.2508  2.2341
   90CHL1  H24B 9130   5.918   3.334   8.310  1.0682  0.5211 -2.4189
   90CHL1   C25 9131   5.943   3.472   8.471 -0.6506  1.0680  0.1412
   90CHL1   H25 9132   5.859   3.426   8.527  3.9403 -3.0687  4.6358
   90CHL1   C26 9133   6.074   3.414   8.510  0.7616  0.1077  0.5239
   90CHL1  H26A 9134   6.107   3.423   8.616 -0.2743 -0.8406  0.9420
   90CHL1  H26B 9135   6.074   3.306   8.486  0.4052 -0.0010  1.0019
   90CHL1  H26C 9136   6.148   3.451   8.436  1.3998  0.0240  1.1002
   90CHL1   C27 9137   5.945   3.621   8.503  0.0120  0.6212  0.0772
   90CHL1  H27A 9138   5.965   3.647   8.610 -2.9596  0.8121  0.6700
   90CHL1  H27B 9139   6.032   3.667   8.451  0.0207 -0.0173 -0.4835
   90CHL1  H27C 9140   5.858   3.672   8.456 -0.1422  0.9462  0.6931
   91CHL1    C3 9141   4.279   3.929   6.988  0.7518  0.4789 -0.2128
   91CHL1    H3 9142   4.383   3.964   7.010  0.7683  0.3572 -0.0997
   91CHL1    O3 9143   4.279   3.874   6.858 -0.4408 -0.0721  0.0832
   91CHL1   H3' 9144   4.364   3.884   6.814 -1.0902  0.0227 -1.2180
   91CHL1    C4 9145   4.241   3.810   7.074 -0.1813  1.2114  0.3142
   91CHL1   H4A 9146   4.140   3.775   7.042  0.4646 -0.5373  0.0948
   91CHL1   H4B 9147   4.308   3.724   7.052 -1.0520  0.5302  0.2563
   91CHL1    C5 9148   4.258   3.862   7.219  0.7093 -0.0461 -0.1422
   91CHL1    C6 9149   4.334   3.793   7.306  0.5296  0.3918  0.4526
   91CHL1    H6 9150   4.390   3.707   7.267  0.5718  0.6513 -0.0712
   91CHL1    C7 9151   4.350   3.832   7.446  0.1290 -0.1456 -0.4844
   91CHL1   H7A 9152   4.348   3.736   7.501 -0.1644 -1.0062 -1.9653
   91CHL1   H7B 9153   4.443   3.890   7.466  0.7369 -2.4226  5.3973
   91CHL1    C8 9154   4.223   3.915   7.497 -0.7049  0.1204 -0.6401
   91CHL1    H8 9155   4.135   3.848   7.508  0.8939 -1.8707  0.9096
   91CHL1   C14 9156   4.243   3.980   7.630  0.3894  0.2218 -0.3366
   91CHL1   H14 9157   4.324   4.055   7.614 -0.4672  1.0591 -0.8311
   91CHL1   C15 9158   4.289   3.890   7.748 -0.8605  0.7533  0.7753
   91CHL1  H15A 9159   4.227   3.799   7.744 -0.5301  0.4735  1.8389
   91CHL1  H15B 9160   4.398   3.868   7.741 -1.6371 -3.4474 -1.7290
   91CHL1   C16 9161   4.260   3.969   7.878  0.1156  0.6299  0.1889
   91CHL1  H16A 9162   4.196   3.900   7.938 -1.6865 -0.9915 -3.2966
   91CHL1  H16B 9163   4.351   4.002   7.933 -0.8338  0.6404  1.8306
   91CHL1   C17 9164   4.178   4.097   7.836 -0.8271 -0.1172 -0.4590
   91CHL1   H17 9165   4.254   4.174   7.809  1.0366 -2.1780 -1.4696
   91CHL1   C13 9166   4.125   4.066   7.691 -0.0844  0.5642 -0.4364
   91CHL1   C18 9167   3.999   3.985   7.709 -0.7539  0.2074  0.2256
   91CHL1  H18A 9168   4.028   3.891   7.760 -0.0544  0.2616 -0.0583
   91CHL1  H18B 9169   3.925   4.034   7.776 -0.5098 -0.2541  0.8375
   91CHL1  H18C 9170   3.953   3.958   7.611  0.2285 -1.4634  0.1903
   91CHL1   C12 9171   4.099   4.179   7.591 -0.3958 -0.2446 -0.4728
   91CHL1  H12A 9172   4.010   4.234   7.629 -0.6273 -2.0008  1.7256
   91CHL1  H12B 9173   4.181   4.253   7.595  1.2853 -1.9778 -1.1254
   91CHL1   C11 9174   4.077   4.126   7.450 -0.2025  0.1022 -0.4651
   91CHL1  H11A 9175   3.980   4.074   7.443 -1.1388  1.5996  0.7929
   91CHL1  H11B 9176   4.072   4.213   7.380 -1.0316  1.2082  0.9231
   91CHL1    C9 9177   4.187   4.033   7.400  0.0926  0.0933  0.4650
   91CHL1    H9 9178   4.281   4.093   7.402  0.2960 -0.0561 -2.0532
   91CHL1   C10 9179   4.166   3.981   7.257 -0.1472 -0.2355  0.0447
   91CHL1   C19 9180   4.020   3.928   7.258 -0.2301 -0.0765  0.1171
   91CHL1  H19A 9181   4.001   3.888   7.156  0.7514 -2.9659  0.9505
   91CHL1  H19B 9182   3.993   3.857   7.339 -0.8407  0.4219  0.3536
   91CHL1  H19C 9183   3.959   4.021   7.263  1.0043  0.8188 -0.8367
   91CHL1    C1 9184   4.181   4.096   7.152  0.2741  0.0558  0.1695
   91CHL1   H1A 9185   4.112   4.184   7.158 -1.7898 -1.4770 -0.1045
   91CHL1   H1B 9186   4.283   4.138   7.169 -0.1686  1.0806  0.3746
   91CHL1    C2 9187   4.171   4.041   7.007  0.0617  0.1888 -0.3193
   91CHL1   H2A 9188   4.176   4.112   6.922 -0.1851  0.0412 -0.4601
   91CHL1   H2B 9189   4.065   4.008   7.000 -1.3640  3.7021  2.1454
   91CHL1   C20 9190   4.088   4.163   7.944  0.2740  0.0297 -0.5019
   91CHL1   H20 9191   4.012   4.223   7.889  0.8819  2.1219  0.7963
   91CHL1   C21 9192   4.177   4.275   8.016 -0.4127  0.6198 -0.6826
   91CHL1  H21A 9193   4.271   4.242   8.065 -1.9081  0.7161  2.5290
   91CHL1  H21B 9194   4.115   4.336   8.085 -1.4379  0.1467 -1.1615
   91CHL1  H21C 9195   4.213   4.345   7.938  2.8463 -2.4371 -2.2201
   91CHL1   C22 9196   4.028   4.066   8.047 -0.0840  0.3162 -0.3477
   91CHL1  H22A 9197   3.996   3.969   8.002  0.1819 -1.3072  2.7169
   91CHL1  H22B 9198   4.108   4.055   8.122  1.8217  0.3362 -2.2811
   91CHL1   C23 9199   3.903   4.124   8.108 -0.2519  0.8690  0.1333
   91CHL1  H23A 9200   3.926   4.226   8.148  0.9318  0.3234  0.8981
   91CHL1  H23B 9201   3.819   4.129   8.036 -0.8214 -2.0428  0.5027
   91CHL1   C24 9202   3.855   4.034   8.226 -0.0816 -0.1090 -0.1907
   91CHL1  H24A 9203   3.811   3.937   8.194 -1.0103 -0.1164  1.0578
   91CHL1  H24B 9204   3.945   4.002   8.284  0.0549  0.8440  0.1283
   91CHL1   C25 9205   3.762   4.102   8.328 -0.2639  0.7180  0.3998
   91CHL1   H25 9206   3.812   4.189   8.375  0.9447 -0.7068  1.9171
   91CHL1   C26 9207   3.637   4.149   8.265  0.5007  0.1745  0.1035
   91CHL1  H26A 9208   3.563   4.067   8.259  1.0714 -0.4263  1.0975
   91CHL1  H26B 9209   3.596   4.224   8.336  2.4131  0.2362  1.2190
   91CHL1  H26C 9210   3.642   4.187   8.160 -2.2181 -2.6839 -1.2012
   91CHL1   C27 9211   3.730   4.006   8.443  0.3057  0.0597  0.0048
   91CHL1  H27A 9212   3.699   3.909   8.399  0.3874 -1.4921  3.1275
   91CHL1  H27B 9213   3.826   3.987   8.495  0.4174 -1.4602 -0.6960
   91CHL1  H27C 9214   3.646   4.041   8.507 -0.1831 -2.5989  0.9400
   92CHL1    C3 9215   3.294   6.814   6.758  0.5285 -0.7342 -0.2580
   92CHL1    H3 9216   3.362   6.727   6.767  0.2484 -0.9185  0.1214
   92CHL1    O3 9217   3.313   6.876   6.628 -0.1149  1.3445  0.1157
   92CHL1   H3' 9218   3.221   6.896   6.608 -0.6468 -1.4520 -0.5710
   92CHL1    C4 9219   3.149   6.773   6.780  0.7828 -0.2722 -0.0614
   92CHL1   H4A 9220   3.065   6.833   6.739  1.6670  1.3471  0.4012
   92CHL1   H4B 9221   3.130   6.687   6.713 -0.0212 -1.1623  1.2455
   92CHL1    C5 9222   3.114   6.727   6.924  0.9539  0.3861  0.0437
   92CHL1    C6 9223   3.054   6.611   6.953 -0.8708  0.5404  0.9230
   92CHL1    H6 9224   3.017   6.551   6.869  3.4984 -0.4759 -0.5252
   92CHL1    C7 9225   3.032   6.551   7.088 -0.6189 -0.2763  0.0973
   92CHL1   H7A 9226   2.934   6.499   7.091 -2.2425  2.5046 -0.5435
   92CHL1   H7B 9227   3.114   6.480   7.109  2.7832  2.1305 -3.5248
   92CHL1    C8 9228   3.043   6.660   7.193 -0.2401 -0.4314  0.2835
   92CHL1    H8 9229   2.953   6.725   7.186  1.3749  2.2995  2.5209
   92CHL1   C14 9230   3.040   6.605   7.336 -0.7008 -0.3565 -0.2003
   92CHL1   H14 9231   3.126   6.534   7.340 -0.0045  0.5206  2.0105
   92CHL1   C15 9232   2.913   6.530   7.376  0.4186  0.4005  0.0915
   92CHL1  H15A 9233   2.826   6.586   7.335 -1.4603 -2.8030 -0.6165
   92CHL1  H15B 9234   2.909   6.429   7.331  1.2033  0.4746 -0.1608
   92CHL1   C16 9235   2.920   6.520   7.526  0.5445  0.2137 -0.1226
   92CHL1  H16A 9236   2.822   6.531   7.577  1.4957  1.5913  1.5280
   92CHL1  H16B 9237   2.967   6.429   7.569 -0.1315 -1.4452 -2.6834
   92CHL1   C17 9238   3.026   6.632   7.574  0.1313  1.0367 -0.5093
   92CHL1   H17 9239   3.122   6.581   7.597  0.3725  1.6679 -0.0726
   92CHL1   C13 9240   3.046   6.711   7.446  0.3337 -0.2299  0.1381
   92CHL1   C18 9241   2.930   6.812   7.438 -0.5390 -0.1620 -0.2800
   92CHL1  H18A 9242   2.934   6.862   7.339  0.4005  2.7578  1.1289
   92CHL1  H18B 9243   2.831   6.783   7.479  1.1959 -3.3102  2.1939
   92CHL1  H18C 9244   2.954   6.895   7.508  1.7454 -1.3898  0.5054
   92CHL1   C12 9245   3.189   6.770   7.425  0.4174  0.0346  0.0278
   92CHL1  H12A 9246   3.207   6.849   7.501  1.0378 -2.0146  2.0963
   92CHL1  H12B 9247   3.262   6.686   7.436 -0.6828 -0.9668 -0.1695
   92CHL1   C11 9248   3.205   6.838   7.289  0.1193 -0.0496 -0.4122
   92CHL1  H11A 9249   3.147   6.933   7.287  1.8668  1.1449  1.6660
   92CHL1  H11B 9250   3.312   6.865   7.275 -0.2079  1.1858 -0.7133
   92CHL1    C9 9251   3.166   6.742   7.172  0.0300  0.3898  0.1040
   92CHL1    H9 9252   3.252   6.672   7.170  1.1029  1.7013 -1.8667
   92CHL1   C10 9253   3.171   6.815   7.031  0.5063  0.2040  0.5102
   92CHL1   C19 9254   3.059   6.926   7.027  0.3782  0.0505  0.2277
   92CHL1  H19A 9255   3.074   7.005   7.104 -0.9077  0.6632 -0.1193
   92CHL1  H19B 9256   3.056   6.980   6.930 -1.2982  1.5051  1.0336
   92CHL1  H19C 9257   2.957   6.883   7.039 -0.0831  0.5803 -1.5289
   92CHL1    C1 9258   3.307   6.870   6.996  0.0124  0.0850 -0.3007
   92CHL1   H1A 9259   3.327   6.944   7.075 -0.5250  0.6043 -0.6427
   92CHL1   H1B 9260   3.379   6.792   7.029 -0.4722  0.2002  1.0730
   92CHL1    C2 9261   3.333   6.922   6.861  0.0322  0.1321 -0.1842
   92CHL1   H2A 9262   3.434   6.964   6.840  0.4347 -0.6905  0.0499
   92CHL1   H2B 9263   3.257   6.999   6.833 -2.9317 -2.4898  0.1028
   92CHL1   C20 9264   2.981   6.694   7.712 -0.3881  0.0338  0.2100
   92CHL1   H20 9265   2.881   6.742   7.709  1.1702  3.5574 -0.5462
   92CHL1   C21 9266   3.073   6.810   7.755  0.0822 -0.1241 -0.0243
   92CHL1  H21A 9267   3.065   6.895   7.683 -2.1787  0.2117  0.5652
   92CHL1  H21B 9268   3.178   6.774   7.767  0.0631 -0.4235 -0.6742
   92CHL1  H21C 9269   3.030   6.836   7.854  0.5253  0.8600 -0.0680
   92CHL1   C22 9270   2.979   6.587   7.830 -0.0030  0.0239 -0.2396
   92CHL1  H22A 9271   2.957   6.641   7.924 -1.4017 -1.1288  0.1264
   92CHL1  H22B 9272   2.897   6.513   7.818 -2.7921  2.5426  1.6686
   92CHL1   C23 9273   3.108   6.509   7.854  0.0479 -0.5127 -0.0937
   92CHL1  H23A 9274   3.158   6.471   7.762 -0.3335  1.2902 -1.0944
   92CHL1  H23B 9275   3.182   6.580   7.897 -0.6139 -0.6888  1.3803
   92CHL1   C24 9276   3.087   6.402   7.960  0.4600 -0.0107 -0.7045
   92CHL1  H24A 9277   3.032   6.449   8.045 -1.5079 -0.4720 -1.6624
   92CHL1  H24B 9278   3.023   6.329   7.906 -1.4867 -0.6393  2.2066
   92CHL1   C25 9279   3.210   6.324   8.019  0.1953 -0.4113 -0.8425
   92CHL1   H25 9280   3.187   6.251   8.099 -0.5278  0.8076  0.0906
   92CHL1   C26 9281   3.288   6.252   7.912  0.3951  0.3873  0.7243
   92CHL1  H26A 9282   3.220   6.185   7.855  2.3130  0.7252 -2.1949
   92CHL1  H26B 9283   3.329   6.320   7.834 -2.9177  0.6003 -1.0164
   92CHL1  H26C 9284   3.369   6.190   7.957  0.5142  0.4729  0.6302
   92CHL1   C27 9285   3.302   6.420   8.096  0.1007  0.2285 -0.6201
   92CHL1  H27A 9286   3.388   6.359   8.130  0.0236  0.2163 -0.4479
   92CHL1  H27B 9287   3.350   6.497   8.032  2.9757 -0.6766  0.2987
   92CHL1  H27C 9288   3.251   6.471   8.181  0.9669 -0.3526  0.2586
   93CHL1    C3 9289   0.165   4.611   6.776 -0.0109 -0.4777 -0.7591
   93CHL1    H3 9290   0.274   4.594   6.786 -0.0059  0.6718  2.2943
   93CHL1    O3 9291   0.135   4.671   6.654  0.3538 -0.0182 -0.5836
   93CHL1   H3' 9292   0.204   4.734   6.635  0.2205  0.5900  0.7982
   93CHL1    C4 9293   0.099   4.481   6.786 -0.2364  0.0939 -0.5392
   93CHL1   H4A 9294  -0.011   4.480   6.768 -0.6865 -1.1450  1.9230
   93CHL1   H4B 9295   0.161   4.418   6.719  0.2778 -0.5099  0.4896
   93CHL1    C5 9296   0.109   4.421   6.929  0.0088  0.0419  0.0648
   93CHL1    C6 9297   0.152   4.296   6.946 -0.4284  0.3109  0.3364
   93CHL1    H6 9298   0.190   4.236   6.863  0.4606 -1.7849  2.1436
   93CHL1    C7 9299   0.159   4.220   7.073 -0.2223 -0.2489  0.1925
   93CHL1   H7A 9300   0.103   4.128   7.045  2.0435 -1.3672 -0.9932
   93CHL1   H7B 9301   0.263   4.197   7.106  0.1245 -0.0747 -0.7346
   93CHL1    C8 9302   0.081   4.288   7.188 -0.0366  0.5227  0.4424
   93CHL1    H8 9303  -0.028   4.269   7.176 -0.2831  1.9286  0.3026
   93CHL1   C14 9304   0.123   4.232   7.329 -0.1905  0.0311  0.1146
   93CHL1   H14 9305   0.233   4.240   7.334  0.0376 -2.0629 -0.4283
   93CHL1   C15 9306   0.105   4.084   7.353  0.0840  0.2300  0.8150
   93CHL1  H15A 9307   0.015   4.044   7.301  0.7700  2.6559 -2.6024
   93CHL1  H15B 9308   0.183   4.026   7.298  0.4609  0.5441  1.0118
   93CHL1   C16 9309   0.101   4.071   7.503  0.0023 -0.2930  0.4903
   93CHL1  H16A 9310   0.002   4.028   7.530 -0.8194  1.2411  0.0428
   93CHL1  H16B 9311   0.184   4.009   7.542 -1.1719 -2.1763  0.0823
   93CHL1   C17 9312   0.106   4.215   7.567 -0.3469  0.3524  0.4130
   93CHL1   H17 9313   0.216   4.228   7.578 -0.1672 -0.5989 -0.1639
   93CHL1   C13 9314   0.055   4.303   7.452 -0.4078 -0.3406  0.2512
   93CHL1   C18 9315  -0.106   4.299   7.437 -0.6006 -0.7179  0.0473
   93CHL1  H18A 9316  -0.147   4.357   7.352 -0.8908  1.0128  1.3103
   93CHL1  H18B 9317  -0.146   4.197   7.425 -1.6734 -0.4599  1.2080
   93CHL1  H18C 9318  -0.128   4.353   7.532  2.7502  0.1753  0.4412
   93CHL1   C12 9319   0.096   4.448   7.448 -0.1986  0.4536 -0.0833
   93CHL1  H12A 9320   0.039   4.515   7.517  1.2151 -0.0482  1.6510
   93CHL1  H12B 9321   0.202   4.463   7.479 -0.4508  2.2126  0.0592
   93CHL1   C11 9322   0.065   4.515   7.307 -0.0670 -0.0643 -0.5154
   93CHL1  H11A 9323  -0.045   4.532   7.306  0.0222  1.0331  1.4953
   93CHL1  H11B 9324   0.111   4.616   7.299  0.7996 -0.5843 -2.7445
   93CHL1    C9 9325   0.114   4.436   7.186 -0.3899  0.8389  0.5791
   93CHL1    H9 9326   0.225   4.429   7.184 -0.4292 -0.3056 -2.1484
   93CHL1   C10 9327   0.071   4.509   7.049  0.7522  0.6650 -0.2332
   93CHL1   C19 9328  -0.082   4.531   7.052 -0.2235  0.1439  0.3010
   93CHL1  H19A 9329  -0.115   4.611   7.122 -0.2106  0.8187 -0.4409
   93CHL1  H19B 9330  -0.120   4.566   6.953  0.5405 -1.1884 -0.4990
   93CHL1  H19C 9331  -0.130   4.435   7.079  0.1752  0.2587  1.4481
   93CHL1    C1 9332   0.143   4.643   7.032 -0.7127 -0.1960  0.2771
   93CHL1   H1A 9333   0.090   4.714   7.098 -0.3070  0.0592  0.3288
   93CHL1   H1B 9334   0.253   4.647   7.048 -0.8606  0.9123  1.0657
   93CHL1    C2 9335   0.119   4.700   6.888 -0.3697  0.1980  0.0155
   93CHL1   H2A 9336   0.178   4.794   6.879 -0.4665  0.1325 -1.5125
   93CHL1   H2B 9337   0.011   4.722   6.870 -0.6206 -0.4578  0.6718
   93CHL1   C20 9338   0.045   4.232   7.706  0.3840 -0.2959 -1.2994
   93CHL1   H20 9339  -0.064   4.223   7.690 -0.2179 -0.7736  2.2502
   93CHL1   C21 9340   0.083   4.365   7.765  0.1409 -0.0015 -0.5862
   93CHL1  H21A 9341   0.192   4.386   7.757 -0.2944  2.0917 -1.5190
   93CHL1  H21B 9342   0.061   4.371   7.874  2.4305 -1.6025  0.0428
   93CHL1  H21C 9343   0.032   4.450   7.716  0.8065  3.1432  3.6081
   93CHL1   C22 9344   0.087   4.120   7.815  0.3357 -0.5685 -0.7375
   93CHL1  H22A 9345   0.091   4.019   7.769 -0.6343 -1.0300  0.1359
   93CHL1  H22B 9346   0.187   4.148   7.853 -1.0035  1.4557  1.5894
   93CHL1   C23 9347  -0.010   4.105   7.937 -0.2070 -0.2491  1.1477
   93CHL1  H23A 9348  -0.022   4.206   7.982 -0.9585  0.0917  0.2147
   93CHL1  H23B 9349  -0.109   4.073   7.899  0.2086  0.2015 -0.3878
   93CHL1   C24 9350   0.048   4.012   8.045 -1.2453  0.1575 -0.4394
   93CHL1  H24A 9351   0.067   3.910   8.006 -2.1684  0.5327 -1.9437
   93CHL1  H24B 9352   0.152   4.044   8.067 -1.1933  0.0278 -0.4955
   93CHL1   C25 9353  -0.032   4.014   8.176  0.8091  0.0593  0.0652
   93CHL1   H25 9354  -0.053   4.118   8.207  3.5018  0.5338  0.5914
   93CHL1   C26 9355  -0.164   3.936   8.158 -0.9610 -0.5444  0.4730
   93CHL1  H26A 9356  -0.233   3.998   8.097  0.6118  0.8835  0.0426
   93CHL1  H26B 9357  -0.147   3.835   8.114  0.7795 -1.3637  2.8102
   93CHL1  H26C 9358  -0.210   3.925   8.259 -0.7601  0.2981  0.6677
   93CHL1   C27 9359   0.046   3.939   8.284 -0.9880 -0.0372  0.4790
   93CHL1  H27A 9360   0.071   3.841   8.240  2.6054  1.4108 -1.1151
   93CHL1  H27B 9361   0.143   3.989   8.305 -1.3257  1.4678 -1.2422
   93CHL1  H27C 9362  -0.001   3.931   8.384  0.9792 -2.1481  1.2981
   94CHL1    C3 9363   3.377   0.689   6.787  1.0427 -0.2803 -0.0609
   94CHL1    H3 9364   3.458   0.752   6.830 -0.2062  1.3906 -0.0383
   94CHL1    O3 9365   3.376   0.696   6.648  0.4306  0.2847 -0.0440
   94CHL1   H3' 9366   3.357   0.788   6.632  0.2878  0.0168 -1.5641
   94CHL1    C4 9367   3.394   0.541   6.833 -0.2853 -0.4643 -0.3629
   94CHL1   H4A 9368   3.319   0.486   6.772  1.0485  0.0465 -2.5793
   94CHL1   H4B 9369   3.501   0.517   6.816 -0.3704 -2.8520  1.8876
   94CHL1    C5 9370   3.364   0.520   6.981 -0.7227  0.4693  0.7095
   94CHL1    C6 9371   3.452   0.456   7.057 -0.4165  0.4788  0.3161
   94CHL1    H6 9372   3.546   0.425   7.009 -0.5424  2.6701 -1.5324
   94CHL1    C7 9373   3.437   0.427   7.204  0.3772  0.7196  0.1709
   94CHL1   H7A 9374   3.487   0.330   7.225  1.1014  1.2851  1.1137
   94CHL1   H7B 9375   3.493   0.501   7.264  0.9427 -0.5075  1.2061
   94CHL1    C8 9376   3.288   0.441   7.241 -0.3086 -0.0124  0.5899
   94CHL1    H8 9377   3.230   0.354   7.204  2.1352 -1.5767  0.2399
   94CHL1   C14 9378   3.275   0.443   7.393 -0.6723  0.2160  0.0317
   94CHL1   H14 9379   3.335   0.527   7.436 -0.5161 -0.8958  2.0864
   94CHL1   C15 9380   3.332   0.317   7.466 -0.4270 -0.0804 -0.5858
   94CHL1  H15A 9381   3.274   0.234   7.420 -2.8813  0.9722  0.4123
   94CHL1  H15B 9382   3.442   0.316   7.457 -0.2775  0.7601  0.7566
   94CHL1   C16 9383   3.275   0.333   7.611 -1.1786  0.5224  0.1228
   94CHL1  H16A 9384   3.249   0.228   7.636  0.1370  0.2006  0.2245
   94CHL1  H16B 9385   3.348   0.375   7.684 -0.2253 -0.4676 -0.2420
   94CHL1   C17 9386   3.170   0.443   7.605  0.6824 -0.0892 -0.5305
   94CHL1   H17 9387   3.213   0.543   7.625 -1.0472  0.2211  2.2453
   94CHL1   C13 9388   3.133   0.454   7.455  0.7476 -0.2410 -0.1767
   94CHL1   C18 9389   3.028   0.340   7.421 -0.3145 -0.7193 -0.1882
   94CHL1  H18A 9390   2.930   0.379   7.455 -0.2641 -0.6743 -0.0937
   94CHL1  H18B 9391   3.035   0.316   7.313 -0.1939  2.1354 -0.8938
   94CHL1  H18C 9392   3.045   0.251   7.485 -1.3217  0.1983  1.4088
   94CHL1   C12 9393   3.094   0.598   7.412 -0.0014 -0.4582  0.1860
   94CHL1  H12A 9394   2.993   0.634   7.440  0.4805  1.3276 -0.2816
   94CHL1  H12B 9395   3.169   0.673   7.445  1.2306  0.4524 -4.1143
   94CHL1   C11 9396   3.099   0.614   7.261 -0.1579 -0.5557  0.1496
   94CHL1  H11A 9397   3.022   0.548   7.216  1.4800 -1.8573 -0.8819
   94CHL1  H11B 9398   3.081   0.718   7.227 -0.0729 -1.0547 -1.5276
   94CHL1    C9 9399   3.233   0.576   7.188  0.1058 -0.2055  0.3288
   94CHL1    H9 9400   3.304   0.654   7.221 -0.4104  0.8036 -0.8838
   94CHL1   C10 9401   3.236   0.575   7.029  0.5988  0.5005  0.8367
   94CHL1   C19 9402   3.126   0.482   6.975  0.2501 -0.1164 -0.3164
   94CHL1  H19A 9403   3.143   0.379   7.013  1.1110 -0.6399 -1.9992
   94CHL1  H19B 9404   3.025   0.513   7.009  0.6816 -1.0638  1.9878
   94CHL1  H19C 9405   3.121   0.480   6.864  0.7962  0.9220 -0.3691
   94CHL1    C1 9406   3.212   0.728   6.976  0.5334 -0.1078 -0.9458
   94CHL1   H1A 9407   3.106   0.749   7.002  0.6090 -0.8915  0.0926
   94CHL1   H1B 9408   3.277   0.800   7.029  0.3619 -1.1575  0.7853
   94CHL1    C2 9409   3.231   0.737   6.824 -0.8172 -1.0534  0.5427
   94CHL1   H2A 9410   3.198   0.834   6.783 -1.1256 -1.8164 -1.0965
   94CHL1   H2B 9411   3.159   0.665   6.782 -1.6303  0.8882 -1.5813
   94CHL1   C20 9412   3.054   0.435   7.706  0.4395  0.7671  0.3638
   94CHL1   H20 9413   3.001   0.340   7.688 -0.2160  1.3821 -1.1323
   94CHL1   C21 9414   2.951   0.550   7.685  0.1447 -0.3200 -0.1279
   94CHL1  H21A 9415   2.894   0.540   7.590  0.4951 -1.4427 -0.2261
   94CHL1  H21B 9416   3.000   0.649   7.684 -2.5879  1.1445 -0.0108
   94CHL1  H21C 9417   2.875   0.560   7.766  0.3631  0.0984  0.0271
   94CHL1   C22 9418   3.099   0.455   7.850 -0.3448 -0.0376  0.4010
   94CHL1  H22A 9419   3.197   0.505   7.832 -0.5865 -0.3196 -2.0475
   94CHL1  H22B 9420   3.035   0.531   7.899 -0.4305 -0.1999  0.5428
   94CHL1   C23 9421   3.126   0.326   7.926 -0.3955  1.1631  0.0709
   94CHL1  H23A 9422   3.026   0.289   7.958 -0.4545  0.6777 -0.6511
   94CHL1  H23B 9423   3.162   0.250   7.853 -0.1973 -0.6105  1.9299
   94CHL1   C24 9424   3.217   0.342   8.051 -0.1081 -0.3989 -0.0397
   94CHL1  H24A 9425   3.298   0.413   8.022 -0.5921  0.3556  0.4301
   94CHL1  H24B 9426   3.157   0.397   8.126 -2.1046 -2.5618  0.0859
   94CHL1   C25 9427   3.275   0.215   8.107 -0.0982 -0.3302  0.5416
   94CHL1   H25 9428   3.316   0.239   8.208 -0.5173 -0.0937  0.6594
   94CHL1   C26 9429   3.165   0.117   8.132  0.7999  0.2966  0.5143
   94CHL1  H26A 9430   3.095   0.159   8.207  2.0245 -0.0230  1.8724
   94CHL1  H26B 9431   3.104   0.107   8.040  0.6850 -2.7353  0.8182
   94CHL1  H26C 9432   3.185   0.021   8.183 -1.0538  0.6820  2.0960
   94CHL1   C27 9433   3.378   0.152   8.008 -0.1777 -0.0976 -0.4910
   94CHL1  H27A 9434   3.451   0.229   7.976  0.6354 -1.9854 -3.6303
   94CHL1  H27B 9435   3.426   0.063   8.053 -3.5260 -2.4991 -1.2890
   94CHL1  H27C 9436   3.321   0.115   7.920  0.7498  0.1314 -1.2050
   95CHL1    C3 9437   2.847   0.566   6.685  0.1280  0.1897 -0.7053
   95CHL1    H3 9438   2.951   0.541   6.715  0.1699  0.0500 -0.9597
   95CHL1    O3 9439   2.843   0.541   6.545  0.1955  0.0641 -0.2335
   95CHL1   H3' 9440   2.759   0.576   6.514 -1.2947 -3.3668 -0.4833
   95CHL1    C4 9441   2.744   0.482   6.760  0.2639  0.3375  0.0255
   95CHL1   H4A 9442   2.642   0.486   6.717  1.2199  2.1019 -2.2993
   95CHL1   H4B 9443   2.775   0.376   6.742 -1.0454  0.0710 -0.8121
   95CHL1    C5 9444   2.726   0.509   6.909  0.1604 -0.0282 -0.4023
   95CHL1    C6 9445   2.732   0.412   7.003 -0.2155  1.0881  0.1665
   95CHL1    H6 9446   2.742   0.304   6.984 -2.9815  0.4572  1.6748
   95CHL1    C7 9447   2.708   0.439   7.153 -0.0159  0.0726 -0.3315
   95CHL1   H7A 9448   2.646   0.365   7.208 -1.1196  0.7017 -0.6919
   95CHL1   H7B 9449   2.807   0.442   7.203 -0.7185  3.0042  1.1546
   95CHL1    C8 9450   2.654   0.583   7.184 -0.5018 -0.0011  0.3446
   95CHL1    H8 9451   2.546   0.576   7.162 -0.2059 -0.3299 -1.0800
   95CHL1   C14 9452   2.667   0.617   7.337 -0.7191  0.5936  0.1812
   95CHL1   H14 9453   2.778   0.620   7.350 -0.5873  0.9210 -0.9227
   95CHL1   C15 9454   2.600   0.522   7.441  0.0528 -0.1406 -0.9550
   95CHL1  H15A 9455   2.501   0.503   7.395 -0.7279  2.6987 -0.6362
   95CHL1  H15B 9456   2.661   0.430   7.454  0.4284  0.2926  0.6126
   95CHL1   C16 9457   2.584   0.606   7.565  0.4486  0.0968 -0.2769
   95CHL1  H16A 9458   2.480   0.606   7.604  0.6408 -0.1258  0.2477
   95CHL1  H16B 9459   2.642   0.571   7.654  0.7987 -0.5131 -0.7422
   95CHL1   C17 9460   2.625   0.753   7.521 -0.1840  0.3010  0.5555
   95CHL1   H17 9461   2.732   0.763   7.550  0.7797 -1.5522 -2.0131
   95CHL1   C13 9462   2.615   0.757   7.362 -1.0115  0.1983 -0.2925
   95CHL1   C18 9463   2.467   0.775   7.327  0.6222  0.2261  0.0201
   95CHL1  H18A 9464   2.406   0.704   7.388  0.3963 -1.7222 -2.2754
   95CHL1  H18B 9465   2.428   0.876   7.350 -1.1490 -0.3078 -0.4457
   95CHL1  H18C 9466   2.437   0.763   7.220 -1.3002 -0.9879  0.6208
   95CHL1   C12 9467   2.694   0.858   7.282 -0.1373 -0.1857  0.2235
   95CHL1  H12A 9468   2.661   0.962   7.305  0.5689  0.2662 -0.7353
   95CHL1  H12B 9469   2.800   0.849   7.312 -0.2405  0.0165  0.6680
   95CHL1   C11 9470   2.687   0.833   7.135  0.4163 -0.6946 -0.1656
   95CHL1  H11A 9471   2.584   0.859   7.103  0.0616 -1.7069  0.1151
   95CHL1  H11B 9472   2.740   0.912   7.077 -0.4203 -1.2128 -1.6877
   95CHL1    C9 9473   2.722   0.686   7.088  0.1988  0.3653 -0.5711
   95CHL1    H9 9474   2.827   0.669   7.119 -1.0725 -3.7733  2.4835
   95CHL1   C10 9475   2.710   0.656   6.938 -0.5330 -0.3377 -0.4843
   95CHL1   C19 9476   2.570   0.702   6.889  0.1778  0.6724 -0.3904
   95CHL1  H19A 9477   2.550   0.811   6.896  0.6221  0.8227 -1.2243
   95CHL1  H19B 9478   2.550   0.673   6.783 -0.5856 -1.1605  0.2253
   95CHL1  H19C 9479   2.488   0.655   6.946  0.3240  1.3022  0.3515
   95CHL1    C1 9480   2.816   0.742   6.866 -0.4966 -0.2380 -0.1941
   95CHL1   H1A 9481   2.805   0.852   6.878  1.2817  0.4037 -3.3091
   95CHL1   H1B 9482   2.911   0.706   6.911 -0.5294  0.5161  0.4882
   95CHL1    C2 9483   2.825   0.713   6.713  0.6201 -0.0699 -0.6455
   95CHL1   H2A 9484   2.902   0.785   6.678 -0.5820  2.1940  1.1233
   95CHL1   H2B 9485   2.723   0.738   6.676 -0.1938  0.9811  2.0212
   95CHL1   C20 9486   2.548   0.863   7.598 -0.0448  0.6271 -0.3666
   95CHL1   H20 9487   2.438   0.862   7.581 -0.2670 -1.7421  0.8726
   95CHL1   C21 9488   2.595   1.009   7.567  0.0308  0.2141 -0.1174
   95CHL1  H21A 9489   2.582   1.089   7.643  2.5900  0.2996  0.2873
   95CHL1  H21B 9490   2.532   1.042   7.481  0.8320  0.5155 -0.5914
   95CHL1  H21C 9491   2.702   1.015   7.538 -0.1742 -0.7764 -1.1405
   95CHL1   C22 9492   2.561   0.843   7.751  0.5073 -0.3085  0.2085
   95CHL1  H22A 9493   2.506   0.930   7.793 -0.1707 -1.5472  2.0249
   95CHL1  H22B 9494   2.525   0.742   7.779  2.2011 -1.6155 -1.9923
   95CHL1   C23 9495   2.707   0.841   7.810  0.5718  0.0860  0.1092
   95CHL1  H23A 9496   2.772   0.785   7.740 -1.1450 -0.9722 -0.7184
   95CHL1  H23B 9497   2.742   0.946   7.810 -1.7925  0.9388  0.6693
   95CHL1   C24 9498   2.713   0.786   7.953  0.1937 -0.1102  0.0250
   95CHL1  H24A 9499   2.646   0.838   8.025 -0.3542 -1.6555  0.6760
   95CHL1  H24B 9500   2.672   0.683   7.964 -0.9485  0.3605  0.3946
   95CHL1   C25 9501   2.851   0.788   8.012 -0.2084 -0.7620  0.2907
   95CHL1   H25 9502   2.930   0.746   7.946  0.2933 -0.2783  0.5754
   95CHL1   C26 9503   2.894   0.938   8.021 -0.4793 -0.0191 -0.2365
   95CHL1  H26A 9504   2.809   1.002   8.052  0.2243  0.4177  0.8525
   95CHL1  H26B 9505   2.982   0.934   8.088  0.5637 -0.0361 -1.5652
   95CHL1  H26C 9506   2.924   0.975   7.920 -0.0861 -1.3580 -0.6323
   95CHL1   C27 9507   2.862   0.720   8.151 -0.5088 -0.2531 -0.1577
   95CHL1  H27A 9508   2.819   0.618   8.142 -2.5920  0.7453 -2.5565
   95CHL1  H27B 9509   2.970   0.701   8.172 -0.2995 -0.5128 -1.4193
   95CHL1  H27C 9510   2.808   0.778   8.229  0.9831  0.7416  0.1689
   96CHL1    C3 9511   1.906   5.890   6.653 -0.6277  0.1306 -0.3252
   96CHL1    H3 9512   1.797   5.907   6.670 -0.4526  1.0045 -0.0370
   96CHL1    O3 9513   1.938   5.840   6.528 -0.4206 -0.2035 -0.4036
   96CHL1   H3' 9514   2.033   5.831   6.523 -0.5740 -1.6290 -1.7416
   96CHL1    C4 9515   1.975   6.022   6.682  0.6219  0.2206  0.0701
   96CHL1   H4A 9516   2.082   6.004   6.657  0.6616 -1.3210  1.1820
   96CHL1   H4B 9517   1.929   6.094   6.611 -0.0593 -0.6601 -0.3937
   96CHL1    C5 9518   1.965   6.065   6.828  0.1567 -0.1860  0.4797
   96CHL1    C6 9519   1.902   6.179   6.864  0.5910 -0.4320  0.3294
   96CHL1    H6 9520   1.858   6.250   6.791  0.2067  2.5671  3.2457
   96CHL1    C7 9521   1.903   6.232   7.003 -0.1724 -0.0036 -0.0502
   96CHL1   H7A 9522   1.943   6.335   6.997 -1.1375  0.3514 -0.6930
   96CHL1   H7B 9523   1.796   6.245   7.031  0.1529 -0.0379  1.2692
   96CHL1    C8 9524   1.970   6.141   7.115 -0.1622  0.7847 -0.3128
   96CHL1    H8 9525   2.077   6.170   7.121  0.6797 -1.8967 -1.1785
   96CHL1   C14 9526   1.918   6.162   7.263  0.2568 -0.4397  0.4367
   96CHL1   H14 9527   1.810   6.139   7.253 -0.5272  2.9528 -0.2777
   96CHL1   C15 9528   1.920   6.302   7.318 -0.4238  0.3730 -0.5911
   96CHL1  H15A 9529   2.017   6.349   7.293 -1.6953  2.7649 -1.4181
   96CHL1  H15B 9530   1.846   6.376   7.280 -2.4372 -1.2030  0.0774
   96CHL1   C16 9531   1.919   6.282   7.468  0.0488 -0.0071  0.1079
   96CHL1  H16A 9532   2.010   6.324   7.514 -1.1546  0.8928  1.7757
   96CHL1  H16B 9533   1.832   6.338   7.508 -0.2325  0.5594 -1.2450
   96CHL1   C17 9534   1.911   6.126   7.485 -0.1767  0.7154 -0.4820
   96CHL1   H17 9535   1.801   6.115   7.477 -0.1711  0.8258 -0.7140
   96CHL1   C13 9536   1.980   6.072   7.366 -0.0004  0.4003 -0.4734
   96CHL1   C18 9537   2.131   6.093   7.400 -0.0535 -0.3995  0.8533
   96CHL1  H18A 9538   2.156   6.003   7.461 -1.5755 -1.5779 -0.1895
   96CHL1  H18B 9539   2.193   6.088   7.307 -0.2047  0.9167  0.6692
   96CHL1  H18C 9540   2.161   6.191   7.443  2.2359 -0.6852  0.0838
   96CHL1   C12 9541   1.953   5.930   7.327 -0.5647 -0.4244  0.3079
   96CHL1  H12A 9542   2.000   5.865   7.404 -0.3896  0.7074  1.1665
   96CHL1  H12B 9543   1.843   5.916   7.326 -0.7317  0.8127 -0.5324
   96CHL1   C11 9544   2.006   5.900   7.188  0.2039 -0.1890  0.7708
   96CHL1  H11A 9545   2.117   5.908   7.193  0.2251  1.1588 -0.6310
   96CHL1  H11B 9546   1.971   5.799   7.158 -2.2713  1.0804 -1.0577
   96CHL1    C9 9547   1.952   5.995   7.080  0.0819 -0.4934  0.1829
   96CHL1    H9 9548   1.843   5.973   7.081 -0.0367  0.0165  1.7247
   96CHL1   C10 9549   2.009   5.962   6.938 -0.2167 -0.1579  0.2309
   96CHL1   C19 9550   2.161   5.960   6.945 -0.4380  0.3144  0.1962
   96CHL1  H19A 9551   2.192   6.023   7.031 -1.4419  0.3691  0.5284
   96CHL1  H19B 9552   2.193   5.859   6.979  0.0029  0.6034  0.6665
   96CHL1  H19C 9553   2.218   5.984   6.852  0.0912  3.6052  1.2486
   96CHL1    C1 9554   1.962   5.817   6.893 -0.2605  0.2216  0.4119
   96CHL1   H1A 9555   2.029   5.746   6.946  0.0413  1.7864  2.2522
   96CHL1   H1B 9556   1.858   5.796   6.926 -0.0539 -1.4273  0.0852
   96CHL1    C2 9557   1.960   5.776   6.744  0.2329 -0.3863  0.3082
   96CHL1   H2A 9558   1.892   5.690   6.728 -0.8276  0.5741 -0.5330
   96CHL1   H2B 9559   2.067   5.748   6.732  0.0302 -0.5215 -1.3576
   96CHL1   C20 9560   1.946   6.067   7.626  0.3775 -0.4699  0.0293
   96CHL1   H20 9561   2.057   6.060   7.631  0.4178 -0.5635 -0.7869
   96CHL1   C21 9562   1.884   5.929   7.646 -0.0131 -0.5163 -1.0114
   96CHL1  H21A 9563   1.947   5.846   7.605  3.2459  1.1223  0.3004
   96CHL1  H21B 9564   1.783   5.928   7.600 -0.9095  1.2124  0.7685
   96CHL1  H21C 9565   1.876   5.898   7.753 -1.1380 -1.4948 -1.3500
   96CHL1   C22 9566   1.898   6.162   7.741  0.0285  0.3762  0.5897
   96CHL1  H22A 9567   1.883   6.267   7.708 -0.0511  0.9236  2.2937
   96CHL1  H22B 9568   1.794   6.143   7.776 -0.3200  1.8997  0.4303
   96CHL1   C23 9569   1.986   6.162   7.868  0.5109 -0.1022 -0.2356
   96CHL1  H23A 9570   2.008   6.058   7.900  0.9556 -0.0265 -0.2857
   96CHL1  H23B 9571   2.082   6.213   7.843  0.6057 -0.8276 -1.4118
   96CHL1   C24 9572   1.916   6.228   7.988 -0.5925 -0.2387 -0.3783
   96CHL1  H24A 9573   1.885   6.331   7.961  1.9422  1.1747  1.6759
   96CHL1  H24B 9574   1.820   6.179   8.016 -0.4853  0.0308  0.4820
   96CHL1   C25 9575   2.000   6.249   8.114  0.2148 -0.2259 -0.0673
   96CHL1   H25 9576   1.929   6.309   8.176  2.0501  1.2214  0.7128
   96CHL1   C26 9577   2.023   6.113   8.187  0.8333 -0.6231 -0.0376
   96CHL1  H26A 9578   2.076   6.050   8.111 -0.5899  1.4500 -2.9114
   96CHL1  H26B 9579   2.083   6.132   8.279 -0.8537 -0.0651  0.9808
   96CHL1  H26C 9580   1.929   6.067   8.224  0.6352 -0.3602 -0.2103
   96CHL1   C27 9581   2.136   6.313   8.074  0.2239  1.2258  0.4080
   96CHL1  H27A 9582   2.199   6.234   8.030 -0.2988  1.4805 -0.8305
   96CHL1  H27B 9583   2.111   6.399   8.008  2.2921  0.1264 -1.9204
   96CHL1  H27C 9584   2.182   6.367   8.160  0.4798  0.1028  0.9904
   97OSM      N 9585   1.575   1.740  11.125  0.1482  0.5754 -0.2182
   97OSM    C15 9586   1.676   1.636  11.095 -0.4768  0.7024  0.1561
   97OSM   H15A 9587   1.756   1.664  11.028  2.1999 -2.8867  1.4849
   97OSM   H15B 9588   1.627   1.543  11.071 -2.3341  0.7024  3.3783
   97OSM   H15C 9589   1.744   1.619  11.177  0.2172 -2.4691 -0.9237
   97OSM    C14 9590   1.516   1.705  11.253 -0.2351 -0.1971 -0.0497
   97OSM   H14A 9591   1.435   1.769  11.285 -0.8782 -0.2399 -1.5150
   97OSM   H14B 9592   1.590   1.706  11.331  0.0493 -1.8902 -0.2442
   97OSM   H14C 9593   1.477   1.604  11.242 -2.9061  0.4043  2.5880
   97OSM    C13 9594   1.629   1.877  11.145  0.5487 -0.2678 -0.2501
   97OSM   H13A 9595   1.539   1.936  11.141 -2.1135 -3.7169  2.1431
   97OSM   H13B 9596   1.701   1.897  11.067 -0.3983  1.1542 -0.7905
   97OSM   H13C 9597   1.666   1.905  11.243 -0.4819  4.5640 -1.0011
   97OSM    C12 9598   1.473   1.736  11.015 -0.8069  0.0519  0.4832
   97OSM   H12A 9599   1.520   1.762  10.921  0.3228  0.5059  1.1418
   97OSM   H12B 9600   1.397   1.811  11.028 -0.9233  0.0191  0.0059
   97OSM    C11 9601   1.411   1.599  10.993  0.5420  0.0532 -0.2415
   97OSM   H11A 9602   1.476   1.518  10.955 -0.8318 -0.5163 -1.4811
   97OSM   H11B 9603   1.351   1.625  10.903  0.8820  0.3236 -0.3887
   97OSM      P 9604   1.334   1.411  11.143  0.0829 -0.1375  0.1183
   97OSM    O13 9605   1.470   1.371  11.179 -0.5176  0.1089 -0.2987
   97OSM    O14 9606   1.234   1.398  11.249 -0.4075 -0.0058 -0.1909
   97OSM    O11 9607   1.275   1.319  11.023 -0.2039  0.1753  0.5632
   97OSM    O12 9608   1.322   1.556  11.094 -0.0956 -0.4827 -0.8588
   97OSM    C1S 9609   1.187   1.366  10.923  0.3281 -0.5622 -0.2920
   97OSM    H1S 9610   1.236   1.435  10.852 -0.0559 -0.3743 -0.3780
   97OSM    H1T 9611   1.096   1.415  10.964  1.3746 -0.0249  1.4654
   97OSM     NF 9612   1.082   1.293  10.707  0.5339  0.7638  0.2857
   97OSM    HNF 9613   0.983   1.302  10.707  0.6512  2.2911 -0.1014
   97OSM    C2S 9614   1.144   1.248  10.827 -0.2906  0.5757  0.0615
   97OSM    H2S 9615   1.241   1.199  10.805 -0.8692 -0.3740 -0.4766
   97OSM    C3S 9616   1.064   1.143  10.905 -0.3137  0.0392  0.9929
   97OSM    H3S 9617   0.962   1.180  10.928  0.3052  0.5778  3.0720
   97OSM     O3 9618   1.116   1.097  11.035  0.2083  0.2346  1.2725
   97OSM    HO3 9619   1.170   1.174  11.058  2.6135 -0.4974 -1.3486
   97OSM    C4S 9620   1.067   1.022  10.813  0.0184  0.0727  0.2583
   97OSM    H4S 9621   1.168   0.978  10.814 -0.0704 -0.2419 -1.3597
   97OSM    C5S 9622   0.971   0.958  10.739 -0.3304  0.0446  0.5764
   97OSM    H5S 9623   0.869   0.997  10.751 -0.4954 -0.0792 -0.3528
   97OSM    C6S 9624   0.993   0.836  10.647  0.1583  0.0327  0.6912
   97OSM    H6S 9625   0.903   0.770  10.643  1.6697 -2.1419  1.0372
   97OSM    H6T 9626   1.072   0.768  10.683 -0.7417 -0.5613  1.6029
   97OSM    C7S 9627   1.029   0.872  10.506  0.3672 -0.2445  0.4715
   97OSM    H7S 9628   0.938   0.922  10.465  0.8933  1.5410  1.3558
   97OSM    H7T 9629   1.042   0.789  10.434 -1.6802  0.1777 -0.4533
   97OSM    C8S 9630   1.143   0.971  10.498 -0.2659 -0.0714  0.0139
   97OSM    H8S 9631   1.221   0.913  10.552 -0.4670  0.8747  1.3865
   97OSM    H8T 9632   1.105   1.059  10.554 -1.5374 -1.0513  0.7720
   97OSM    C9S 9633   1.199   1.005  10.360  0.4991 -0.3906  0.3865
   97OSM    H9S 9634   1.305   1.035  10.369  1.1673 -1.6305 -2.2767
   97OSM    H9T 9635   1.152   1.102  10.330  0.7842  0.0232  1.2642
   97OSM   C10S 9636   1.185   0.897  10.249 -0.4359  0.4613  0.1581
   97OSM   H10S 9637   1.077   0.874  10.235 -0.5144  2.2796 -3.1560
   97OSM   H10T 9638   1.231   0.802  10.284  0.0546  0.8654  0.6198
   97OSM   C11S 9639   1.247   0.947  10.119 -0.1385 -0.1268  0.0491
   97OSM   H11S 9640   1.356   0.950  10.139 -0.2327  0.1663  0.5127
   97OSM   H11T 9641   1.204   1.049  10.104 -0.9382 -0.3486  0.7522
   97OSM   C12S 9642   1.214   0.859   9.998  0.2036  0.1551 -0.7736
   97OSM   H12S 9643   1.105   0.858   9.978 -0.2166  0.2909  1.3239
   97OSM   H12T 9644   1.241   0.753  10.019  0.3692 -0.1105 -2.2018
   97OSM   C13S 9645   1.295   0.892   9.876  0.0180 -0.0334  0.6964
   97OSM   H13S 9646   1.398   0.885   9.915  0.2902 -0.3234 -0.0718
   97OSM   H13T 9647   1.272   0.994   9.836  1.9610  0.7177  1.3812
   97OSM   C14S 9648   1.282   0.785   9.766  0.1689  0.1553 -0.4245
   97OSM   H14S 9649   1.174   0.773   9.745  0.4635 -2.1091 -0.9043
   97OSM   H14T 9650   1.315   0.687   9.807 -0.7249 -0.4077 -1.0177
   97OSM   C15S 9651   1.353   0.816   9.630 -0.7062 -0.1455  0.1030
   97OSM   H15S 9652   1.460   0.818   9.658  0.3597 -1.6264 -3.3018
   97OSM   H15T 9653   1.311   0.912   9.592 -3.9569 -1.8735 -1.0998
   97OSM   C16S 9654   1.323   0.708   9.523  0.2273  1.3047 -0.0207
   97OSM   H16S 9655   1.214   0.702   9.503  0.6418  0.1152 -2.1297
   97OSM   H16T 9656   1.358   0.611   9.563 -0.1138  0.2718 -2.1242
   97OSM   C17S 9657   1.387   0.728   9.383 -0.8690  0.2432 -0.2347
   97OSM   H17S 9658   1.352   0.822   9.336 -0.3317  0.5244 -0.0829
   97OSM   H17T 9659   1.350   0.648   9.315  0.7723  0.2553 -1.2041
   97OSM   C18S 9660   1.538   0.728   9.397 -0.0797 -0.3515  0.1435
   97OSM   H18S 9661   1.579   0.632   9.435  1.5433 -0.1755 -1.0385
   97OSM   H18T 9662   1.570   0.810   9.466 -0.3968  0.9338 -1.1903
   97OSM   H18U 9663   1.583   0.746   9.297  0.6483  2.1774  0.8529
   97OSM    C1F 9664   1.145   1.356  10.611 -0.3838 -0.5702 -0.5335
   97OSM     OF 9665   1.259   1.390  10.624 -0.0349 -0.4169  0.4413
   97OSM    C2F 9666   1.063   1.383  10.496 -0.4315 -0.3311  0.7893
   97OSM    H2F 9667   0.983   1.458  10.515 -0.9292 -1.1200  1.9180
   97OSM    H2G 9668   1.021   1.296  10.440 -0.7621  0.0339  0.4551
   97OSM    C3F 9669   1.156   1.458  10.384  0.3893 -0.0848 -1.3264
   97OSM    H3F 9670   1.243   1.393  10.361  0.8994 -0.4541  1.2973
   97OSM    H3G 9671   1.189   1.561  10.410  0.7971 -0.5019 -0.0963
   97OSM    C4F 9672   1.079   1.468  10.256  0.4865 -0.0060  0.8920
   97OSM    H4F 9673   0.981   1.519  10.244  1.3662  1.0949 -3.1452
   97OSM    H4G 9674   1.054   1.365  10.221 -1.7530  0.5213  0.7354
   97OSM    C5F 9675   1.154   1.542  10.147  0.2855  0.2999 -0.3497
   97OSM    H5F 9676   1.259   1.510  10.157 -0.2712 -2.0412 -1.2822
   97OSM    H5G 9677   1.148   1.651  10.165 -1.6409  0.2704 -0.6126
   97OSM    C6F 9678   1.106   1.510  10.003  0.4817  0.5196  0.5348
   97OSM    H6F 9679   0.995   1.519  10.000  0.3963 -0.5430  0.0474
   97OSM    H6G 9680   1.137   1.407   9.978 -0.3936  0.5804 -0.9118
   97OSM    C7F 9681   1.148   1.613   9.903 -0.3477 -0.4270 -0.1665
   97OSM    H7F 9682   1.257   1.596   9.889 -0.1277  0.7084  0.0375
   97OSM    H7G 9683   1.130   1.715   9.943 -0.8257 -0.9931  1.1301
   97OSM    C8F 9684   1.073   1.618   9.766 -0.9545 -0.2814 -0.0381
   97OSM    H8F 9685   0.975   1.665   9.788 -0.2802  0.2906  1.9689
   97OSM    H8G 9686   1.065   1.512   9.734 -1.8361  0.0118 -0.8321
   97OSM    C9F 9687   1.143   1.700   9.658 -0.1005  0.0935 -0.4113
   97OSM    H9F 9688   1.176   1.797   9.697  2.5845 -0.8359 -0.1742
   97OSM   C10F 9689   1.176   1.660   9.532 -0.2748 -0.0528 -0.1245
   97OSM   H10F 9690   1.222   1.735   9.466  2.1156 -0.7059  0.6660
   97OSM   C11F 9691   1.125   1.531   9.469 -0.5341 -0.3341 -0.5173
   97OSM   H11F 9692   1.052   1.482   9.537 -0.1126  0.3702  0.4811
   97OSM   H11G 9693   1.207   1.457   9.468 -1.4252 -1.3309 -0.9649
   97OSM   C12F 9694   1.065   1.559   9.333  0.5499  0.3100 -0.1483
   97OSM   H12F 9695   1.140   1.605   9.265  0.5182  0.2394 -0.2302
   97OSM   H12G 9696   0.983   1.634   9.334 -0.4767 -0.7491  1.9088
   97OSM   C13F 9697   1.030   1.426   9.264  0.1001  0.1098 -0.1937
   97OSM   H13F 9698   0.934   1.388   9.303 -0.4757  3.0289  1.5456
   97OSM   H13G 9699   1.110   1.351   9.284  0.2531 -0.1649 -1.7048
   97OSM   C14F 9700   1.003   1.429   9.108 -0.9102 -0.2332 -0.3037
   97OSM   H14F 9701   1.097   1.462   9.059 -1.1375 -2.3772 -2.3692
   97OSM   H14G 9702   0.927   1.504   9.078 -2.1806 -0.5308  1.9534
   97OSM   C15F 9703   0.976   1.285   9.062  0.6336 -0.1959  0.0177
   97OSM   H15F 9704   0.888   1.239   9.111 -0.8400  0.3846 -1.9787
   97OSM   H15G 9705   1.070   1.231   9.088 -0.6165 -1.2499  2.7168
   97OSM   C16F 9706   0.947   1.284   8.911 -0.4030 -0.4403  0.6239
   97OSM   H16F 9707   1.043   1.312   8.863  0.0848  1.1563  2.3887
   97OSM   H16G 9708   0.877   1.364   8.881  0.0810 -0.5338 -0.8385
   97OSM   C17F 9709   0.889   1.152   8.869 -0.7524  0.6631 -0.3728
   97OSM   H17F 9710   0.807   1.133   8.941  1.8684  0.0234  2.6612
   97OSM   H17G 9711   0.963   1.070   8.875 -0.4933  0.7951 -1.5360
   97OSM   C18F 9712   0.834   1.148   8.727  0.0682 -0.4459 -0.0811
   97OSM   H18F 9713   0.898   1.194   8.649 -0.0431 -1.5620 -0.8603
   97OSM   H18G 9714   0.746   1.215   8.713  0.7140  0.2983 -0.6649
   97OSM   H18H 9715   0.800   1.048   8.692 -1.5743  0.0206  0.0987
   98OSM      N 9716   1.204   6.542  10.907  0.1018  0.1151 -0.0952
   98OSM    C15 9717   1.193   6.607  11.043 -0.0705  0.1202  0.1048
   98OSM   H15A 9718   1.111   6.675  11.062  0.2519 -0.1926  3.1408
   98OSM   H15B 9719   1.282   6.663  11.071  0.3640  0.0111 -1.0240
   98OSM   H15C 9720   1.181   6.529  11.116 -1.9276 -1.5262 -1.8563
   98OSM    C14 9721   1.066   6.500  10.864 -0.2209  0.3277 -0.1181
   98OSM   H14A 9722   1.038   6.412  10.919  0.4191  0.6548  0.7621
   98OSM   H14B 9723   1.062   6.482  10.757  1.0819  0.6263 -0.2371
   98OSM   H14C 9724   0.989   6.575  10.875  1.6936  2.1728  1.5089
   98OSM    C13 9725   1.247   6.654  10.817  0.0237 -0.1913 -0.0274
   98OSM   H13A 9726   1.353   6.672  10.831  0.3470 -1.0368 -1.2377
   98OSM   H13B 9727   1.200   6.747  10.847  1.2896 -0.3393  2.6065
   98OSM   H13C 9728   1.250   6.629  10.712 -0.3627 -0.0928 -0.0640
   98OSM    C12 9729   1.299   6.422  10.913 -0.0478  0.1478 -0.2232
   98OSM   H12A 9730   1.261   6.351  10.985 -1.5546  0.8934 -0.2324
   98OSM   H12B 9731   1.395   6.463  10.939 -1.3443  2.6413  1.0111
   98OSM    C11 9732   1.317   6.339  10.781 -0.6684 -0.3140  0.3905
   98OSM   H11A 9733   1.404   6.272  10.799  0.9398  2.2989  3.3392
   98OSM   H11B 9734   1.344   6.411  10.700 -0.3059  1.5318  2.0759
   98OSM      P 9735   1.193   6.115  10.777  0.0293 -0.0139  0.4048
   98OSM    O13 9736   1.317   6.042  10.730 -0.0916 -0.6766 -0.7647
   98OSM    O14 9737   1.159   6.108  10.921 -0.8277  0.2815  0.0356
   98OSM    O11 9738   1.067   6.067  10.692 -0.3406 -0.2674 -0.5234
   98OSM    O12 9739   1.199   6.271  10.736  0.1373  0.1555 -0.0626
   98OSM    C1S 9740   1.004   6.158  10.601 -0.4491 -0.4075  0.6646
   98OSM    H1S 9741   1.087   6.198  10.539 -2.0178  1.0948 -0.5656
   98OSM    H1T 9742   0.964   6.248  10.653  0.1465 -1.1685  2.5421
   98OSM     NF 9743   0.841   6.195  10.417  0.1318  0.1744 -0.3273
   98OSM    HNF 9744   0.762   6.252  10.440 -0.7784 -1.5474  1.0914
   98OSM    C2S 9745   0.891   6.090  10.511 -0.6036  0.0997  0.5050
   98OSM    H2S 9746   0.933   6.007  10.450 -0.3494 -0.2208  1.1091
   98OSM    C3S 9747   0.781   6.023  10.601  0.5462 -0.5407  0.3047
   98OSM    H3S 9748   0.725   6.103  10.654  0.3813 -1.1199  1.0350
   98OSM     O3 9749   0.837   5.926  10.689  0.0825 -0.8282  0.0874
   98OSM    HO3 9750   0.929   5.945  10.712 -0.5251  1.3993  0.9909
   98OSM    C4S 9751   0.679   5.950  10.516  0.3373  0.2833 -0.0467
   98OSM    H4S 9752   0.719   5.855  10.477  2.3511  1.3846 -0.8073
   98OSM    C5S 9753   0.559   5.990  10.477 -0.6808 -0.8505 -0.4078
   98OSM    H5S 9754   0.526   6.093  10.495  1.2176 -0.5291  1.7089
   98OSM    C6S 9755   0.471   5.909  10.386 -0.4689  0.2877 -0.2371
   98OSM    H6S 9756   0.363   5.917  10.414 -0.7728 -3.0484 -0.1215
   98OSM    H6T 9757   0.496   5.802  10.399  1.9364  0.9438  1.0895
   98OSM    C7S 9758   0.492   5.958  10.244  0.0252  0.4953  0.3843
   98OSM    H7S 9759   0.462   6.064  10.227 -1.7486 -0.1486 -0.7261
   98OSM    H7T 9760   0.418   5.904  10.181 -0.0583  0.2340  0.7070
   98OSM    C8S 9761   0.626   5.921  10.180 -0.1961 -0.2016  0.1647
   98OSM    H8S 9762   0.643   5.814  10.205 -1.3790 -0.8279 -1.5192
   98OSM    H8T 9763   0.702   5.980  10.235  0.7045 -0.5582 -0.6904
   98OSM    C9S 9764   0.618   5.958  10.029 -0.5857 -0.6299  0.1148
   98OSM    H9S 9765   0.586   6.064  10.024 -1.2278 -0.6129  2.9066
   98OSM    H9T 9766   0.538   5.897   9.982 -1.0137 -0.2780  0.3827
   98OSM   C10S 9767   0.745   5.929   9.943 -0.1953 -0.0791 -1.0265
   98OSM   H10S 9768   0.764   5.820   9.938 -2.3357 -0.5779  0.2686
   98OSM   H10T 9769   0.838   5.978   9.981  0.8839 -1.2524 -2.0588
   98OSM   C11S 9770   0.725   5.987   9.801  0.8040  0.1985  0.4467
   98OSM   H11S 9771   0.825   6.004   9.756  0.9200 -2.0495 -0.2892
   98OSM   H11T 9772   0.678   6.086   9.816  0.9435  0.4753 -0.8324
   98OSM   C12S 9773   0.640   5.888   9.722  0.3093  0.9337  0.4895
   98OSM   H12S 9774   0.536   5.923   9.738 -0.3787  0.1890 -1.8922
   98OSM   H12T 9775   0.652   5.780   9.746  0.3991  1.0366  0.9042
   98OSM   C13S 9776   0.679   5.920   9.571 -0.7779 -0.3088 -0.2800
   98OSM   H13S 9777   0.780   5.886   9.542 -0.2587  0.8746  0.0964
   98OSM   H13T 9778   0.704   6.029   9.572  0.4226 -0.5558  2.0435
   98OSM   C14S 9779   0.587   5.876   9.457  0.4491 -0.7273 -0.0264
   98OSM   H14S 9780   0.511   5.957   9.446  0.4256 -0.7951 -0.4034
   98OSM   H14T 9781   0.538   5.779   9.477  0.4744 -0.6983  0.1711
   98OSM   C15S 9782   0.659   5.864   9.323 -0.3463  0.6315 -0.4808
   98OSM   H15S 9783   0.717   5.771   9.343 -0.7863  0.5583  0.5398
   98OSM   H15T 9784   0.725   5.953   9.323 -0.5358  0.8684  2.0491
   98OSM   C16S 9785   0.578   5.831   9.205 -0.2412  0.0954 -0.4598
   98OSM   H16S 9786   0.495   5.901   9.186 -1.7414 -1.7754 -1.1279
   98OSM   H16T 9787   0.535   5.730   9.222 -1.6251  0.6912 -0.3786
   98OSM   C17S 9788   0.675   5.819   9.081  0.3364 -0.0437  0.2001
   98OSM   H17S 9789   0.760   5.754   9.112  0.0764 -0.7928 -0.6144
   98OSM   H17T 9790   0.716   5.918   9.052  1.1962 -0.1758  0.9231
   98OSM   C18S 9791   0.595   5.762   8.963  0.4770 -0.5161  0.5949
   98OSM   H18S 9792   0.505   5.825   8.946 -2.5027 -3.9934  1.9697
   98OSM   H18T 9793   0.560   5.658   8.979  1.5580 -0.9701  0.0808
   98OSM   H18U 9794   0.660   5.771   8.874  0.2280  0.3891  0.4909
   98OSM    C1F 9795   0.917   6.229  10.314  0.0268  0.0178  0.3111
   98OSM     OF 9796   1.005   6.157  10.271  0.5893 -0.4319  0.2388
   98OSM    C2F 9797   0.900   6.366  10.261 -0.3929 -0.7741  0.2360
   98OSM    H2F 9798   0.962   6.439  10.317  0.2433  0.7474 -2.3062
   98OSM    H2G 9799   0.794   6.394  10.279 -0.0227 -1.2034  3.8826
   98OSM    C3F 9800   0.941   6.394  10.119 -0.4146 -0.5320 -0.0995
   98OSM    H3F 9801   1.049   6.368  10.114 -0.2023  0.0932  0.9785
   98OSM    H3G 9802   0.929   6.503  10.101 -1.2378 -0.6771 -0.4647
   98OSM    C4F 9803   0.846   6.334  10.014  0.0117  0.0163 -0.4920
   98OSM    H4F 9804   0.740   6.332  10.046  0.0867 -1.1163 -0.2974
   98OSM    H4G 9805   0.869   6.226  10.007 -2.3354 -0.5844  0.1886
   98OSM    C5F 9806   0.862   6.396   9.878  0.1974  0.2180  0.3289
   98OSM    H5F 9807   0.840   6.503   9.892  0.7998  0.9931 -3.4591
   98OSM    H5G 9808   0.785   6.355   9.810 -0.9112 -0.1256  1.7531
   98OSM    C6F 9809   1.002   6.395   9.815  0.1633 -0.7768  0.3232
   98OSM    H6F 9810   1.057   6.301   9.838  0.7798 -0.0826  1.8216
   98OSM    H6G 9811   1.065   6.473   9.863 -1.1186 -0.1733  1.1165
   98OSM    C7F 9812   1.012   6.433   9.665  0.8239  0.3015 -0.2306
   98OSM    H7F 9813   1.117   6.446   9.630  0.7541  0.5824 -0.3317
   98OSM    H7G 9814   0.956   6.525   9.640 -1.6381 -1.8969 -3.7432
   98OSM    C8F 9815   0.955   6.322   9.571 -0.5048 -0.2960 -0.5073
   98OSM    H8F 9816   0.845   6.313   9.582 -0.4663  1.0304  1.4854
   98OSM    H8G 9817   1.000   6.224   9.598  2.3621  1.3521  1.2091
   98OSM    C9F 9818   0.991   6.356   9.427 -0.6713  0.4115  0.1195
   98OSM    H9F 9819   1.097   6.366   9.398 -0.4601 -0.9909  0.3586
   98OSM   C10F 9820   0.899   6.362   9.332 -0.4157 -0.1640  0.1242
   98OSM   H10F 9821   0.936   6.389   9.231  1.6795  3.2315  1.6062
   98OSM   C11F 9822   0.750   6.324   9.335 -0.3399 -0.0309 -0.0902
   98OSM   H11F 9823   0.691   6.418   9.325 -0.2865 -0.0858 -1.0462
   98OSM   H11G 9824   0.713   6.264   9.421  1.0359 -3.1976 -1.5423
   98OSM   C12F 9825   0.707   6.243   9.207  0.4114 -0.4618 -0.9133
   98OSM   H12F 9826   0.617   6.189   9.245  1.2469 -0.1276  1.7264
   98OSM   H12G 9827   0.790   6.171   9.188  0.2329 -1.0485  0.3805
   98OSM   C13F 9828   0.679   6.330   9.086 -0.2296  0.0667  0.2777
   98OSM   H13F 9829   0.773   6.384   9.060 -0.3366  0.4137  0.6040
   98OSM   H13G 9830   0.603   6.408   9.109 -0.3200 -0.2794  1.1893
   98OSM   C14F 9831   0.626   6.247   8.971  0.0382  0.2775  0.6834
   98OSM   H14F 9832   0.543   6.177   8.998  2.3349 -2.7818  0.3285
   98OSM   H14G 9833   0.711   6.182   8.941 -0.3038  0.0850  0.1138
   98OSM   C15F 9834   0.583   6.344   8.852  0.0675 -0.5918  0.1443
   98OSM   H15F 9835   0.655   6.426   8.831  0.3349 -1.1399 -1.1884
   98OSM   H15G 9836   0.487   6.392   8.880 -0.5247 -1.9814  0.5905
   98OSM   C16F 9837   0.556   6.265   8.721 -0.0455  0.3843 -0.2104
   98OSM   H16F 9838   0.500   6.173   8.750  2.0389 -0.6807  0.7033
   98OSM   H16G 9839   0.644   6.206   8.687 -1.2444 -1.8162  0.3097
   98OSM   C17F 9840   0.482   6.338   8.604  0.6724  0.2516  0.2752
   98OSM   H17F 9841   0.495   6.266   8.520  1.9892  0.6752  0.0962
   98OSM   H17G 9842   0.538   6.430   8.578  1.3187 -0.5409 -1.2567
   98OSM   C18F 9843   0.332   6.370   8.626  0.3907 -0.3977  1.0095
   98OSM   H18F 9844   0.319   6.438   8.713 -0.5749 -0.7138  1.1245
   98OSM   H18G 9845   0.273   6.276   8.631  0.9353 -0.8005  0.1335
   98OSM   H18H 9846   0.300   6.425   8.535  0.8515 -0.3921  0.8479
   99OSM      N 9847   4.391   6.064  11.107  0.3205  0.1834  0.0148
   99OSM    C15 9848   4.434   5.967  11.222  0.2744 -0.5743  1.2092
   99OSM   H15A 9849   4.351   5.943  11.287 -1.0200  0.3443 -0.0247
   99OSM   H15B 9850   4.509   6.020  11.278 -0.5660 -0.6851  2.4655
   99OSM   H15C 9851   4.482   5.876  11.189  1.1127  0.5405 -0.8438
   99OSM    C14 9852   4.340   6.188  11.175  0.1013  0.3104  0.1608
   99OSM   H14A 9853   4.421   6.236  11.227  0.5393  1.5008 -1.5070
   99OSM   H14B 9854   4.262   6.162  11.245 -2.3301  5.2551 -0.2738
   99OSM   H14C 9855   4.305   6.252  11.095  2.0259  1.6209  0.2884
   99OSM    C13 9856   4.512   6.103  11.026 -0.1953 -0.7435 -0.8533
   99OSM   H13A 9857   4.547   6.012  10.981  0.5764 -2.9965  3.6624
   99OSM   H13B 9858   4.593   6.128  11.093  0.8822  0.2153 -2.4578
   99OSM   H13C 9859   4.494   6.185  10.957  0.2506 -0.2831 -0.4304
   99OSM    C12 9860   4.294   6.000  11.012  0.2730 -0.1315  0.8492
   99OSM   H12A 9861   4.204   5.967  11.061 -1.4724  1.7558 -0.8957
   99OSM   H12B 9862   4.339   5.911  10.970 -0.4677 -0.4892  0.8010
   99OSM    C11 9863   4.238   6.094  10.896  0.8771  0.1086  0.4140
   99OSM   H11A 9864   4.184   6.024  10.828 -0.5796  1.7301 -0.1513
   99OSM   H11B 9865   4.327   6.129  10.840  1.5954 -3.1901 -0.7653
   99OSM      P 9866   4.160   6.339  10.872  0.1586 -0.4391 -0.0341
   99OSM    O13 9867   4.036   6.418  10.886  0.0879  0.9477 -0.6298
   99OSM    O14 9868   4.285   6.401  10.924  0.9855  0.1120  0.2128
   99OSM    O11 9869   4.174   6.288  10.720 -0.2444 -0.1746  0.0850
   99OSM    O12 9870   4.144   6.197  10.940 -0.5788 -0.2630  0.0397
   99OSM    C1S 9871   4.050   6.241  10.668  1.4018  0.2814 -0.3830
   99OSM    H1S 9872   3.964   6.311  10.680 -0.0568 -1.4902  0.0054
   99OSM    H1T 9873   4.012   6.148  10.716 -2.1518  0.5120 -2.4234
   99OSM     NF 9874   3.958   6.148  10.452 -0.0372 -0.3701  0.0219
   99OSM    HNF 9875   3.940   6.050  10.451 -0.0829 -0.3708 -1.2008
   99OSM    C2S 9876   4.077   6.199  10.522  0.1754 -0.6625  0.2855
   99OSM    H2S 9877   4.113   6.294  10.478 -0.8360 -0.0319  0.7845
   99OSM    C3S 9878   4.196   6.102  10.517 -0.3882  0.2726  0.2927
   99OSM    H3S 9879   4.169   6.014  10.580 -1.0797  0.8132  0.7693
   99OSM     O3 9880   4.320   6.155  10.560  0.1721  0.0782 -0.2237
   99OSM    HO3 9881   4.287   6.214  10.628 -0.2558 -2.7756  2.3227
   99OSM    C4S 9882   4.225   6.051  10.376 -0.0765 -0.7176 -0.0862
   99OSM    H4S 9883   4.195   6.119  10.295  0.3493 -1.4919 -0.9089
   99OSM    C5S 9884   4.287   5.939  10.330  0.4992  0.1570  0.2950
   99OSM    H5S 9885   4.316   5.862  10.403  0.0209 -0.7505 -0.4606
   99OSM    C6S 9886   4.309   5.908  10.181  0.0082 -0.4568 -0.1640
   99OSM    H6S 9887   4.280   5.803  10.159  1.0631 -0.5399 -1.2186
   99OSM    H6T 9888   4.420   5.912  10.176  0.2998 -1.0315  3.2299
   99OSM    C7S 9889   4.266   6.007  10.068 -0.2614  0.0013 -0.1887
   99OSM    H7S 9890   4.328   6.098  10.080 -0.3390  0.1666 -0.9696
   99OSM    H7T 9891   4.160   6.037  10.085 -0.3940 -0.1628 -0.7051
   99OSM    C8S 9892   4.272   5.965   9.922 -0.5384  0.1826  0.3909
   99OSM    H8S 9893   4.252   6.060   9.868 -2.8545  0.5670  1.7884
   99OSM    H8T 9894   4.183   5.901   9.901 -0.2736  0.1515 -0.7010
   99OSM    C9S 9895   4.391   5.881   9.886 -0.4230  0.1014  0.9503
   99OSM    H9S 9896   4.390   5.789   9.948 -1.3811  0.1986  1.0969
   99OSM    H9T 9897   4.481   5.941   9.911 -0.1090 -0.5984  1.5100
   99OSM   C10S 9898   4.395   5.835   9.738  0.6656 -0.1449 -0.2323
   99OSM   H10S 9899   4.305   5.771   9.722 -0.4526  2.0053 -3.3353
   99OSM   H10T 9900   4.483   5.769   9.723 -0.9052 -2.3277 -0.5043
   99OSM   C11S 9901   4.396   5.956   9.645 -0.8398 -0.0684 -0.1334
   99OSM   H11S 9902   4.472   6.025   9.687  0.3868 -2.0554  1.1311
   99OSM   H11T 9903   4.298   6.008   9.658  0.2733  2.0406  0.1634
   99OSM   C12S 9904   4.413   5.925   9.498  0.4468  0.6905 -0.3220
   99OSM   H12S 9905   4.394   6.014   9.435  1.9166 -0.1253 -1.9960
   99OSM   H12T 9906   4.520   5.917   9.470  0.8204  2.9090  0.2921
   99OSM   C13S 9907   4.333   5.798   9.455  0.2601 -0.2960 -0.1418
   99OSM   H13S 9908   4.224   5.819   9.453  0.3095 -0.0572 -0.5233
   99OSM   H13T 9909   4.351   5.717   9.528 -1.0936 -2.2574 -1.8795
   99OSM   C14S 9910   4.379   5.754   9.316  0.4534  0.0612  0.0847
   99OSM   H14S 9911   4.345   5.654   9.283  2.4071 -0.2851 -1.0288
   99OSM   H14T 9912   4.489   5.765   9.331  0.2537 -0.4694  2.3948
   99OSM   C15S 9913   4.344   5.856   9.199 -0.3397  0.0208  0.5645
   99OSM   H15S 9914   4.403   5.835   9.107 -1.6239  2.1209 -0.8430
   99OSM   H15T 9915   4.353   5.966   9.217 -1.4891  0.3692 -0.7967
   99OSM   C16S 9916   4.188   5.846   9.156 -0.9749  0.3425 -0.5457
   99OSM   H16S 9917   4.133   5.857   9.252  0.1740 -1.6974  0.4030
   99OSM   H16T 9918   4.156   5.746   9.120 -0.1973  0.4544 -1.5636
   99OSM   C17S 9919   4.144   5.950   9.055 -0.1817  0.1310 -0.1823
   99OSM   H17S 9920   4.183   6.050   9.083 -2.1737  1.8867 -3.1041
   99OSM   H17T 9921   4.035   5.972   9.046 -0.0788  1.5061  1.3536
   99OSM   C18S 9922   4.182   5.914   8.912  0.2915 -0.1794 -0.5212
   99OSM   H18S 9923   4.291   5.911   8.891  0.4478 -0.5115  0.3286
   99OSM   H18T 9924   4.147   5.985   8.833  2.7059  2.5023  0.6338
   99OSM   H18U 9925   4.132   5.819   8.884 -1.9104  0.6559  0.3970
   99OSM    C1F 9926   3.856   6.234  10.438  0.4066  0.4949 -0.1642
   99OSM     OF 9927   3.876   6.352  10.454 -0.1592  0.9969 -0.4192
   99OSM    C2F 9928   3.720   6.174  10.413 -0.9060  0.4107 -0.2030
   99OSM    H2F 9929   3.673   6.148  10.510  1.8103 -2.8413  0.4063
   99OSM    H2G 9930   3.728   6.074  10.366  1.2409 -0.3853  1.6910
   99OSM    C3F 9931   3.637   6.260  10.321  0.2555  0.0980 -0.2597
   99OSM    H3F 9932   3.624   6.361  10.364 -1.6338 -0.0237 -0.4750
   99OSM    H3G 9933   3.703   6.274  10.233 -0.8359  1.5332 -0.8764
   99OSM    C4F 9934   3.508   6.197  10.276  0.0185  0.0198 -0.2059
   99OSM    H4F 9935   3.433   6.202  10.358 -0.0126  1.0128 -0.2860
   99OSM    H4G 9936   3.534   6.091  10.253  0.4230  0.4257 -1.7368
   99OSM    C5F 9937   3.445   6.262  10.154  0.9014  0.4464  0.5583
   99OSM    H5F 9938   3.428   6.371  10.163  0.9405  0.4320  0.8020
   99OSM    H5G 9939   3.345   6.215  10.140  1.8964 -1.7041  0.3365
   99OSM    C6F 9940   3.525   6.228  10.031  0.5322  0.4519  0.2303
   99OSM    H6F 9941   3.519   6.117  10.027 -0.4683  0.5241 -0.9187
   99OSM    H6G 9942   3.632   6.259  10.028  0.6225  0.2163  0.7801
   99OSM    C7F 9943   3.452   6.277   9.903  0.2919 -0.8537 -0.4871
   99OSM    H7F 9944   3.461   6.388   9.903 -0.2555 -0.7972 -1.2032
   99OSM    H7G 9945   3.342   6.265   9.920  0.1219  2.0131  1.2028
   99OSM    C8F 9946   3.516   6.241   9.769  0.2880  0.3609  0.4136
   99OSM    H8F 9947   3.484   6.139   9.740  0.5243  0.1684  0.8303
   99OSM    H8G 9948   3.627   6.239   9.767  0.2890  0.2708 -1.9774
   99OSM    C9F 9949   3.465   6.326   9.655  0.1766  0.7663 -0.6898
   99OSM    H9F 9950   3.380   6.389   9.685 -2.9225 -3.0833 -0.5944
   99OSM   C10F 9951   3.514   6.328   9.528  0.4427  0.5309  0.2613
   99OSM   H10F 9952   3.461   6.401   9.465 -1.8065  0.6129  2.0959
   99OSM   C11F 9953   3.622   6.233   9.473  0.1748 -1.5331  0.3504
   99OSM   H11F 9954   3.587   6.128   9.464 -0.4695 -1.4227  1.4181
   99OSM   H11G 9955   3.713   6.235   9.536 -0.0100 -0.4463  0.6015
   99OSM   C12F 9956   3.648   6.284   9.329 -0.0154 -0.1075 -0.4120
   99OSM   H12F 9957   3.730   6.224   9.285  1.3233  1.7063 -0.4957
   99OSM   H12G 9958   3.681   6.390   9.326  1.6959 -0.5885  0.3695
   99OSM   C13F 9959   3.533   6.278   9.235 -0.5838 -1.0413  0.9167
   99OSM   H13F 9960   3.437   6.330   9.255 -1.9717 -1.7000 -3.0422
   99OSM   H13G 9961   3.511   6.170   9.224 -0.2134 -1.0868  0.5764
   99OSM   C14F 9962   3.582   6.323   9.097 -0.3648  0.9868 -0.3194
   99OSM   H14F 9963   3.670   6.261   9.071 -2.5460 -2.1445 -0.8068
   99OSM   H14G 9964   3.613   6.429   9.114  1.4661  0.3652  0.4814
   99OSM   C15F 9965   3.481   6.300   8.991 -0.0379  0.4475 -0.3728
   99OSM   H15F 9966   3.397   6.368   9.018 -0.5484  0.3608 -1.6948
   99OSM   H15G 9967   3.461   6.191   8.999  1.7533  0.0820 -0.4492
   99OSM   C16F 9968   3.508   6.350   8.853 -0.3097 -0.6519  0.3731
   99OSM   H16F 9969   3.613   6.321   8.829  1.2327  2.0881  3.1042
   99OSM   H16G 9970   3.507   6.461   8.848 -0.0347 -0.5802  1.5634
   99OSM   C17F 9971   3.415   6.295   8.747  0.2569 -0.2442 -0.3030
   99OSM   H17F 9972   3.311   6.304   8.785  0.0874 -2.9994  0.0435
   99OSM   H17G 9973   3.432   6.186   8.737 -2.7839 -0.8882  0.6270
   99OSM   C18F 9974   3.441   6.361   8.607  0.2186  0.4025  0.0852
   99OSM   H18F 9975   3.355   6.342   8.540  1.7336 -1.4040 -1.4609
   99OSM   H18G 9976   3.531   6.312   8.565  0.4750  1.6738 -0.9105
   99OSM   H18H 9977   3.455   6.470   8.620  2.5158  0.3480 -1.5152
  100OSM      N 9978   2.657   2.234  10.502 -0.3830  0.5073  0.3456
  100OSM    C15 9979   2.699   2.252  10.646 -0.3127 -0.0162  0.3707
  100OSM   H15A 9980   2.786   2.189  10.658  0.1001  0.3390 -0.6282
  100OSM   H15B 9981   2.621   2.234  10.719 -0.1551 -0.8410  0.3411
  100OSM   H15C 9982   2.737   2.354  10.645 -1.1293  0.2981  0.4065
  100OSM    C14 9983   2.605   2.087  10.494  0.4561  0.3124 -0.1676
  100OSM   H14A 9984   2.686   2.016  10.494  0.2609 -0.0093 -2.8204
  100OSM   H14B 9985   2.550   2.069  10.403  0.1718 -2.3947  0.4607
  100OSM   H14C 9986   2.539   2.075  10.579  0.0118 -0.1108 -0.5659
  100OSM    C13 9987   2.545   2.325  10.478  0.0267 -0.1335 -0.3151
  100OSM   H13A 9988   2.577   2.426  10.461  0.5669  0.0483  1.5556
  100OSM   H13B 9989   2.483   2.337  10.566  2.8346  1.0481  1.6644
  100OSM   H13C 9990   2.490   2.296  10.389 -1.9322  0.4622  0.6311
  100OSM    C12 9991   2.779   2.251  10.411 -0.3023 -0.1174  0.0203
  100OSM   H12A 9992   2.817   2.349  10.438  0.6587 -0.9132  1.7509
  100OSM   H12B 9993   2.747   2.260  10.309  1.4828  0.8728 -0.4882
  100OSM    C11 9994   2.897   2.151  10.413  0.1984 -0.5541 -0.0230
  100OSM   H11A 9995   2.977   2.187  10.344  0.6168 -1.8839 -0.2476
  100OSM   H11B 9996   2.872   2.051  10.373 -2.5309 -0.2439  0.7264
  100OSM      P 9997   3.042   2.026  10.587 -0.3057 -0.5815 -0.0403
  100OSM    O13 9998   3.118   2.071  10.704 -0.1933 -0.4821 -0.5839
  100OSM    O14 9999   2.961   1.906  10.609 -0.1239 -0.1419 -0.3261
  100OSM    O1110000   3.141   2.006  10.466 -0.3111 -0.4483 -0.2346
  100OSM    O1210001   2.956   2.151  10.541  0.5723  0.1690 -0.3448
  100OSM    C1S10002   3.140   1.899  10.370 -0.5157  0.6067 -0.7124
  100OSM    H1S10003   3.041   1.848  10.362 -0.2183 -0.1469  0.3060
  100OSM    H1T10004   3.219   1.833  10.412 -1.0848  2.3980  3.7365
  100OSM     NF10005   3.194   1.835  10.144 -0.4309  0.5720  0.4328
  100OSM    HNF10006   3.289   1.812  10.122  0.2104  2.0061  1.5166
  100OSM    C2S10007   3.183   1.947  10.232  0.0608 -0.2187 -0.4424
  100OSM    H2S10008   3.106   2.020  10.198  2.1184  2.3822  0.1489
  100OSM    C3S10009   3.319   2.037  10.225  0.5047  0.0601  0.0498
  100OSM    H3S10010   3.402   1.969  10.255  0.7164  0.5720  0.6337
  100OSM     O310011   3.330   2.126  10.339  0.0768  0.6697  0.1274
  100OSM    HO310012   3.268   2.090  10.403 -0.4342 -2.3970 -1.9218
  100OSM    C4S10013   3.346   2.100  10.085  0.3779  0.6442 -0.0433
  100OSM    H4S10014   3.374   2.028  10.006 -3.1247 -1.6527  0.5497
  100OSM    C5S10015   3.338   2.231  10.051 -0.2415 -0.3503  0.2625
  100OSM    H5S10016   3.312   2.306  10.128 -1.5422  0.2517 -0.7064
  100OSM    C6S10017   3.372   2.295   9.910  0.1697  1.0646 -0.1434
  100OSM    H6S10018   3.409   2.398   9.929  1.6482  0.4937  0.1807
  100OSM    H6T10019   3.279   2.315   9.852  0.7677  0.4504 -1.3448
  100OSM    C7S10020   3.468   2.217   9.825 -0.3498  0.0490  0.3816
  100OSM    H7S10021   3.422   2.117   9.811 -1.9765  0.7304  0.6499
  100OSM    H7T10022   3.568   2.219   9.873  0.9826  2.6071 -2.1936
  100OSM    C8S10023   3.490   2.285   9.687  0.9052 -0.2778 -0.5776
  100OSM    H8S10024   3.499   2.395   9.698 -0.5877 -0.0238 -1.6452
  100OSM    H8T10025   3.398   2.264   9.629 -0.7679  0.7745  1.6019
  100OSM    C9S10026   3.609   2.235   9.603 -0.6552 -0.5534  0.6889
  100OSM    H9S10027   3.595   2.125   9.593  2.0974 -0.8371 -0.8304
  100OSM    H9T10028   3.700   2.252   9.664  0.5193 -0.0944 -1.1217
  100OSM   C10S10029   3.612   2.291   9.458 -0.0677 -0.1137 -0.3275
  100OSM   H10S10030   3.635   2.399   9.466  1.5402 -0.1502 -3.1710
  100OSM   H10T10031   3.513   2.273   9.411  0.7164  3.2617 -3.7304
  100OSM   C11S10032   3.719   2.218   9.384 -0.0888  0.2350 -0.5216
  100OSM   H11S10033   3.695   2.112   9.364  0.5658  0.1708 -1.0091
  100OSM   H11T10034   3.815   2.221   9.438 -0.3144  0.8327 -0.1351
  100OSM   C12S10035   3.741   2.285   9.246 -0.5810  0.0798  0.5652
  100OSM   H12S10036   3.776   2.389   9.267 -1.6198  0.3121  1.2467
  100OSM   H12T10037   3.641   2.294   9.198  0.0524 -1.9570 -1.2589
  100OSM   C13S10038   3.837   2.205   9.155  1.0153 -0.2152 -0.1669
  100OSM   H13S10039   3.786   2.108   9.140  1.2017 -0.5784  1.3844
  100OSM   H13T10040   3.940   2.193   9.197  2.3736  3.3720 -2.0657
  100OSM   C14S10041   3.864   2.284   9.022 -0.4212  0.1310 -0.6499
  100OSM   H14S10042   3.890   2.390   9.043 -0.3302 -0.1365  0.6506
  100OSM   H14T10043   3.770   2.301   8.965 -0.7869 -0.6177 -0.2892
  100OSM   C15S10044   3.969   2.215   8.937 -0.2573  0.4132  0.5312
  100OSM   H15S10045   3.930   2.114   8.913  1.0288  0.0051  0.0833
  100OSM   H15T10046   4.070   2.209   8.982 -0.1912 -0.4105  0.2847
  100OSM   C16S10047   3.994   2.280   8.795 -0.4274  0.8337 -0.0130
  100OSM   H16S10048   4.058   2.370   8.813  1.0052 -0.4594  1.8014
  100OSM   H16T10049   3.899   2.321   8.754 -1.0484  2.2993  2.6164
  100OSM   C17S10050   4.044   2.183   8.691  0.3773  0.0400 -0.5112
  100OSM   H17S10051   4.003   2.086   8.728 -1.5298  1.1965  0.5544
  100OSM   H17T10052   4.155   2.181   8.699  0.4328  0.6635 -1.1207
  100OSM   C18S10053   3.990   2.205   8.556 -0.2127  0.6470  0.4705
  100OSM   H18S10054   4.051   2.281   8.503  0.3568  0.6456  1.1109
  100OSM   H18T10055   3.880   2.218   8.562 -0.2631  0.5352 -0.1405
  100OSM   H18U10056   4.001   2.111   8.497  0.5955  0.9938  0.0563
  100OSM    C1F10057   3.106   1.760  10.087  0.2199  0.0107  0.5673
  100OSM     OF10058   2.986   1.764  10.110  0.6592 -0.1558 -0.4379
  100OSM    C2F10059   3.152   1.674   9.971 -0.1463 -0.8123 -0.1044
  100OSM    H2F10060   3.232   1.603  10.001 -0.9048 -2.8620 -2.6008
  100OSM    H2G10061   3.189   1.740   9.890 -0.1059  0.6404  1.0485
  100OSM    C3F10062   3.046   1.576   9.908 -0.0280 -1.1140  0.4058
  100OSM    H3F10063   2.958   1.636   9.878 -0.0363 -0.4008  1.7446
  100OSM    H3G10064   3.014   1.504   9.986 -0.3359  0.0436  1.3909
  100OSM    C4F10065   3.090   1.491   9.784 -0.1623  0.7049  0.0162
  100OSM    H4F10066   3.008   1.431   9.739  1.4948 -1.6517 -0.0501
  100OSM    H4G10067   3.166   1.418   9.820 -1.0139  1.2723  3.3509
  100OSM    C5F10068   3.141   1.583   9.671 -0.0195 -0.3248  1.0580
  100OSM    H5F10069   3.236   1.638   9.692  0.4491 -0.5370 -0.3649
  100OSM    H5G10070   3.058   1.656   9.656  1.0759  0.7517 -0.0974
  100OSM    C6F10071   3.146   1.503   9.540  0.8435 -0.1840 -0.4136
  100OSM    H6F10072   3.060   1.434   9.527 -0.2488  1.2700 -1.1683
  100OSM    H6G10073   3.238   1.442   9.550  0.9291  0.0891  0.5894
  100OSM    C7F10074   3.159   1.595   9.414 -0.5065  0.4013 -0.3817
  100OSM    H7F10075   3.235   1.672   9.437  1.5701 -1.5727 -0.2668
  100OSM    H7G10076   3.061   1.646   9.418  0.8061  3.0018  0.6770
  100OSM    C8F10077   3.196   1.518   9.285 -0.0757  0.3110  0.1528
  100OSM    H8F10078   3.291   1.463   9.297 -1.4411 -2.5278 -1.1375
  100OSM    H8G10079   3.215   1.594   9.206  2.4635 -0.3048  0.0947
  100OSM    C9F10080   3.093   1.417   9.227 -0.6059 -0.6163 -0.0885
  100OSM    H9F10081   2.991   1.418   9.270  0.9693  0.7960  4.2173
  100OSM   C10F10082   3.127   1.355   9.115  0.0061  0.6477 -0.5913
  100OSM   H10F10083   3.053   1.289   9.068  0.4936  0.0316 -0.4997
  100OSM   C11F10084   3.255   1.360   9.037 -0.5711  0.6113 -0.9057
  100OSM   H11F10085   3.277   1.263   8.987  2.0482  1.5559 -1.7914
  100OSM   H11G10086   3.349   1.368   9.096 -0.9923 -1.9255  0.2312
  100OSM   C12F10087   3.263   1.479   8.943 -0.7097 -0.6719  0.2228
  100OSM   H12F10088   3.368   1.494   8.909 -1.6552 -0.9869 -3.1449
  100OSM   H12G10089   3.233   1.576   8.988 -0.4339 -0.5280  0.1037
  100OSM   C13F10090   3.189   1.448   8.814  0.1067 -0.7582 -0.2936
  100OSM   H13F10091   3.097   1.387   8.830  0.8850 -2.3672 -1.7064
  100OSM   H13G10092   3.254   1.375   8.762 -2.1175 -0.2677 -4.1103
  100OSM   C14F10093   3.194   1.567   8.712  0.4605 -0.7306 -0.5411
  100OSM   H14F10094   3.298   1.604   8.728  0.3444 -0.7572  0.3256
  100OSM   H14G10095   3.127   1.651   8.742 -0.4356 -2.0025  1.2038
  100OSM   C15F10096   3.175   1.528   8.566 -0.0231  0.5035 -0.6738
  100OSM   H15F10097   3.068   1.499   8.560  0.6409 -2.2270 -0.6598
  100OSM   H15G10098   3.227   1.436   8.532 -1.4513 -0.4022 -0.4900
  100OSM   C16F10099   3.197   1.642   8.473 -0.4280 -0.0831 -0.0619
  100OSM   H16F10100   3.300   1.679   8.489 -0.8080  0.0486  2.4296
  100OSM   H16G10101   3.133   1.727   8.505  0.5155 -0.5249  3.3488
  100OSM   C17F10102   3.173   1.605   8.321  0.0104 -0.0226 -0.8603
  100OSM   H17F10103   3.234   1.521   8.282  2.6102  1.5430 -0.3924
  100OSM   H17G10104   3.186   1.697   8.259 -3.3082  0.0104 -1.7379
  100OSM   C18F10105   3.023   1.569   8.311  0.3606 -0.0985  0.3052
  100OSM   H18F10106   2.949   1.634   8.360  2.1254  0.7875  1.9084
  100OSM   H18G10107   3.002   1.469   8.356  2.3275 -0.6817  0.0359
  100OSM   H18H10108   3.004   1.552   8.202  0.9718  1.8882 -0.1453
  101OSM      N10109   0.467   1.483  11.136 -0.1731  0.2811 -0.1359
  101OSM    C1510110   0.619   1.491  11.162 -0.2869 -0.7939  0.0255
  101OSM   H15A10111   0.682   1.449  11.085 -0.5527 -0.3107 -0.4612
  101OSM   H15B10112   0.637   1.435  11.253 -0.0983  1.2147  1.2732
  101OSM   H15C10113   0.656   1.591  11.181  1.1417 -1.1107 -0.9158
  101OSM    C1410114   0.436   1.333  11.142  0.5506  0.0082  0.2521
  101OSM   H14A10115   0.452   1.285  11.237  0.4683  1.1688  0.8641
  101OSM   H14B10116   0.499   1.287  11.067  2.1783  3.2843 -0.5437
  101OSM   H14C10117   0.334   1.320  11.109  1.1720 -0.1209 -1.7558
  101OSM    C1310118   0.397   1.544  11.257 -0.3316 -0.5467 -0.2366
  101OSM   H13A10119   0.290   1.553  11.255 -0.1550  2.2582 -1.3914
  101OSM   H13B10120   0.429   1.647  11.262 -2.6113  0.2497 -0.6728
  101OSM   H13C10121   0.427   1.497  11.349 -0.4725  0.0851  0.1364
  101OSM    C1210122   0.429   1.547  11.001  0.3152 -0.1349 -0.5545
  101OSM   H12A10123   0.474   1.645  10.996  0.2789 -0.1946 -3.4320
  101OSM   H12B10124   0.322   1.563  10.994  0.6083  1.8862 -1.0496
  101OSM    C1110125   0.475   1.479  10.875  0.1396  0.2813  0.4883
  101OSM   H11A10126   0.451   1.545  10.789 -1.9402  0.0473  0.8294
  101OSM   H11B10127   0.411   1.390  10.854 -2.1960  2.0259 -0.2512
  101OSM      P10128   0.687   1.316  10.825  0.0074 -0.0270 -0.5037
  101OSM    O1310129   0.814   1.351  10.763 -0.1620 -0.1001 -0.2429
  101OSM    O1410130   0.688   1.220  10.939 -0.1577 -0.4290  0.1446
  101OSM    O1110131   0.604   1.249  10.711  0.0386  0.1116 -0.1041
  101OSM    O1210132   0.608   1.449  10.863  0.6698 -0.0572  0.1452
  101OSM    C1S10133   0.581   1.324  10.591  0.5452 -0.1118 -0.0954
  101OSM    H1S10134   0.589   1.434  10.600 -0.7144 -0.0611  0.5625
  101OSM    H1T10135   0.476   1.307  10.560  0.6996 -0.9872 -0.1759
  101OSM     NF10136   0.669   1.373  10.355  0.0937  0.2295 -1.0642
  101OSM    HNF10137   0.596   1.342  10.295 -1.2215  0.7802  0.1763
  101OSM    C2S10138   0.690   1.288  10.475 -0.8915 -0.0316  0.1509
  101OSM    H2S10139   0.788   1.319  10.518 -0.9505 -1.3289  1.3104
  101OSM    C3S10140   0.693   1.135  10.446 -0.1716 -0.7200  0.0576
  101OSM    H3S10141   0.594   1.106  10.404  0.3397 -3.0030  0.2953
  101OSM     O310142   0.714   1.059  10.564 -0.1527 -0.1116 -0.1196
  101OSM    HO310143   0.711   1.120  10.639  0.3661  0.6903 -0.7400
  101OSM    C4S10144   0.793   1.113  10.339 -0.7976  0.7378  0.2347
  101OSM    H4S10145   0.900   1.128  10.359 -0.6531 -0.5072  0.5176
  101OSM    C5S10146   0.762   1.073  10.217  0.1210  0.1877 -0.2018
  101OSM    H5S10147   0.657   1.066  10.184  0.7220 -0.8921 -2.0542
  101OSM    C6S10148   0.865   1.045  10.112  0.0867 -0.1468  0.6641
  101OSM    H6S10149   0.843   0.949  10.060  0.3395  0.4324 -0.5486
  101OSM    H6T10150   0.970   1.055  10.146  0.1758  0.1846  0.3034
  101OSM    C7S10151   0.856   1.150   9.998  0.3820 -0.0847  0.0033
  101OSM    H7S10152   0.891   1.244  10.046 -0.5785 -0.5205  1.6462
  101OSM    H7T10153   0.756   1.174   9.957  1.7749  1.0378 -3.0414
  101OSM    C8S10154   0.951   1.130   9.878 -0.2046 -0.3304  0.0500
  101OSM    H8S10155   0.912   1.034   9.837  0.6037 -0.8629  0.5117
  101OSM    H8T10156   1.057   1.104   9.896 -0.4681 -1.7887 -0.3458
  101OSM    C9S10157   0.931   1.235   9.764  0.1971  0.4108  0.0254
  101OSM    H9S10158   0.969   1.335   9.793  1.9117  0.2828 -1.6197
  101OSM    H9T10159   0.825   1.248   9.734  0.5119 -0.9809 -1.8469
  101OSM   C10S10160   1.014   1.199   9.637 -0.7515 -0.6340 -0.6440
  101OSM   H10S10161   1.122   1.189   9.663 -0.0564 -2.0304 -3.6143
  101OSM   H10T10162   1.002   1.284   9.567 -1.3592  0.2728  0.5313
  101OSM   C11S10163   0.958   1.080   9.560 -0.3529  0.0957 -0.2193
  101OSM   H11S10164   0.848   1.092   9.549 -0.7031  0.2591  2.6627
  101OSM   H11T10165   0.976   0.988   9.620  0.6817 -0.3604 -1.2041
  101OSM   C12S10166   1.016   1.058   9.426 -0.8613  0.3431  1.0564
  101OSM   H12S10167   1.123   1.089   9.421 -0.7099 -0.3694 -0.8068
  101OSM   H12T10168   0.973   1.123   9.348 -0.9422 -2.4886 -1.4463
  101OSM   C13S10169   1.010   0.907   9.374 -0.2127 -0.1920 -0.1596
  101OSM   H13S10170   0.907   0.868   9.386 -1.1930  1.5542 -2.1304
  101OSM   H13T10171   1.080   0.842   9.429 -0.7140 -1.1030 -0.5677
  101OSM   C14S10172   1.043   0.895   9.227 -0.0897 -0.5985 -0.9987
  101OSM   H14S10173   1.151   0.919   9.218 -0.2754 -0.1344 -2.1830
  101OSM   H14T10174   0.982   0.966   9.167 -1.6359 -0.5590  0.5666
  101OSM   C15S10175   1.021   0.761   9.172  0.5806 -0.2231  0.0476
  101OSM   H15S10176   0.923   0.714   9.195  0.3694  0.9320  1.6805
  101OSM   H15T10177   1.098   0.694   9.217 -1.8854 -2.2900  1.4953
  101OSM   C16S10178   1.044   0.782   9.024 -0.8107 -0.3920  0.2415
  101OSM   H16S10179   1.147   0.823   9.022 -0.0490 -2.1612  1.1864
  101OSM   H16T10180   0.971   0.859   8.988  0.8539  0.4164 -1.6432
  101OSM   C17S10181   1.031   0.651   8.948  0.2803  0.4329 -0.5471
  101OSM   H17S10182   0.924   0.623   8.950  0.6639 -1.1670  1.5939
  101OSM   H17T10183   1.099   0.576   8.994  1.7536  0.9612 -1.7469
  101OSM   C18S10184   1.080   0.672   8.796  0.6200 -0.0351  0.0010
  101OSM   H18S10185   1.004   0.739   8.749 -0.9360 -0.6717  1.4997
  101OSM   H18T10186   1.075   0.576   8.740  0.0660  0.4403 -0.7858
  101OSM   H18U10187   1.175   0.729   8.791  1.2367 -1.0846 -0.3592
  101OSM    C1F10188   0.707   1.500  10.339  0.7111  0.0757 -0.6863
  101OSM     OF10189   0.765   1.564  10.424  0.2520  0.2113  0.1037
  101OSM    C2F10190   0.655   1.572  10.215 -0.8038  0.5055 -0.0107
  101OSM    H2F10191   0.697   1.675  10.210  2.3242 -0.7143 -0.7470
  101OSM    H2G10192   0.544   1.572  10.216 -0.8345 -1.2065 -0.5961
  101OSM    C3F10193   0.690   1.498  10.087 -0.2455  0.5925  0.1992
  101OSM    H3F10194   0.656   1.394  10.071  2.4013  0.0501 -3.0076
  101OSM    H3G10195   0.801   1.493  10.076 -0.5200 -2.7430 -3.4948
  101OSM    C4F10196   0.640   1.567   9.960  0.1009 -0.0593 -0.1310
  101OSM    H4F10197   0.690   1.666   9.951 -0.4769  0.5217  2.4102
  101OSM    H4G10198   0.529   1.575   9.961 -0.0881 -1.9572  1.5600
  101OSM    C5F10199   0.692   1.492   9.839 -0.1132 -0.6124 -0.2815
  101OSM    H5F10200   0.676   1.382   9.843  1.3611 -0.8022  2.1719
  101OSM    H5G10201   0.803   1.504   9.835 -0.1052 -0.4830  0.2969
  101OSM    C6F10202   0.630   1.541   9.707 -0.7623 -0.4841 -0.2978
  101OSM    H6F10203   0.529   1.496   9.694 -2.2056  2.8642 -2.1252
  101OSM    H6G10204   0.623   1.652   9.702  2.4770 -0.1890 -0.4295
  101OSM    C7F10205   0.717   1.500   9.592 -0.1386 -0.2295 -0.4009
  101OSM    H7F10206   0.701   1.390   9.577 -2.1948 -0.3166  1.8291
  101OSM    H7G10207   0.823   1.520   9.617 -0.1349  1.2238 -1.4780
  101OSM    C8F10208   0.678   1.575   9.466 -0.3010 -0.6134  0.7254
  101OSM    H8F10209   0.763   1.561   9.396 -0.3069 -0.8724  0.7668
  101OSM    H8G10210   0.672   1.685   9.480 -1.4492 -0.6669  0.7599
  101OSM    C9F10211   0.550   1.520   9.412 -0.4234 -0.0414  0.6206
  101OSM    H9F10212   0.488   1.471   9.488 -0.4575  0.5825  1.0012
  101OSM   C10F10213   0.509   1.516   9.280 -0.0076 -0.0498 -0.0084
  101OSM   H10F10214   0.409   1.478   9.255 -0.4718  0.9504  0.2947
  101OSM   C11F10215   0.580   1.579   9.164 -0.2565 -0.3737 -0.0077
  101OSM   H11F10216   0.677   1.629   9.185  0.0151 -0.5181 -0.8706
  101OSM   H11G10217   0.514   1.656   9.119  0.1314  0.1150  0.2493
  101OSM   C12F10218   0.615   1.483   9.050  0.4488  0.1595  0.3949
  101OSM   H12F10219   0.675   1.398   9.088 -0.6279 -1.2167 -0.8662
  101OSM   H12G10220   0.685   1.537   8.982  0.2097 -0.7846 -0.6344
  101OSM   C13F10221   0.480   1.434   8.979 -0.1866  0.0835  0.0836
  101OSM   H13F10222   0.422   1.526   8.956  1.3448  1.3863  1.2467
  101OSM   H13G10223   0.431   1.358   9.043 -2.5642 -0.0706 -1.7924
  101OSM   C14F10224   0.512   1.372   8.842  0.1202 -0.1598 -1.0182
  101OSM   H14F10225   0.428   1.308   8.806  0.6981  0.0808 -2.8930
  101OSM   H14G10226   0.599   1.303   8.841  1.7341  1.7805  0.2595
  101OSM   C15F10227   0.555   1.474   8.729 -0.5295 -0.2255  0.3956
  101OSM   H15F10228   0.585   1.410   8.643  0.2690 -0.8749  1.1265
  101OSM   H15G10229   0.650   1.519   8.767 -1.3560  0.7314  1.3817
  101OSM   C16F10230   0.451   1.579   8.694  0.9798 -0.5346  0.5302
  101OSM   H16F10231   0.445   1.647   8.781  2.7806 -0.0122  0.2926
  101OSM   H16G10232   0.353   1.531   8.674  0.0448  0.5536  2.2380
  101OSM   C17F10233   0.487   1.680   8.580  0.1306 -0.0297  0.4331
  101OSM   H17F10234   0.589   1.718   8.601  1.0101 -2.6514  1.2844
  101OSM   H17G10235   0.419   1.766   8.595  2.3652  1.5699  1.9632
  101OSM   C18F10236   0.481   1.611   8.442 -0.4838 -0.3576 -0.5106
  101OSM   H18F10237   0.394   1.541   8.433 -0.3643 -0.5632 -0.0908
  101OSM   H18G10238   0.575   1.554   8.424  1.2612  2.1032  0.2374
  101OSM   H18H10239   0.460   1.687   8.364 -3.0651  1.9632  2.2415
  102OSM      N10240   3.727   3.802  10.866  0.8227  0.9485 -0.2475
  102OSM    C1510241   3.755   3.838  11.009  0.1082  0.7956 -0.0136
  102OSM   H15A10242   3.669   3.869  11.066 -0.5760 -1.7545  0.4648
  102OSM   H15B10243   3.832   3.913  11.022 -1.6587  2.8080 -0.7114
  102OSM   H15C10244   3.791   3.749  11.060  0.5374  0.9383 -0.0614
  102OSM    C1410245   3.719   3.937  10.800  0.2599  0.9534 -0.7049
  102OSM   H14A10246   3.704   3.940  10.693  0.3358  1.3439 -0.7040
  102OSM   H14B10247   3.817   3.976  10.823  1.2422 -1.9302  0.4950
  102OSM   H14C10248   3.641   3.991  10.851  1.3079  2.5031 -0.7095
  102OSM    C1310249   3.849   3.734  10.809  0.6491  0.3767 -0.4555
  102OSM   H13A10250   3.936   3.794  10.834  0.6490 -0.2167  1.1111
  102OSM   H13B10251   3.842   3.731  10.702  2.6041 -1.2797 -0.5875
  102OSM   H13C10252   3.858   3.639  10.860 -0.8015  0.6372  0.3509
  102OSM    C1210253   3.598   3.718  10.851  0.1590 -0.4517 -0.0863
  102OSM   H12A10254   3.514   3.764  10.901  0.2786  0.7677 -0.9568
  102OSM   H12B10255   3.613   3.628  10.910 -0.9341  0.6087  1.9012
  102OSM    C1110256   3.553   3.678  10.706 -0.1908 -0.2933  0.0643
  102OSM   H11A10257   3.495   3.583  10.713 -1.0595  0.3323  3.0367
  102OSM   H11B10258   3.647   3.650  10.655  0.1831 -0.9305  1.0671
  102OSM      P10259   3.329   3.800  10.688  0.6016  0.0787  0.2824
  102OSM    O1310260   3.314   3.769  10.834 -0.5773  0.3446  0.0827
  102OSM    O1410261   3.271   3.923  10.628 -0.0015 -0.6264  0.3550
  102OSM    O1110262   3.267   3.670  10.609 -0.4326 -0.1156  0.6390
  102OSM    O1210263   3.475   3.785  10.644 -0.0586 -0.7874  0.8690
  102OSM    C1S10264   3.255   3.666  10.464 -0.7315 -0.2481 -0.0197
  102OSM    H1S10265   3.251   3.770  10.424 -0.0119 -0.1475  0.1639
  102OSM    H1T10266   3.153   3.631  10.436 -1.4519  1.3896  0.4055
  102OSM     NF10267   3.370   3.635  10.252  0.1998 -0.8354 -0.3087
  102OSM    HNF10268   3.316   3.575  10.193  0.6397  0.4085 -2.0484
  102OSM    C2S10269   3.376   3.600  10.392 -0.0732 -0.3341  0.4894
  102OSM    H2S10270   3.464   3.647  10.440 -0.5722 -1.0236  2.1687
  102OSM    C3S10271   3.367   3.447  10.428  0.4511 -0.2362 -0.5095
  102OSM    H3S10272   3.274   3.412  10.379 -0.3714  1.7608 -0.4862
  102OSM     O310273   3.359   3.422  10.573  0.3315  0.3808  0.1966
  102OSM    HO310274   3.310   3.498  10.606 -0.7069 -1.6095  3.7444
  102OSM    C4S10275   3.484   3.378  10.358  0.3330 -0.2818  0.2844
  102OSM    H4S10276   3.450   3.359  10.255 -0.5435  0.1479  0.4840
  102OSM    C5S10277   3.603   3.330  10.404 -0.0277 -0.3534  0.2070
  102OSM    H5S10278   3.633   3.343  10.509 -0.0707 -1.0185  0.3056
  102OSM    C6S10279   3.704   3.264  10.320  0.4669 -0.8666 -0.7441
  102OSM    H6S10280   3.699   3.153  10.326  1.5725 -0.8573  1.4663
  102OSM    H6T10281   3.806   3.285  10.358 -0.4408  1.1850  0.7438
  102OSM    C7S10282   3.706   3.311  10.172  0.2408 -0.2657 -0.1417
  102OSM    H7S10283   3.713   3.421  10.156  1.2007 -0.5432 -1.8909
  102OSM    H7T10284   3.616   3.267  10.124 -0.1625 -0.2341  0.5618
  102OSM    C8S10285   3.818   3.258  10.095  0.6461 -0.3524  0.1982
  102OSM    H8S10286   3.840   3.156  10.133 -1.3109 -1.7979 -2.1736
  102OSM    H8T10287   3.905   3.323  10.115  1.2251 -0.9719 -0.2562
  102OSM    C9S10288   3.796   3.226   9.945  0.0728  0.1900 -0.2662
  102OSM    H9S10289   3.762   3.120   9.937  1.2066 -0.6475  3.5788
  102OSM    H9T10290   3.896   3.221   9.895  0.3667 -0.7611  0.3731
  102OSM   C10S10291   3.686   3.315   9.886  0.6726  0.0516  0.5447
  102OSM   H10S10292   3.703   3.422   9.911 -2.7998  0.3423  2.2829
  102OSM   H10T10293   3.592   3.277   9.932  0.2079 -2.7205 -2.3659
  102OSM   C11S10294   3.683   3.299   9.736  0.7687 -0.0219  0.9460
  102OSM   H11S10295   3.681   3.191   9.709  0.6613  0.1829  0.1201
  102OSM   H11T10296   3.773   3.346   9.693  0.6377 -0.9952 -0.4635
  102OSM   C12S10297   3.553   3.369   9.682  0.3875  0.1597 -0.1542
  102OSM   H12S10298   3.539   3.462   9.743  0.0810  1.2518 -1.8195
  102OSM   H12T10299   3.473   3.293   9.683  1.9984 -1.6530 -1.8584
  102OSM   C13S10300   3.574   3.416   9.542 -0.2581  0.6383  0.5101
  102OSM   H13S10301   3.651   3.496   9.536  2.1963 -1.4943  1.6582
  102OSM   H13T10302   3.480   3.458   9.501  1.1094  1.0380 -2.5046
  102OSM   C14S10303   3.619   3.295   9.445 -1.0107 -0.2349 -0.3616
  102OSM   H14S10304   3.553   3.205   9.445  1.3093 -2.0474 -1.8215
  102OSM   H14T10305   3.721   3.265   9.478  1.5888  2.5016 -4.9633
  102OSM   C15S10306   3.628   3.344   9.301 -0.9842 -0.5460  0.8976
  102OSM   H15S10307   3.693   3.264   9.258 -2.2239 -1.8143  1.2879
  102OSM   H15T10308   3.686   3.438   9.305  1.5798 -1.8444 -1.7293
  102OSM   C16S10309   3.502   3.363   9.218  0.2704  0.1279 -0.7152
  102OSM   H16S10310   3.436   3.425   9.282  0.3855  0.1214 -0.5898
  102OSM   H16T10311   3.469   3.256   9.222 -0.8995  0.5089  0.5178
  102OSM   C17S10312   3.549   3.422   9.084 -0.2297  0.2924 -0.7722
  102OSM   H17S10313   3.637   3.365   9.049 -1.0570  0.2985 -2.9743
  102OSM   H17T10314   3.568   3.531   9.096 -3.9802  0.9547  0.7728
  102OSM   C18S10315   3.442   3.418   8.975  0.4370 -0.0796  0.3227
  102OSM   H18S10316   3.344   3.460   9.003 -1.4688 -1.4917 -3.4939
  102OSM   H18T10317   3.426   3.321   8.923  1.6522  0.5575 -1.3376
  102OSM   H18U10318   3.482   3.491   8.901  2.4098 -0.1816  1.2068
  102OSM    C1F10319   3.415   3.748  10.199 -0.1788  0.8063 -0.3280
  102OSM     OF10320   3.484   3.819  10.269  0.3499 -0.4845 -0.2137
  102OSM    C2F10321   3.367   3.783  10.063 -0.0812 -0.2312 -0.1124
  102OSM    H2F10322   3.282   3.853  10.065 -0.9918 -1.1516 -2.4436
  102OSM    H2G10323   3.328   3.691  10.014 -0.8293  0.6547 -1.2477
  102OSM    C3F10324   3.471   3.827   9.961 -0.3080 -0.0684 -0.1231
  102OSM    H3F10325   3.555   3.754   9.960 -2.2819 -2.5265 -2.4497
  102OSM    H3G10326   3.517   3.924   9.989  0.9104 -0.5889 -0.2460
  102OSM    C4F10327   3.404   3.829   9.822  0.0099 -0.6291  0.4922
  102OSM    H4F10328   3.338   3.918   9.825 -0.6230 -1.0941  0.5705
  102OSM    H4G10329   3.347   3.736   9.803 -0.5097 -0.3909  0.8487
  102OSM    C5F10330   3.511   3.843   9.716 -0.8681  0.6252 -0.2924
  102OSM    H5F10331   3.586   3.764   9.741 -1.1295  0.4470 -0.0596
  102OSM    H5G10332   3.551   3.947   9.715 -2.9142  1.4810 -2.0633
  102OSM    C6F10333   3.457   3.797   9.582 -0.0606 -0.1954  0.5031
  102OSM    H6F10334   3.349   3.822   9.582  0.5240  2.7724 -1.3123
  102OSM    H6G10335   3.460   3.687   9.569  0.8908  0.0227 -1.4756
  102OSM    C7F10336   3.544   3.841   9.457  0.4316 -1.1736  0.1293
  102OSM    H7F10337   3.642   3.791   9.469  1.2966  0.6648  1.0399
  102OSM    H7G10338   3.554   3.950   9.470  0.2905 -1.1837  0.3484
  102OSM    C8F10339   3.482   3.789   9.335  0.4374  0.2449  1.0519
  102OSM    H8F10340   3.374   3.792   9.359 -0.0459 -2.0243 -0.5101
  102OSM    H8G10341   3.508   3.681   9.329  0.1455  0.1630  1.2338
  102OSM    C9F10342   3.520   3.855   9.203 -0.4834  0.2938 -0.2148
  102OSM    H9F10343   3.627   3.881   9.194 -0.1652 -0.9028 -0.0971
  102OSM   C10F10344   3.449   3.857   9.087 -0.5012  0.1935 -1.0598
  102OSM   H10F10345   3.487   3.913   9.001  1.8123  0.4403  0.0462
  102OSM   C11F10346   3.316   3.799   9.059  0.0493 -0.2373  0.4818
  102OSM   H11F10347   3.251   3.888   9.073 -0.8221 -1.1228  2.4340
  102OSM   H11G10348   3.291   3.717   9.130  0.3814 -1.0440 -0.3093
  102OSM   C12F10349   3.306   3.748   8.917  0.1682 -0.1996  0.1559
  102OSM   H12F10350   3.238   3.662   8.906  0.6073 -0.4302 -0.8941
  102OSM   H12G10351   3.400   3.694   8.892  0.0648 -0.3952  0.1899
  102OSM   C13F10352   3.287   3.860   8.816 -0.0964  0.1374  0.4408
  102OSM   H13F10353   3.356   3.946   8.828  0.3689 -0.1261 -0.2577
  102OSM   H13G10354   3.182   3.895   8.817 -0.4908 -1.0001  0.3095
  102OSM   C14F10355   3.321   3.810   8.672 -0.1766 -0.4774 -0.1469
  102OSM   H14F10356   3.238   3.743   8.640  0.4085 -0.8598 -0.9135
  102OSM   H14G10357   3.418   3.757   8.681  0.3283  0.3054 -0.8642
  102OSM   C15F10358   3.329   3.921   8.580  0.1082 -0.4224  0.3436
  102OSM   H15F10359   3.393   4.001   8.621  0.0422 -0.3891  0.3798
  102OSM   H15G10360   3.225   3.957   8.563  0.2356 -0.8473 -1.6255
  102OSM   C16F10361   3.384   3.893   8.444  0.1637 -0.7134  0.0038
  102OSM   H16F10362   3.464   3.816   8.454  0.3652 -0.3473  1.4420
  102OSM   H16G10363   3.430   3.985   8.402 -0.1594 -0.0024  1.1493
  102OSM   C17F10364   3.285   3.839   8.340  0.2265  0.2773  0.0790
  102OSM   H17F10365   3.193   3.901   8.336  0.2292  0.4700  2.0331
  102OSM   H17G10366   3.248   3.743   8.384  0.2877  1.2252  2.3507
  102OSM   C18F10367   3.348   3.819   8.203  0.6165  0.6059  0.5436
  102OSM   H18F10368   3.416   3.730   8.200 -0.1598  0.0236 -0.8026
  102OSM   H18G10369   3.405   3.908   8.168 -0.9300  1.2383 -0.5103
  102OSM   H18H10370   3.261   3.818   8.134  0.0175 -1.0256  1.2833
  103OSM      N10371   1.873   6.572  11.138  0.9123 -0.7861 -0.6539
  103OSM    C1510372   1.852   6.509  11.276 -0.3919  0.5170  0.1912
  103OSM   H15A10373   1.750   6.493  11.305 -0.4364 -0.7047 -0.5581
  103OSM   H15B10374   1.904   6.569  11.350  2.4676 -1.1075 -0.3345
  103OSM   H15C10375   1.906   6.416  11.285 -0.5767  0.4045  0.1393
  103OSM    C1410376   1.779   6.687  11.137 -0.1344 -0.1184 -0.5094
  103OSM   H14A10377   1.788   6.746  11.047 -0.9632  0.1926 -0.3993
  103OSM   H14B10378   1.799   6.758  11.216 -1.6456 -1.3174  1.0398
  103OSM   H14C10379   1.680   6.649  11.155 -0.0540 -0.8997 -1.6000
  103OSM    C1310380   2.002   6.638  11.135 -0.1582 -0.2612  0.0240
  103OSM   H13A10381   2.073   6.557  11.126 -1.1972 -1.3480  1.2871
  103OSM   H13B10382   2.020   6.703  11.220 -1.0923 -0.8279  0.6642
  103OSM   H13C10383   2.015   6.700  11.047  1.8732  0.4705  0.7814
  103OSM    C1210384   1.855   6.483  11.027 -0.8458 -0.1800  0.3342
  103OSM   H12A10385   1.752   6.450  11.029 -1.3688  1.4027  1.9438
  103OSM   H12B10386   1.909   6.389  11.036 -0.7798 -0.5826 -3.1174
  103OSM    C1110387   1.876   6.530  10.880  0.4154  0.2033 -0.5997
  103OSM   H11A10388   1.864   6.440  10.817 -1.2092 -0.2021  0.2554
  103OSM   H11B10389   1.984   6.551  10.860  0.3925 -0.4903 -1.5012
  103OSM      P10390   1.644   6.630  10.795 -0.0885 -0.1347  0.0256
  103OSM    O1310391   1.593   6.496  10.836  0.6759  0.1223 -0.1986
  103OSM    O1410392   1.568   6.750  10.847 -0.1721 -0.0970 -0.2069
  103OSM    O1110393   1.647   6.640  10.633  0.4651  0.6402  0.6954
  103OSM    O1210394   1.800   6.644  10.828  0.3436 -0.0384  0.4827
  103OSM    C1S10395   1.675   6.766  10.568 -0.1516  0.1597 -0.0966
  103OSM    H1S10396   1.782   6.785  10.546 -0.4738  0.4609 -1.5189
  103OSM    H1T10397   1.640   6.848  10.635 -2.3791 -0.8319  0.0548
  103OSM     NF10398   1.629   6.928  10.375 -0.0986  0.5747 -0.3317
  103OSM    HNF10399   1.552   6.991  10.385  1.3400  2.3820 -0.1111
  103OSM    C2S10400   1.592   6.799  10.438  0.0075 -0.1472  0.0207
  103OSM    H2S10401   1.623   6.713  10.374 -1.8605 -0.6243 -0.3090
  103OSM    C3S10402   1.431   6.778  10.461 -0.6473  0.7453 -0.0774
  103OSM    H3S10403   1.403   6.858  10.532 -0.0222  0.6970  0.2271
  103OSM     O310404   1.400   6.646  10.518  0.1206 -0.0677  0.0210
  103OSM    HO310405   1.466   6.633  10.587  1.1896  1.1617 -0.7158
  103OSM    C4S10406   1.339   6.805  10.339 -0.0145 -0.7308 -1.0874
  103OSM    H4S10407   1.331   6.910  10.308 -2.4934 -1.2445 -2.4342
  103OSM    C5S10408   1.280   6.715  10.258  0.2943  0.0392 -0.4059
  103OSM    H5S10409   1.302   6.609  10.277  0.4568 -0.1186 -1.4273
  103OSM    C6S10410   1.198   6.757  10.140  0.2781 -0.2069 -0.5635
  103OSM    H6S10411   1.170   6.864  10.153  2.0199  0.1032  1.1592
  103OSM    H6T10412   1.095   6.716  10.144 -0.7359  2.2172 -0.2348
  103OSM    C7S10413   1.273   6.744  10.008  0.8012  0.0779 -0.5784
  103OSM    H7S10414   1.307   6.639   9.992  1.0329 -0.1405  1.1612
  103OSM    H7T10415   1.365   6.806  10.015 -0.2103  1.5158  0.1749
  103OSM    C8S10416   1.187   6.786   9.893 -0.3701 -0.1431 -0.5696
  103OSM    H8S10417   1.182   6.897   9.893  4.1006  0.2675 -1.9576
  103OSM    H8T10418   1.085   6.743   9.891  0.1148 -1.4301  0.9202
  103OSM    C9S10419   1.260   6.742   9.776  0.0049 -0.4559  0.5417
  103OSM    H9S10420   1.266   6.631   9.775 -1.5887 -0.5608 -0.4104
  103OSM    H9T10421   1.364   6.780   9.773 -0.0247 -0.4238 -0.4556
  103OSM   C10S10422   1.190   6.791   9.648 -0.2946  0.3504 -0.3759
  103OSM   H10S10423   1.180   6.901   9.642 -1.9412  0.2601  0.2481
  103OSM   H10T10424   1.089   6.745   9.645 -0.0188 -0.3024  0.1922
  103OSM   C11S10425   1.284   6.746   9.531  0.3781 -0.7000 -0.3689
  103OSM   H11S10426   1.323   6.642   9.538  0.9801 -0.5026 -0.7191
  103OSM   H11T10427   1.373   6.813   9.530 -0.4840  0.4576 -0.9207
  103OSM   C12S10428   1.210   6.751   9.395  0.0528 -0.0739 -0.5487
  103OSM   H12S10429   1.145   6.840   9.382 -0.3089 -0.2265  0.2020
  103OSM   H12T10430   1.132   6.672   9.396 -0.5638  0.5304  0.0047
  103OSM   C13S10431   1.311   6.740   9.283 -0.1879  0.4518 -1.2434
  103OSM   H13S10432   1.376   6.651   9.281  1.3631  1.4726  0.4023
  103OSM   H13T10433   1.382   6.825   9.285  1.4436 -0.8691 -1.2328
  103OSM   C14S10434   1.237   6.745   9.147  0.2536  0.0404  0.4091
  103OSM   H14S10435   1.309   6.757   9.063  0.4273 -1.0907  0.3719
  103OSM   H14T10436   1.160   6.825   9.146  0.4743  0.2574 -0.1704
  103OSM   C15S10437   1.176   6.611   9.110  0.1442 -0.0296  0.2015
  103OSM   H15S10438   1.078   6.600   9.162 -2.2007 -0.4042 -3.8429
  103OSM   H15T10439   1.238   6.527   9.148 -2.7446 -1.4969  2.0400
  103OSM   C16S10440   1.136   6.596   8.962 -0.6030 -0.1675  0.9702
  103OSM   H16S10441   1.226   6.615   8.901 -1.0003 -4.4394 -1.3550
  103OSM   H16T10442   1.061   6.675   8.939 -0.8895 -0.5075  0.7130
  103OSM   C17S10443   1.079   6.459   8.923 -0.1174  0.2600 -0.8553
  103OSM   H17S10444   0.988   6.434   8.982  0.5100  0.3735  0.2012
  103OSM   H17T10445   1.160   6.389   8.953 -0.4343 -0.2558 -1.1938
  103OSM   C18S10446   1.040   6.459   8.777  0.7719 -0.2860  0.5665
  103OSM   H18S10447   0.945   6.406   8.754  0.1429  1.7702 -1.9831
  103OSM   H18T10448   1.128   6.407   8.734  1.7023  0.4537  1.5229
  103OSM   H18U10449   1.015   6.562   8.745 -1.0738 -0.9671 -0.3745
  103OSM    C1F10450   1.752   6.951  10.329  0.0887 -0.1257 -1.3771
  103OSM     OF10451   1.834   6.860  10.320 -0.1482  0.5306  0.3262
  103OSM    C2F10452   1.778   7.094  10.295 -0.0867 -0.7626 -0.6571
  103OSM    H2F10453   1.840   7.126  10.382 -2.1518 -0.9632  0.9741
  103OSM    H2G10454   1.681   7.149  10.293 -0.0389 -0.6308  0.1360
  103OSM    C3F10455   1.863   7.122  10.174  0.6107  0.4336 -0.0771
  103OSM    H3F10456   1.794   7.096  10.091 -0.7431  1.4577  0.6911
  103OSM    H3G10457   1.957   7.063  10.166 -0.5931 -1.4536 -1.0000
  103OSM    C4F10458   1.882   7.268  10.142 -0.7034 -0.2916 -0.5668
  103OSM    H4F10459   1.927   7.315  10.233 -0.7301 -0.5570 -0.4153
  103OSM    H4G10460   1.782   7.317  10.134 -0.9986 -0.6086  0.8221
  103OSM    C5F10461   1.981   7.283  10.027  0.3688 -0.6724 -0.1948
  103OSM    H5F10462   2.086   7.257  10.052  1.3151  0.0839 -2.9925
  103OSM    H5G10463   1.988   7.393  10.012  2.2853 -0.7497 -0.0439
  103OSM    C6F10464   1.918   7.231   9.896 -0.7442 -0.1932  0.2426
  103OSM    H6F10465   1.817   7.270   9.871  0.5104  0.9910 -3.7958
  103OSM    H6G10466   1.899   7.122   9.910 -4.5332  0.3134  0.1704
  103OSM    C7F10467   2.009   7.254   9.776  0.1973 -0.5694  0.8810
  103OSM    H7F10468   2.109   7.218   9.809  0.5806 -1.4248 -1.0390
  103OSM    H7G10469   2.011   7.361   9.748 -0.3398 -0.6859  0.3901
  103OSM    C8F10470   1.976   7.176   9.645 -0.6580  0.2858 -0.8083
  103OSM    H8F10471   1.868   7.179   9.620 -1.2946 -2.0050  1.2948
  103OSM    H8G10472   2.008   7.072   9.669  0.6797  1.0934  1.2167
  103OSM    C9F10473   2.063   7.226   9.528  0.4854 -0.3944 -0.0605
  103OSM    H9F10474   2.172   7.224   9.542  0.4084  1.6103  1.1895
  103OSM   C10F10475   2.020   7.264   9.404  0.3908  0.2251 -0.2664
  103OSM   H10F10476   2.098   7.294   9.333  0.6473 -1.1279 -0.5841
  103OSM   C11F10477   1.875   7.263   9.348  0.2645 -0.0770 -0.4596
  103OSM   H11F10478   1.798   7.304   9.417  0.7224  0.0669 -0.0274
  103OSM   H11G10479   1.828   7.163   9.340 -0.7203  0.3650 -0.3966
  103OSM   C12F10480   1.851   7.333   9.211  0.4944 -0.3574  0.4464
  103OSM   H12F10481   1.888   7.438   9.210 -1.0885  0.2225  0.0117
  103OSM   H12G10482   1.745   7.360   9.193 -0.0007 -1.1860  1.9775
  103OSM   C13F10483   1.916   7.264   9.088 -0.1548  0.8182  0.4933
  103OSM   H13F10484   1.874   7.162   9.080 -1.0589  1.2566 -0.5432
  103OSM   H13G10485   2.021   7.248   9.121  0.1356 -0.2344 -0.8624
  103OSM   C14F10486   1.913   7.343   8.961 -0.6692 -0.0961  0.1065
  103OSM   H14F10487   1.968   7.438   8.975  0.5207 -0.4430 -1.8630
  103OSM   H14G10488   1.812   7.362   8.920 -1.3765 -0.9472  1.3858
  103OSM   C15F10489   1.994   7.285   8.842 -0.1150 -0.1076  0.0131
  103OSM   H15F10490   1.952   7.190   8.802 -1.8926 -1.4064  4.3782
  103OSM   H15G10491   2.099   7.256   8.866 -0.2401 -0.2994  0.3478
  103OSM   C16F10492   2.015   7.386   8.728  0.1855 -0.2954 -0.5771
  103OSM   H16F10493   2.075   7.470   8.769  0.2333  0.6353 -2.4498
  103OSM   H16G10494   1.914   7.418   8.698 -0.0370  0.1716  0.5991
  103OSM   C17F10495   2.084   7.321   8.603  0.1835  0.4694  0.0240
  103OSM   H17F10496   2.190   7.295   8.623 -0.5240 -1.1926  2.0685
  103OSM   H17G10497   2.085   7.413   8.541  0.7739 -0.2617 -1.0765
  103OSM   C18F10498   2.014   7.206   8.526  0.2351  0.0786 -0.1217
  103OSM   H18F10499   2.081   7.160   8.450  2.9536  2.1376  0.8637
  103OSM   H18G10500   1.917   7.238   8.483  0.5096 -0.4803 -1.1906
  103OSM   H18H10501   1.982   7.127   8.598  0.8831  1.5037  1.8068
  104OSM      N10502   3.696   0.092  10.773 -0.0173  0.5157 -0.0237
  104OSM    C1510503   3.695  -0.025  10.866  0.4734  0.1524 -0.0611
  104OSM   H15A10504   3.780  -0.091  10.854 -0.5365 -1.3839  0.9385
  104OSM   H15B10505   3.614  -0.090  10.838 -0.1758  0.7577  0.3899
  104OSM   H15C10506   3.692   0.002  10.970 -1.6702 -0.4359  0.0678
  104OSM    C1410507   3.785   0.208  10.817 -0.3541 -0.2387 -0.6646
  104OSM   H14A10508   3.771   0.294  10.753 -0.5074  2.0434  2.1946
  104OSM   H14B10509   3.882   0.170  10.791 -0.3470 -0.1383 -0.7882
  104OSM   H14C10510   3.777   0.239  10.920 -1.0264  2.4043 -1.4195
  104OSM    C1310511   3.755   0.042  10.647  0.3956  0.0912 -0.6812
  104OSM   H13A10512   3.696  -0.044  10.620 -2.0717  0.3424  3.2703
  104OSM   H13B10513   3.859   0.015  10.659  0.1754  0.2857  2.1217
  104OSM   H13C10514   3.760   0.127  10.579 -0.0575  1.3342  0.7824
  104OSM    C1210515   3.567   0.145  10.743  0.3869  0.0272  1.0514
  104OSM   H12A10516   3.580   0.236  10.687  2.7271 -1.5067 -1.1088
  104OSM   H12B10517   3.512   0.173  10.832 -1.7989 -1.4551  0.2375
  104OSM    C1110518   3.470   0.050  10.669  0.4195  0.1896  0.1840
  104OSM   H11A10519   3.517   0.008  10.577  2.1459  0.1996  1.0238
  104OSM   H11B10520   3.391   0.103  10.612  0.6391 -0.3013 -0.6031
  104OSM      P10521   3.298  -0.067  10.826  0.1468  0.0482  0.3762
  104OSM    O1310522   3.287  -0.185  10.909  0.1053  0.3014 -0.7259
  104OSM    O1410523   3.295   0.067  10.896 -0.5651 -0.4144  0.7549
  104OSM    O1110524   3.191  -0.060  10.713  0.4406 -0.2845 -0.2194
  104OSM    O1210525   3.427  -0.069  10.739  0.5659 -0.1068 -0.1491
  104OSM    C1S10526   3.191  -0.144  10.602  0.0190  0.8896  0.7003
  104OSM    H1S10527   3.160  -0.248  10.625  1.3781  0.0705 -0.9290
  104OSM    H1T10528   3.286  -0.143  10.545 -0.8653  0.4636 -0.8270
  104OSM     NF10529   3.101  -0.177  10.376 -0.7773 -0.0901  0.0251
  104OSM    HNF10530   3.135  -0.135  10.292 -0.3880 -0.9847 -0.2715
  104OSM    C2S10531   3.092  -0.097  10.493 -0.3833  0.1493  0.7370
  104OSM    H2S10532   2.985  -0.105  10.522 -0.3196 -0.1026  0.9050
  104OSM    C3S10533   3.123   0.051  10.471 -0.1506  0.0798 -0.4025
  104OSM    H3S10534   3.227   0.066  10.435 -0.2251 -0.3634 -0.8137
  104OSM     O310535   3.117   0.137  10.582 -0.0350 -0.4236 -0.1622
  104OSM    HO310536   3.127   0.079  10.657  0.4378  2.9881  2.6511
  104OSM    C4S10537   3.036   0.098  10.356 -0.4072  0.1471 -0.1191
  104OSM    H4S10538   3.071   0.058  10.259 -2.4246  1.8726 -1.6678
  104OSM    C5S10539   2.926   0.174  10.352  0.9197 -0.1197  0.1660
  104OSM    H5S10540   2.889   0.207  10.450 -1.6103  0.4014 -0.9014
  104OSM    C6S10541   2.846   0.228  10.241 -0.2156 -0.1811 -0.3449
  104OSM    H6S10542   2.862   0.338  10.240  0.8738 -0.3233 -1.4693
  104OSM    H6T10543   2.741   0.202  10.268 -0.4063 -1.1513 -1.9045
  104OSM    C7S10544   2.882   0.180  10.104  0.6305  0.3761 -1.0545
  104OSM    H7S10545   2.888   0.070  10.108  1.7006  0.4458 -0.0376
  104OSM    H7T10546   2.988   0.206  10.084  1.1349 -0.2394  0.6889
  104OSM    C8S10547   2.778   0.231  10.003  0.5455 -0.6904  0.7060
  104OSM    H8S10548   2.763   0.340  10.015  1.5288 -0.4084 -0.3839
  104OSM    H8T10549   2.685   0.176  10.030  0.2711 -0.0304  1.1256
  104OSM    C9S10550   2.820   0.201   9.865 -0.5210 -0.3201 -0.0352
  104OSM    H9S10551   2.737   0.249   9.809 -1.0844 -0.8117  0.3600
  104OSM    H9T10552   2.829   0.091   9.849 -1.7656 -0.2013 -1.7282
  104OSM   C10S10553   2.946   0.273   9.808  0.5558 -0.2530 -0.0423
  104OSM   H10S10554   3.026   0.271   9.884  1.0133  1.2471 -0.4421
  104OSM   H10T10555   2.926   0.380   9.783 -0.1499 -1.0159 -3.2523
  104OSM   C11S10556   2.997   0.215   9.678  0.1829  0.1443  0.6237
  104OSM   H11S10557   3.063   0.128   9.701  0.3895  0.3593  0.8589
  104OSM   H11T10558   3.065   0.291   9.634  0.1072  1.1667  2.1710
  104OSM   C12S10559   2.895   0.200   9.571 -0.5847  0.1347  0.5925
  104OSM   H12S10560   2.843   0.298   9.568 -3.6570 -1.3933  0.2143
  104OSM   H12T10561   2.823   0.118   9.592 -2.2116  0.9240 -1.5895
  104OSM   C13S10562   2.960   0.158   9.431  0.0687  0.4662 -0.1387
  104OSM   H13S10563   2.994   0.053   9.443 -1.5765  0.0986  1.9065
  104OSM   H13T10564   3.045   0.227   9.410 -0.2323  0.6320 -0.8186
  104OSM   C14S10565   2.861   0.167   9.317 -0.3050  0.3049 -0.7835
  104OSM   H14S10566   2.822   0.270   9.315 -1.3068 -0.0554 -2.6386
  104OSM   H14T10567   2.774   0.099   9.331 -1.3706  1.4164 -1.7782
  104OSM   C15S10568   2.917   0.132   9.176  0.1969 -0.6580 -0.9799
  104OSM   H15S10569   2.948   0.026   9.179  3.3420  0.1724 -1.4982
  104OSM   H15T10570   3.008   0.192   9.155  1.0225 -1.5886 -0.1385
  104OSM   C16S10571   2.806   0.159   9.068 -0.0406 -0.0543  0.5408
  104OSM   H16S10572   2.771   0.265   9.064  0.0030 -0.0026  1.4655
  104OSM   H16T10573   2.720   0.094   9.095  2.2165 -2.2538  2.9498
  104OSM   C17S10574   2.865   0.140   8.935 -0.0695  0.6286 -0.0760
  104OSM   H17S10575   2.967   0.181   8.921 -0.8322  2.5477 -0.3380
  104OSM   H17T10576   2.799   0.188   8.860 -0.1002 -0.3433 -0.6906
  104OSM   C18S10577   2.868  -0.011   8.912 -0.1207 -0.3776 -0.1783
  104OSM   H18S10578   2.931  -0.029   8.823 -0.8975  0.2578 -0.8683
  104OSM   H18T10579   2.769  -0.060   8.898 -0.7074  0.4331  1.0272
  104OSM   H18U10580   2.905  -0.074   8.996  0.4630  1.2293  0.7936
  104OSM    C1F10581   3.056  -0.300  10.380 -0.0086 -0.1970  0.7477
  104OSM     OF10582   3.023  -0.349  10.484  0.5334 -0.4420 -0.3271
  104OSM    C2F10583   3.027  -0.367  10.251  0.5577  0.6164 -0.1425
  104OSM    H2F10584   3.113  -0.344  10.184 -0.8445 -2.7135 -3.4743
  104OSM    H2G10585   2.933  -0.325  10.209  0.4795 -0.5951 -1.2339
  104OSM    C3F10586   3.036  -0.521  10.266 -0.1884  0.0960 -0.1590
  104OSM    H3F10587   2.963  -0.551  10.344  0.4285  0.9563  0.7753
  104OSM    H3G10588   3.140  -0.540  10.301 -0.2398 -2.8500 -1.3025
  104OSM    C4F10589   3.039  -0.595  10.129  0.1034 -0.2226  0.2045
  104OSM    H4F10590   3.124  -0.557  10.067 -0.3451  3.7684  1.7265
  104OSM    H4G10591   2.950  -0.594  10.062  0.9567 -0.3216 -0.9815
  104OSM    C5F10592   3.072  -0.745  10.152 -0.2516  0.5125  0.9935
  104OSM    H5F10593   2.990  -0.799  10.203 -0.6685 -0.1985 -0.3811
  104OSM    H5G10594   3.170  -0.752  10.203  0.8572 -0.5426 -1.1241
  104OSM    C6F10595   3.085  -0.811  10.015 -0.2855 -0.2408 -0.1819
  104OSM    H6F10596   3.151  -0.900  10.025  0.4632  0.5741  3.2028
  104OSM    H6G10597   3.137  -0.749   9.939 -2.2669  0.4762 -1.0410
  104OSM    C7F10598   2.947  -0.871   9.972  0.2748  0.1755  0.8490
  104OSM    H7F10599   2.874  -0.792  10.000 -0.8578 -0.6748  0.3545
  104OSM    H7G10600   2.925  -0.955  10.040  0.1866  0.9612  1.8044
  104OSM    C8F10601   2.935  -0.931   9.826  0.3119 -0.6226 -0.1503
  104OSM    H8F10602   2.835  -0.980   9.831 -0.0436  0.1783  1.3221
  104OSM    H8G10603   3.016  -1.007   9.823 -2.1012 -3.3708 -2.1557
  104OSM    C9F10604   2.940  -0.816   9.729  0.0547 -0.0063 -0.0618
  104OSM    H9F10605   3.026  -0.747   9.739 -0.6904  0.7911  1.0975
  104OSM   C10F10606   2.850  -0.783   9.631  0.4605 -0.0082  0.6942
  104OSM   H10F10607   2.854  -0.683   9.584  1.1376  1.2211  3.2117
  104OSM   C11F10608   2.728  -0.865   9.602 -0.5645 -0.5839 -0.4353
  104OSM   H11F10609   2.696  -0.917   9.695  1.3955 -1.6102 -0.2705
  104OSM   H11G10610   2.748  -0.944   9.526  0.6350 -0.4487 -0.2790
  104OSM   C12F10611   2.605  -0.792   9.552 -0.3167 -0.1794  0.3871
  104OSM   H12F10612   2.566  -0.733   9.637  1.0840  0.6167  0.5230
  104OSM   H12G10613   2.526  -0.870   9.554 -2.5090  1.9426  1.9312
  104OSM   C13F10614   2.621  -0.712   9.421  0.5980 -0.1095 -0.2756
  104OSM   H13F10615   2.683  -0.620   9.429  1.0636 -0.3370 -1.2086
  104OSM   H13G10616   2.521  -0.667   9.403 -0.2856 -1.8447  0.0939
  104OSM   C14F10617   2.649  -0.805   9.308 -0.3433 -0.8399  0.1564
  104OSM   H14F10618   2.596  -0.902   9.312 -2.4371  0.0891 -2.4341
  104OSM   H14G10619   2.759  -0.820   9.314  0.0893  1.7269 -0.2884
  104OSM   C15F10620   2.602  -0.753   9.167 -0.5989 -0.1260 -0.9562
  104OSM   H15F10621   2.645  -0.652   9.152  1.0745 -0.1378  2.6825
  104OSM   H15G10622   2.491  -0.749   9.162 -0.5893 -0.4325 -1.4438
  104OSM   C16F10623   2.651  -0.851   9.057  0.6720 -0.6533  0.5240
  104OSM   H16F10624   2.618  -0.955   9.077  0.0889 -1.4645 -3.5950
  104OSM   H16G10625   2.762  -0.841   9.054  0.5490  1.2488  1.1389
  104OSM   C17F10626   2.589  -0.808   8.921  0.2560  0.3990  0.0810
  104OSM   H17F10627   2.643  -0.860   8.840 -0.8193  0.8640 -0.9704
  104OSM   H17G10628   2.598  -0.698   8.909  0.2796  0.5603  1.3642
  104OSM   C18F10629   2.440  -0.846   8.895 -0.0109  0.1465 -0.3354
  104OSM   H18F10630   2.418  -0.955   8.900  0.9951 -0.1292 -1.6364
  104OSM   H18G10631   2.405  -0.829   8.792 -1.7279 -0.9825  0.0064
  104OSM   H18H10632   2.362  -0.799   8.960 -0.5071 -0.2553 -0.6330
  105OSM      N10633   6.006   2.287  11.022 -0.2481 -0.3531  0.4743
  105OSM    C1510634   6.108   2.273  11.128  0.3281  0.6357  0.4501
  105OSM   H15A10635   6.155   2.178  11.113  0.2474  0.7509 -0.5929
  105OSM   H15B10636   6.052   2.259  11.220 -1.2922 -2.8320 -0.9257
  105OSM   H15C10637   6.195   2.338  11.128  0.4720  0.4467  0.9829
  105OSM    C1410638   5.895   2.200  11.053 -0.7316  0.7654  0.6008
  105OSM   H14A10639   5.847   2.234  11.144 -1.2362  1.1952  0.1764
  105OSM   H14B10640   5.929   2.099  11.071  2.1809  1.1487 -1.9573
  105OSM   H14C10641   5.815   2.205  10.980 -1.3987  2.3167  1.3816
  105OSM    C1310642   5.953   2.424  11.021 -0.6473  0.1387 -0.6394
  105OSM   H13A10643   5.909   2.458  11.114 -1.2533 -1.7734 -0.1848
  105OSM   H13B10644   5.882   2.450  10.945 -1.5397  0.3216  0.2445
  105OSM   H13C10645   6.038   2.489  11.002  0.5336 -1.1031  0.1438
  105OSM    C1210646   6.065   2.252  10.888 -0.3511 -0.5820 -0.6819
  105OSM   H12A10647   5.987   2.269  10.815 -1.7261 -1.4385  0.5429
  105OSM   H12B10648   6.098   2.149  10.891  0.2807 -0.3730 -0.1698
  105OSM    C1110649   6.185   2.343  10.850 -0.0993  0.2479 -0.2340
  105OSM   H11A10650   6.163   2.452  10.848 -2.1557 -0.1222 -2.8461
  105OSM   H11B10651   6.214   2.314  10.747 -1.2056 -1.5066 -0.0732
  105OSM      P10652   6.406   2.409  10.985  0.1839 -0.0516  0.0449
  105OSM    O1310653   6.339   2.489  11.087 -0.3423  0.2125  0.4255
  105OSM    O1410654   6.525   2.327  11.019 -0.1623  0.2514  0.1193
  105OSM    O1110655   6.451   2.503  10.868 -0.5706 -0.9592 -0.0845
  105OSM    O1210656   6.295   2.311  10.930  0.1380  0.0355  0.6981
  105OSM    C1S10657   6.566   2.485  10.789  0.1205  0.0796  0.0726
  105OSM    H1S10658   6.650   2.443  10.848 -0.1691 -0.2778  0.2328
  105OSM    H1T10659   6.608   2.581  10.751  2.3663 -1.0889 -0.5167
  105OSM     NF10660   6.661   2.366  10.592  0.2783 -0.1732 -0.6715
  105OSM    HNF10661   6.698   2.422  10.519  0.3490 -1.4017 -1.6065
  105OSM    C2S10662   6.539   2.407  10.662  0.3747  0.4978 -0.0208
  105OSM    H2S10663   6.470   2.322  10.684  0.3453 -0.0747 -2.0890
  105OSM    C3S10664   6.444   2.487  10.562  0.4488 -0.1708  0.0496
  105OSM    H3S10665   6.495   2.583  10.538 -0.2314 -0.3902 -2.5792
  105OSM     O310666   6.320   2.524  10.621 -0.2024 -0.3884  0.3619
  105OSM    HO310667   6.336   2.496  10.711 -1.9355 -0.6111  0.6366
  105OSM    C4S10668   6.422   2.407  10.439 -0.2242  0.6774 -0.1110
  105OSM    H4S10669   6.461   2.448  10.345  1.0418  2.0569  0.9538
  105OSM    C5S10670   6.358   2.286  10.430 -0.0348 -0.3936  0.4754
  105OSM    H5S10671   6.305   2.249  10.519 -1.2926  1.6922  0.6652
  105OSM    C6S10672   6.348   2.226  10.294 -0.3899 -0.3190 -0.2549
  105OSM    H6S10673   6.240   2.217  10.268 -0.3246 -0.6002 -0.4341
  105OSM    H6T10674   6.366   2.118  10.311 -1.8495 -0.8390 -1.7172
  105OSM    C7S10675   6.416   2.267  10.163 -0.0701 -1.2188 -0.4307
  105OSM    H7S10676   6.527   2.265  10.168  0.0358  1.8172 -0.1521
  105OSM    H7T10677   6.387   2.371  10.139 -0.0936 -1.3319 -0.8964
  105OSM    C8S10678   6.380   2.167  10.055 -0.2847  0.4553 -0.2041
  105OSM    H8S10679   6.277   2.131  10.077 -0.1926 -0.6580 -1.4249
  105OSM    H8T10680   6.438   2.073  10.064 -1.8150 -0.5673 -0.4962
  105OSM    C9S10681   6.388   2.213   9.916 -0.5496 -0.2070  0.6013
  105OSM    H9S10682   6.492   2.233   9.880 -0.6764 -0.8318 -0.1475
  105OSM    H9T10683   6.331   2.307   9.909 -1.5495 -0.7203  1.7181
  105OSM   C10S10684   6.314   2.132   9.816  0.1565  1.0131  0.0004
  105OSM   H10S10685   6.351   2.028   9.821  1.8071  1.5803  0.3790
  105OSM   H10T10686   6.336   2.172   9.715  1.5019  1.6002  0.4992
  105OSM   C11S10687   6.159   2.121   9.850 -0.1124  0.2162 -0.4979
  105OSM   H11S10688   6.122   2.211   9.905 -0.5450  1.4874 -2.7396
  105OSM   H11T10689   6.157   2.039   9.925  0.0737 -0.6202 -1.3920
  105OSM   C12S10690   6.061   2.095   9.733 -0.0200 -0.0293  0.2699
  105OSM   H12S10691   6.087   2.172   9.657  1.0033 -1.8791 -1.3532
  105OSM   H12T10692   5.954   2.093   9.759 -0.6183  1.7736 -1.7298
  105OSM   C13S10693   6.097   1.965   9.665 -0.2587  0.4434 -0.7864
  105OSM   H13S10694   6.089   1.880   9.737  0.8652  0.5760 -0.4760
  105OSM   H13T10695   6.200   1.965   9.623  0.5889  0.8678  1.1954
  105OSM   C14S10696   6.016   1.943   9.534  0.1230 -0.5304  0.2830
  105OSM   H14S10697   6.049   2.017   9.458 -0.2399  0.8070  1.3863
  105OSM   H14T10698   5.906   1.955   9.542  0.3001  2.2560 -0.5144
  105OSM   C15S10699   6.032   1.798   9.476 -0.2135  0.6372 -0.0133
  105OSM   H15S10700   5.998   1.729   9.557  0.4238  0.8498  0.4412
  105OSM   H15T10701   6.142   1.786   9.465 -0.1508  2.6253 -1.9788
  105OSM   C16S10702   5.952   1.775   9.348 -0.6936 -0.1222 -0.5835
  105OSM   H16S10703   5.983   1.858   9.282  0.9617  1.0929  1.5830
  105OSM   H16T10704   5.845   1.780   9.377 -0.2232 -0.2284  1.3427
  105OSM   C17S10705   5.973   1.642   9.280 -0.6941 -0.4044 -0.4010
  105OSM   H17S10706   5.943   1.560   9.348 -0.4036  0.6764  1.0598
  105OSM   H17T10707   6.082   1.632   9.258 -0.2641  3.1469 -0.3390
  105OSM   C18S10708   5.901   1.629   9.148 -0.3353  0.5034 -0.1702
  105OSM   H18S10709   5.915   1.529   9.101 -0.8862  0.5951 -0.5315
  105OSM   H18T10710   5.932   1.703   9.071 -2.3694  0.9156 -0.6432
  105OSM   H18U10711   5.792   1.648   9.146 -0.5814 -0.7951 -0.1439
  105OSM    C1F10712   6.745   2.272  10.635  0.3198  0.0729  0.3409
  105OSM     OF10713   6.703   2.184  10.711 -0.4679 -0.6606  0.5581
  105OSM    C2F10714   6.878   2.263  10.558 -0.4175  0.4049  0.6235
  105OSM    H2F10715   6.951   2.321  10.618 -1.6809  0.2279  2.4257
  105OSM    H2G10716   6.877   2.326  10.467  2.5524  0.6366  0.6816
  105OSM    C3F10717   6.924   2.115  10.534 -0.1227  0.0944  0.2507
  105OSM    H3F10718   6.902   2.044  10.617 -3.6113  1.0814  0.3443
  105OSM    H3G10719   7.034   2.113  10.519 -0.0959  1.2561  0.1895
  105OSM    C4F10720   6.860   2.044  10.411 -0.0880  0.1540 -0.1485
  105OSM    H4F10721   6.759   2.008  10.440  0.8945 -1.0906  1.9325
  105OSM    H4G10722   6.925   1.955  10.394  1.8020  0.9445  2.3842
  105OSM    C5F10723   6.857   2.136  10.290  0.2246  0.0010  0.1214
  105OSM    H5F10724   6.956   2.183  10.274 -0.2888  2.0604  2.3849
  105OSM    H5G10725   6.790   2.221  10.316  1.1168  0.7533 -0.0005
  105OSM    C6F10726   6.805   2.074  10.161  0.0250 -0.4811 -0.0682
  105OSM    H6F10727   6.795   2.142  10.073  3.9743 -0.1509 -0.4208
  105OSM    H6G10728   6.711   2.025  10.194  0.3609 -1.1593 -0.1127
  105OSM    C7F10729   6.892   1.960  10.103  0.1448 -1.1319 -0.9387
  105OSM    H7F10730   6.906   1.875  10.174 -1.0087 -2.0581 -1.7746
  105OSM    H7G10731   6.991   2.002  10.073 -0.7020  1.8587  0.2037
  105OSM    C8F10732   6.833   1.896   9.969 -0.6734 -0.1086  0.0533
  105OSM    H8F10733   6.723   1.908   9.974 -0.9053 -1.1024 -1.7507
  105OSM    H8G10734   6.856   1.789   9.990  0.8494  0.2597  0.4231
  105OSM    C9F10735   6.904   1.933   9.839  0.3132  0.1050  0.0578
  105OSM    H9F10736   7.012   1.948   9.837  0.5182 -1.2735 -0.4490
  105OSM   C10F10737   6.843   1.968   9.724 -0.2569  0.5533 -0.7921
  105OSM   H10F10738   6.905   2.005   9.641 -0.4946  0.8777 -0.8318
  105OSM   C11F10739   6.694   1.971   9.693  0.4853 -0.0202 -0.5842
  105OSM   H11F10740   6.644   2.035   9.769  1.6063  0.8146 -0.5357
  105OSM   H11G10741   6.650   1.870   9.706  0.0540  0.4855  2.8816
  105OSM   C12F10742   6.654   2.012   9.557 -0.2514  0.7394 -0.3557
  105OSM   H12F10743   6.546   1.987   9.551  0.5241 -3.1131 -0.7956
  105OSM   H12G10744   6.715   1.946   9.492  0.2093  0.5378  0.2694
  105OSM   C13F10745   6.682   2.160   9.528  0.1974  0.2107 -0.3476
  105OSM   H13F10746   6.792   2.172   9.535  0.2877 -0.0433 -1.1528
  105OSM   H13G10747   6.636   2.225   9.605  2.2273  1.2896  0.0244
  105OSM   C14F10748   6.651   2.208   9.382 -0.2547  0.3565 -0.2958
  105OSM   H14F10749   6.630   2.115   9.325 -1.0758 -0.6957  1.6266
  105OSM   H14G10750   6.732   2.258   9.324 -0.8062  1.4700 -0.1351
  105OSM   C15F10751   6.526   2.298   9.368  0.4044  0.0607  0.0444
  105OSM   H15F10752   6.555   2.402   9.395  1.0149 -0.3708  1.1078
  105OSM   H15G10753   6.443   2.256   9.427  2.4208 -1.7816  1.7457
  105OSM   C16F10754   6.469   2.296   9.223 -0.6300  0.2325  0.1776
  105OSM   H16F10755   6.367   2.340   9.233 -1.4429 -1.6253  0.6575
  105OSM   H16G10756   6.452   2.195   9.180  0.7535  1.1972 -2.8967
  105OSM   C17F10757   6.549   2.381   9.119  0.5245  0.3144 -0.2170
  105OSM   H17F10758   6.577   2.476   9.168  0.5136 -0.0171  0.4416
  105OSM   H17G10759   6.483   2.394   9.031 -1.7847 -1.3772  1.1473
  105OSM   C18F10760   6.690   2.347   9.059  0.4113  0.2723  0.1654
  105OSM   H18F10761   6.684   2.248   9.008 -0.3568 -0.4393  1.5853
  105OSM   H18G10762   6.775   2.336   9.129 -0.1896  0.4541  0.9403
  105OSM   H18H10763   6.720   2.424   8.985 -2.2376  1.2859  0.0244
  106OSM      N10764   3.438   1.992  10.858  0.1093  0.0754  0.0340
  106OSM    C1510765   3.586   1.980  10.868  0.3371  0.3925  0.3785
  106OSM   H15A10766   3.637   2.049  10.934  0.9953  0.6675 -0.3991
  106OSM   H15B10767   3.632   1.995  10.772 -0.6579 -0.8965 -0.3260
  106OSM   H15C10768   3.614   1.878  10.891  2.4339  0.4299 -1.6206
  106OSM    C1410769   3.380   1.958  10.991 -0.4878 -0.3232  0.3709
  106OSM   H14A10770   3.443   1.996  11.069 -1.1963  2.2439 -0.2158
  106OSM   H14B10771   3.377   1.850  10.991  0.3655 -0.3844 -1.3366
  106OSM   H14C10772   3.277   1.992  10.998 -0.0233  1.3726 -0.4761
  106OSM    C1310773   3.419   2.146  10.826 -0.0586  0.6954  0.9956
  106OSM   H13A10774   3.485   2.172  10.744 -1.5240 -0.3758 -0.5812
  106OSM   H13B10775   3.436   2.208  10.913  1.4608 -1.4777  2.3428
  106OSM   H13C10776   3.331   2.167  10.767  1.8703  0.0101 -2.4226
  106OSM    C1210777   3.381   1.912  10.747 -0.6366 -0.3069 -0.1638
  106OSM   H12A10778   3.446   1.924  10.662  1.0665 -0.3822  1.0940
  106OSM   H12B10779   3.286   1.952  10.714  1.9283  4.0872 -3.2814
  106OSM    C1110780   3.377   1.756  10.760  0.4969  0.1029  0.3953
  106OSM   H11A10781   3.347   1.730  10.656  0.7427 -0.6843  0.5179
  106OSM   H11B10782   3.296   1.715  10.823 -3.0660  2.3557 -2.3160
  106OSM      P10783   3.594   1.621  10.686  0.0701 -0.4069  0.0532
  106OSM    O1310784   3.730   1.604  10.747 -0.3600 -0.2690 -0.3054
  106OSM    O1410785   3.514   1.512  10.627  0.1793  0.1277 -0.3162
  106OSM    O1110786   3.605   1.744  10.580 -0.6585 -0.1614 -0.9558
  106OSM    O1210787   3.503   1.695  10.791 -0.1648 -0.0046  0.1544
  106OSM    C1S10788   3.696   1.712  10.473  0.3639 -0.0402  0.6510
  106OSM    H1S10789   3.671   1.619  10.418  0.9554  0.6273 -0.7909
  106OSM    H1T10790   3.801   1.704  10.508 -0.1734  0.2140  2.4185
  106OSM     NF10791   3.797   1.749  10.250  0.2220  0.2310 -0.5944
  106OSM    HNF10792   3.889   1.785  10.263 -0.0074  0.3535  0.8398
  106OSM    C2S10793   3.696   1.803  10.341 -0.9516  0.4386 -0.6638
  106OSM    H2S10794   3.596   1.811  10.293 -1.2324  0.8911 -0.0137
  106OSM    C3S10795   3.731   1.948  10.394 -0.6038  0.6485 -0.0234
  106OSM    H3S10796   3.841   1.948  10.413 -0.9821  0.2311  2.3686
  106OSM     O310797   3.655   1.978  10.513 -0.6624 -0.0781  0.2200
  106OSM    HO310798   3.632   1.888  10.538 -0.4350  0.2563  1.6874
  106OSM    C4S10799   3.707   2.058  10.295  0.0120  0.1881  0.0522
  106OSM    H4S10800   3.600   2.082  10.283 -0.1654  0.8381  2.4635
  106OSM    C5S10801   3.798   2.139  10.235 -0.3864  0.3034  0.4270
  106OSM    H5S10802   3.905   2.114  10.242 -0.5648 -0.8630 -0.6215
  106OSM    C6S10803   3.763   2.247  10.132 -0.4008  0.6178 -0.0354
  106OSM    H6S10804   3.751   2.340  10.192  1.5763  0.5855  0.4891
  106OSM    H6T10805   3.656   2.244  10.101 -0.5150  3.7862 -0.2910
  106OSM    C7S10806   3.873   2.242  10.024 -0.2941  0.4781  0.7992
  106OSM    H7S10807   3.885   2.143   9.975  1.3195 -0.5000  2.9938
  106OSM    H7T10808   3.971   2.275  10.065 -0.4236  1.2461  0.5155
  106OSM    C8S10809   3.856   2.347   9.916  1.1480 -0.8362  0.1810
  106OSM    H8S10810   3.851   2.454   9.944 -0.5804 -0.4973 -1.2484
  106OSM    H8T10811   3.753   2.339   9.876  0.7586 -1.0077  1.1864
  106OSM    C9S10812   3.962   2.318   9.803 -0.8365 -0.1532 -0.1418
  106OSM    H9S10813   3.913   2.251   9.730 -0.7358 -0.8165  0.3900
  106OSM    H9T10814   4.053   2.270   9.844 -1.4724 -0.2872  1.1735
  106OSM   C10S10815   4.006   2.448   9.732 -0.5630 -0.4781  0.3144
  106OSM   H10S10816   4.025   2.524   9.810  2.5452  1.2802 -1.9250
  106OSM   H10T10817   3.922   2.490   9.672 -0.5875 -0.4638  0.3582
  106OSM   C11S10818   4.133   2.433   9.643  0.7816  0.0980  0.6751
  106OSM   H11S10819   4.199   2.357   9.689 -0.9401 -0.6932  1.9703
  106OSM   H11T10820   4.186   2.531   9.633  1.8642 -0.6588 -1.6291
  106OSM   C12S10821   4.111   2.373   9.501 -0.8772  0.4643 -0.9621
  106OSM   H12S10822   4.073   2.270   9.519 -0.0280  0.2921 -0.0729
  106OSM   H12T10823   4.212   2.366   9.457 -0.0306  0.7428  0.8630
  106OSM   C13S10824   4.008   2.444   9.412 -0.4244  0.0159 -0.3798
  106OSM   H13S10825   3.908   2.447   9.459  0.3847 -0.1123  1.4254
  106OSM   H13T10826   4.005   2.398   9.310 -0.1373  0.8644 -0.7777
  106OSM   C14S10827   4.043   2.592   9.392 -0.6160  0.5829  0.1980
  106OSM   H14S10828   4.148   2.597   9.355 -0.3780 -0.9804  0.6042
  106OSM   H14T10829   4.041   2.652   9.486  0.8054  0.9991 -0.0100
  106OSM   C15S10830   3.952   2.662   9.286  0.5409  0.9255 -0.0353
  106OSM   H15S10831   3.947   2.769   9.317 -0.6265  0.6804  0.7041
  106OSM   H15T10832   3.852   2.614   9.292  0.5399  0.9555  0.2251
  106OSM   C16S10833   4.007   2.657   9.145  0.3562 -0.0123 -0.2169
  106OSM   H16S10834   4.020   2.555   9.103  0.2711 -0.2204  0.2577
  106OSM   H16T10835   4.115   2.685   9.139  0.3098 -0.0501 -1.8987
  106OSM   C17S10836   3.926   2.756   9.060  0.3651  0.6190  0.5576
  106OSM   H17S10837   3.940   2.857   9.105  1.7011  0.3247  0.8307
  106OSM   H17T10838   3.821   2.719   9.064  0.0536  1.5458  3.5088
  106OSM   C18S10839   3.963   2.748   8.913 -0.3350  0.1093  0.4400
  106OSM   H18S10840   4.051   2.808   8.882 -1.3094  1.4458  0.1753
  106OSM   H18T10841   3.879   2.788   8.853  0.5033  1.1195 -0.0939
  106OSM   H18U10842   3.987   2.642   8.893  0.3183 -0.0863  2.1216
  106OSM    C1F10843   3.774   1.642  10.178 -0.5559 -0.3240  0.6595
  106OSM     OF10844   3.664   1.585  10.168 -0.2338 -0.5797 -0.0409
  106OSM    C2F10845   3.888   1.584  10.100 -0.1301 -0.3399 -0.8319
  106OSM    H2F10846   3.977   1.609  10.161 -0.0801  1.7275 -1.6644
  106OSM    H2G10847   3.904   1.641  10.006  3.1210 -0.0384 -0.2138
  106OSM    C3F10848   3.871   1.434  10.068  0.0433  0.2421 -0.5175
  106OSM    H3F10849   3.779   1.426  10.006  0.3088  1.2947 -1.0733
  106OSM    H3G10850   3.871   1.371  10.159  1.2857  0.8609 -0.0676
  106OSM    C4F10851   3.983   1.375   9.986 -0.2245 -0.2847  0.0728
  106OSM    H4F10852   4.064   1.347  10.057 -0.7716 -0.9499  0.4499
  106OSM    H4G10853   4.031   1.440   9.910  1.8772  2.6737  3.6282
  106OSM    C5F10854   3.943   1.237   9.923 -0.1140 -0.3004  0.4610
  106OSM    H5F10855   3.890   1.185  10.006  1.6707  0.4192  2.1342
  106OSM    H5G10856   4.036   1.178   9.906 -0.3123 -0.4564 -0.0677
  106OSM    C6F10857   3.852   1.253   9.802 -0.4424  0.1424  0.4578
  106OSM    H6F10858   3.785   1.339   9.822  1.3076  2.1934 -1.8019
  106OSM    H6G10859   3.807   1.153   9.785  3.6219 -1.7568 -0.4499
  106OSM    C7F10860   3.933   1.295   9.679 -0.0821  0.3806 -0.1218
  106OSM    H7F10861   4.020   1.229   9.660 -0.3484  0.0926 -0.3536
  106OSM    H7G10862   3.968   1.396   9.709 -2.6881  1.4659 -0.4403
  106OSM    C8F10863   3.850   1.309   9.554  0.2124 -0.1492  0.4475
  106OSM    H8F10864   3.890   1.389   9.487 -0.8202 -0.7774 -0.9559
  106OSM    H8G10865   3.747   1.337   9.586  0.2232 -0.2817  0.5973
  106OSM    C9F10866   3.846   1.192   9.463  0.1463  0.3058  0.6651
  106OSM    H9F10867   3.757   1.130   9.445  0.3371 -0.0463  0.9091
  106OSM   C10F10868   3.955   1.139   9.400  0.0410  0.0516  0.3026
  106OSM   H10F10869   3.941   1.042   9.350 -1.3336  1.5312 -2.3891
  106OSM   C11F10870   4.094   1.190   9.405 -0.0962 -0.0941  0.7623
  106OSM   H11F10871   4.145   1.129   9.483  1.7638  1.5524  0.9059
  106OSM   H11G10872   4.097   1.295   9.442  1.4172  0.0327  0.3581
  106OSM   C12F10873   4.167   1.174   9.270 -0.0935 -0.1354 -0.6238
  106OSM   H12F10874   4.158   1.083   9.208  3.9035  0.6154 -2.6078
  106OSM   H12G10875   4.270   1.184   9.310 -0.1778 -0.0750 -0.4191
  106OSM   C13F10876   4.159   1.291   9.166  0.5565 -0.2376  0.2453
  106OSM   H13F10877   4.188   1.386   9.215  0.1619  0.1865 -0.3256
  106OSM   H13G10878   4.053   1.294   9.131  0.3365 -0.4282  0.8785
  106OSM   C14F10879   4.257   1.272   9.053  0.5330 -0.1633 -0.2677
  106OSM   H14F10880   4.224   1.187   8.991 -0.1047 -0.2236  0.1509
  106OSM   H14G10881   4.358   1.246   9.093 -0.2110 -1.7544  0.6801
  106OSM   C15F10882   4.257   1.399   8.960  0.1739 -0.6298 -0.6804
  106OSM   H15F10883   4.308   1.488   9.004 -3.4092  2.0828 -1.5781
  106OSM   H15G10884   4.158   1.447   8.944 -0.0781 -0.7292  0.4549
  106OSM   C16F10885   4.312   1.370   8.823  0.3566 -0.3144  0.3200
  106OSM   H16F10886   4.313   1.463   8.762  2.3661  0.8346  1.9517
  106OSM   H16G10887   4.233   1.305   8.780 -2.1484  1.9077  1.2542
  106OSM   C17F10888   4.454   1.311   8.824  0.6760 -0.4437  0.2167
  106OSM   H17F10889   4.445   1.202   8.846  2.1438 -0.3127  1.7317
  106OSM   H17G10890   4.511   1.355   8.909 -1.9286 -0.9702  2.3522
  106OSM   C18F10891   4.538   1.318   8.696  0.4497  0.3633 -0.2429
  106OSM   H18F10892   4.624   1.248   8.696 -1.0653 -1.6130  1.6840
  106OSM   H18G10893   4.571   1.424   8.684 -0.9106  0.7062 -1.1588
  106OSM   H18H10894   4.472   1.304   8.608 -1.4244  1.1055  0.9916
  107OSM      N10895   0.931   5.373  10.676 -0.1425  0.4653 -0.7405
  107OSM    C1510896   0.832   5.409  10.783 -0.1788 -0.3697  0.1997
  107OSM   H15A10897   0.749   5.468  10.746 -0.7456 -1.0360  0.3984
  107OSM   H15B10898   0.876   5.477  10.855 -1.9292  0.6615  0.3553
  107OSM   H15C10899   0.782   5.322  10.821 -1.4551  0.0920 -0.3616
  107OSM    C1410900   1.046   5.311  10.745 -0.6572 -0.5140  0.0683
  107OSM   H14A10901   1.066   5.374  10.831  2.2426  0.5844 -1.2915
  107OSM   H14B10902   1.142   5.326  10.697  0.2458  0.3488  1.9975
  107OSM   H14C10903   1.025   5.211  10.781 -0.5695 -0.1690  1.1299
  107OSM    C1310904   0.877   5.264  10.598  0.7070 -0.0841 -0.5593
  107OSM   H13A10905   0.853   5.171  10.649  2.9616  0.5713  1.9437
  107OSM   H13B10906   0.930   5.241  10.507 -0.9509 -3.5741 -0.7999
  107OSM   H13C10907   0.779   5.288  10.561  0.3634 -0.1850  0.2459
  107OSM    C1210908   0.981   5.488  10.588 -0.5829 -0.1298  0.7685
  107OSM   H12A10909   0.902   5.523  10.524  1.7285  3.3821 -0.4444
  107OSM   H12B10910   1.058   5.452  10.521 -0.1296  0.9549  0.6890
  107OSM    C1110911   1.048   5.620  10.653  0.0830 -0.8077  0.0661
  107OSM   H11A10912   0.980   5.654  10.734  0.2675 -1.5250  0.5331
  107OSM   H11B10913   1.051   5.707  10.583 -0.0589  0.8882  2.0749
  107OSM      P10914   1.309   5.601  10.610 -0.0721  0.0323 -0.2444
  107OSM    O1310915   1.416   5.668  10.682  0.5903  0.2806  0.0230
  107OSM    O1410916   1.337   5.460  10.576  0.2880 -0.4619  0.4238
  107OSM    O1110917   1.257   5.683  10.490  0.0879  0.2047 -0.0332
  107OSM    O1210918   1.180   5.602  10.702  0.2534  0.3836  0.2580
  107OSM    C1S10919   1.255   5.823  10.496  0.3050  0.2804 -0.3697
  107OSM    H1S10920   1.336   5.864  10.559 -2.0014  1.0483  2.3278
  107OSM    H1T10921   1.163   5.877  10.527 -0.6586 -0.0659 -2.4614
  107OSM     NF10922   1.320   6.015  10.343 -0.4780  0.3574  0.1777
  107OSM    HNF10923   1.254   6.076  10.300 -1.3045 -0.5394  0.1137
  107OSM    C2S10924   1.279   5.873  10.352 -0.3956  0.1989 -0.7596
  107OSM    H2S10925   1.365   5.820  10.307 -1.2893 -1.3588 -0.7098
  107OSM    C3S10926   1.144   5.842  10.266 -0.1344 -0.3477 -0.5237
  107OSM    H3S10927   1.074   5.923  10.297  0.5519 -0.3483  1.1796
  107OSM     O310928   1.071   5.722  10.294  0.5944 -0.2214 -0.0568
  107OSM    HO310929   1.129   5.688  10.364  0.4478 -0.3687 -0.0064
  107OSM    C4S10930   1.171   5.859  10.118 -0.4512 -0.4884 -0.3876
  107OSM    H4S10931   1.233   5.782  10.070  3.3453  2.8867 -1.4182
  107OSM    C5S10932   1.110   5.957  10.039 -1.0132  0.0891 -0.3808
  107OSM    H5S10933   1.044   6.033  10.083 -1.0576  0.6982 -1.4694
  107OSM    C6S10934   1.130   5.974   9.892 -0.3396  0.3314 -0.4181
  107OSM    H6S10935   1.159   6.081   9.887  0.6419  0.1395  0.9140
  107OSM    H6T10936   1.040   5.949   9.831 -1.5352 -4.0537  2.7253
  107OSM    C7S10937   1.243   5.884   9.836  0.3032 -0.7075 -0.2860
  107OSM    H7S10938   1.205   5.780   9.840  3.0136 -1.7538  0.2257
  107OSM    H7T10939   1.334   5.879   9.898  0.1278 -1.9782 -0.1076
  107OSM    C8S10940   1.282   5.907   9.689 -0.2770 -0.2928 -0.1140
  107OSM    H8S10941   1.328   5.811   9.654 -0.8270 -0.7928  0.5130
  107OSM    H8T10942   1.352   5.993   9.692 -0.3433  0.0478 -3.4986
  107OSM    C9S10943   1.162   5.929   9.593 -0.2013 -0.1704 -0.6116
  107OSM    H9S10944   1.095   6.009   9.631  0.7363 -0.3070  1.4859
  107OSM    H9T10945   1.105   5.835   9.582 -0.0151 -0.2965 -0.4999
  107OSM   C10S10946   1.214   5.964   9.453 -0.4908 -0.7043 -0.2035
  107OSM   H10S10947   1.317   5.924   9.443 -0.5859 -0.7857 -0.9289
  107OSM   H10T10948   1.235   6.073   9.451 -0.7133 -0.6667 -1.6688
  107OSM   C11S10949   1.117   5.920   9.336 -0.2628 -0.0990 -0.7630
  107OSM   H11S10950   1.024   5.966   9.374  0.4490  0.4771  0.3012
  107OSM   H11T10951   1.106   5.810   9.351  0.8269 -0.0776  0.2446
  107OSM   C12S10952   1.140   5.954   9.189  0.4391 -0.2828  0.2709
  107OSM   H12S10953   1.232   5.896   9.167  0.1941 -0.4773 -0.2807
  107OSM   H12T10954   1.157   6.062   9.172  2.1650 -0.6153 -0.3632
  107OSM   C13S10955   1.030   5.896   9.099  0.1251 -0.1620  0.0577
  107OSM   H13S10956   0.942   5.958   9.128  0.5960  0.3595  0.4062
  107OSM   H13T10957   0.996   5.797   9.134 -0.0013  0.4139  1.6530
  107OSM   C14S10958   1.042   5.906   8.943 -0.1527 -0.2451 -0.9802
  107OSM   H14S10959   0.983   5.820   8.903 -1.0769 -0.6603  1.1331
  107OSM   H14T10960   1.151   5.896   8.923 -0.4170 -2.3172 -1.7318
  107OSM   C15S10961   0.996   6.040   8.888 -0.0828  0.0234 -0.4372
  107OSM   H15S10962   1.073   6.112   8.922  0.4409 -1.5436  1.9376
  107OSM   H15T10963   0.901   6.057   8.944 -1.9387  2.5570 -3.9520
  107OSM   C16S10964   0.964   6.039   8.736 -0.1510 -0.2416  0.2888
  107OSM   H16S10965   1.055   6.002   8.683 -0.5526  0.4793 -0.9583
  107OSM   H16T10966   0.950   6.144   8.701  2.0176 -0.1224 -0.3844
  107OSM   C17S10967   0.838   5.959   8.698  0.9466 -0.1766 -0.0988
  107OSM   H17S10968   0.754   5.979   8.768 -1.3079  0.3389 -2.7519
  107OSM   H17T10969   0.856   5.852   8.724 -0.1725 -0.3442  0.0282
  107OSM   C18S10970   0.783   5.974   8.554  0.4819  0.5728  0.0501
  107OSM   H18S10971   0.773   6.082   8.529  2.7555  1.7415  3.5108
  107OSM   H18T10972   0.681   5.931   8.551  0.2634  1.0575  0.3656
  107OSM   H18U10973   0.841   5.915   8.480 -1.5480 -0.8588 -0.4713
  107OSM    C1F10974   1.434   6.059  10.389  0.1395  0.1425 -0.2910
  107OSM     OF10975   1.527   5.983  10.407  0.3260 -0.7996  0.0986
  107OSM    C2F10976   1.444   6.199  10.434 -0.3431  0.0257 -0.0288
  107OSM    H2F10977   1.460   6.199  10.544  1.3086  0.4354 -0.2382
  107OSM    H2G10978   1.350   6.252  10.409  0.0324  2.4000  2.9978
  107OSM    C3F10979   1.562   6.275  10.376 -0.6870  0.0056 -0.3960
  107OSM    H3F10980   1.655   6.214  10.380 -1.1502 -0.7006 -0.1990
  107OSM    H3G10981   1.590   6.347  10.456  1.1880 -0.9686 -0.1212
  107OSM    C4F10982   1.554   6.327  10.237  0.0581  0.4096  0.0206
  107OSM    H4F10983   1.659   6.346  10.207  0.6922  0.0974  1.9409
  107OSM    H4G10984   1.508   6.425  10.262 -1.6880 -0.7294  1.5218
  107OSM    C5F10985   1.482   6.246  10.126 -0.1345  0.8822 -0.0405
  107OSM    H5F10986   1.375   6.233  10.149 -0.3077 -0.2404 -1.3468
  107OSM    H5G10987   1.524   6.144  10.115 -3.7287 -0.5330 -2.0153
  107OSM    C6F10988   1.508   6.318   9.996  0.5557 -0.0592 -0.4231
  107OSM    H6F10989   1.615   6.320   9.966  0.0426  0.9023 -2.3510
  107OSM    H6G10990   1.485   6.424  10.022  0.7263  0.3360 -1.7907
  107OSM    C7F10991   1.420   6.271   9.885  0.5028 -0.3729 -0.8157
  107OSM    H7F10992   1.316   6.274   9.923  0.8654 -0.6187  0.2208
  107OSM    H7G10993   1.433   6.165   9.853 -1.0227 -0.3078 -1.7392
  107OSM    C8F10994   1.420   6.362   9.754 -0.2442  1.3129 -0.4656
  107OSM    H8F10995   1.402   6.465   9.792 -1.9681  0.6480  0.6490
  107OSM    H8G10996   1.328   6.332   9.699  0.4560  0.5931 -1.2587
  107OSM    C9F10997   1.552   6.355   9.683 -0.1011 -0.1823 -0.3120
  107OSM    H9F10998   1.646   6.373   9.738 -0.2498  0.7517 -0.3513
  107OSM   C10F10999   1.563   6.353   9.550 -0.0685 -0.0053  0.2618
  107OSM   H10F11000   1.662   6.359   9.503  0.2502  0.4997  0.9887
  107OSM   C11F11001   1.450   6.347   9.454  0.3448 -0.2894 -0.2064
  107OSM   H11F11002   1.447   6.453   9.420  1.7251 -0.3336 -0.5129
  107OSM   H11G11003   1.350   6.311   9.485 -0.1031  0.7626 -0.3862
  107OSM   C12F11004   1.495   6.274   9.320  0.7389 -0.2185  0.2145
  107OSM   H12F11005   1.395   6.267   9.271  0.5615  0.0660  0.5268
  107OSM   H12G11006   1.542   6.175   9.340  1.1606 -0.8398 -3.2542
  107OSM   C13F11007   1.588   6.360   9.230  0.0505 -0.0201  0.3089
  107OSM   H13F11008   1.692   6.356   9.269  0.0521 -0.5646  0.2692
  107OSM   H13G11009   1.561   6.467   9.223 -1.3015 -0.4102 -1.3498
  107OSM   C14F11010   1.583   6.314   9.082  0.4960  0.1088  0.6414
  107OSM   H14F11011   1.587   6.203   9.078  1.6379  0.1836 -2.4883
  107OSM   H14G11012   1.675   6.341   9.027  0.8548 -2.9211 -0.4396
  107OSM   C15F11013   1.455   6.357   9.006 -0.0611  0.2992 -0.2685
  107OSM   H15F11014   1.458   6.466   8.986 -1.3568  0.6099  1.0529
  107OSM   H15G11015   1.372   6.340   9.077 -0.3757 -0.2576 -0.7590
  107OSM   C16F11016   1.424   6.282   8.874 -0.4055 -1.1144  0.2166
  107OSM   H16F11017   1.498   6.319   8.799  1.6171 -1.9710  1.7181
  107OSM   H16G11018   1.326   6.300   8.824  1.2403  1.7372 -2.3647
  107OSM   C17F11019   1.445   6.131   8.874  0.6036 -0.5093  0.2632
  107OSM   H17F11020   1.389   6.086   8.958  1.9005  0.4408  1.7090
  107OSM   H17G11021   1.552   6.109   8.899  0.7319 -2.3773 -1.6511
  107OSM   C18F11022   1.415   6.056   8.753 -0.6303  0.3581  0.0179
  107OSM   H18F11023   1.428   5.947   8.771 -0.2243 -0.0494 -2.4962
  107OSM   H18G11024   1.480   6.078   8.666  0.5860 -1.6975  0.3310
  107OSM   H18H11025   1.309   6.075   8.726 -1.5268 -0.4844  2.5789
  108OSM      N11026   4.265   1.240  10.684  1.2359  0.6359  0.0700
  108OSM    C1511027   4.291   1.089  10.671 -0.6565 -1.4838  0.1265
  108OSM   H15A11028   4.397   1.069  10.668 -0.9944 -3.9851  1.8675
  108OSM   H15B11029   4.244   1.033  10.591 -2.6682  0.6554 -0.2883
  108OSM   H15C11030   4.264   1.043  10.765 -0.8746  0.9465  1.3233
  108OSM    C1411031   4.278   1.293  10.546 -0.7349 -0.2731 -0.1634
  108OSM   H14A11032   4.255   1.399  10.545 -3.1366 -0.7470 -0.3958
  108OSM   H14B11033   4.218   1.237  10.475 -2.5151  1.2967  0.0100
  108OSM   H14C11034   4.381   1.275  10.520 -0.6996 -2.3753  1.2323
  108OSM    C1311035   4.124   1.269  10.731 -0.0836 -0.6128  0.5374
  108OSM   H13A11036   4.054   1.223  10.662  0.0433 -1.1645  0.7702
  108OSM   H13B11037   4.112   1.376  10.723 -1.6812 -0.5639  2.6656
  108OSM   H13C11038   4.111   1.236  10.833  1.4252 -2.2011  0.2428
  108OSM    C1211039   4.366   1.294  10.779  0.0342  0.9809 -0.0292
  108OSM   H12A11040   4.371   1.234  10.869  0.0402 -0.6578 -1.0806
  108OSM   H12B11041   4.320   1.385  10.816 -2.3667 -0.7107  1.4506
  108OSM    C1111042   4.511   1.313  10.733 -1.2546  0.1045  0.6227
  108OSM   H11A11043   4.580   1.367  10.801  0.4207  0.9867 -1.6496
  108OSM   H11B11044   4.508   1.369  10.638  3.0394  0.2301  0.3670
  108OSM      P11045   4.679   1.110  10.786  0.0486 -0.1307  0.3162
  108OSM    O1311046   4.819   1.126  10.742  0.3041  0.0841  0.0538
  108OSM    O1411047   4.661   1.145  10.926  0.6375 -0.1684  0.1880
  108OSM    O1111048   4.642   0.953  10.771 -0.3581  0.6305  0.2956
  108OSM    O1211049   4.572   1.186  10.704  0.1834  0.0949 -0.0630
  108OSM    C1S11050   4.615   0.890  10.645 -0.4657  0.0907  0.0214
  108OSM    H1S11051   4.530   0.947  10.601 -0.5286  0.3214  0.4364
  108OSM    H1T11052   4.582   0.784  10.651  1.8029 -0.7017 -0.5934
  108OSM     NF11053   4.706   0.838  10.411  0.3950  0.6340  0.1280
  108OSM    HNF11054   4.717   0.741  10.389  0.3167  0.9116 -1.2585
  108OSM    C2S11055   4.742   0.881  10.547 -0.1000 -1.0461 -0.6948
  108OSM    H2S11056   4.795   0.977  10.532 -1.8213 -0.0228 -0.4386
  108OSM    C3S11057   4.848   0.781  10.605  0.4365  0.1223 -0.4119
  108OSM    H3S11058   4.809   0.677  10.599 -0.4082  0.4464 -0.6683
  108OSM     O311059   4.877   0.808  10.743  0.2584 -0.1929 -0.6004
  108OSM    HO311060   4.816   0.879  10.766  2.0831  1.0081  0.7848
  108OSM    C4S11061   4.974   0.794  10.532 -0.2819 -0.2044  0.2687
  108OSM    H4S11062   5.010   0.895  10.507 -0.7846 -0.1656 -0.3278
  108OSM    C5S11063   5.038   0.695  10.471 -0.6380  0.0882 -0.3575
  108OSM    H5S11064   5.007   0.590  10.485  0.6433 -0.2950 -0.2888
  108OSM    C6S11065   5.170   0.712  10.398 -0.0831  0.3390 -0.0981
  108OSM    H6S11066   5.251   0.654  10.448 -1.5542 -0.3941  1.5601
  108OSM    H6T11067   5.206   0.816  10.387  0.6498  0.2879  1.4575
  108OSM    C7S11068   5.148   0.648  10.251 -0.2226 -0.4607  0.5039
  108OSM    H7S11069   5.068   0.706  10.200  1.3035  1.2030 -0.1306
  108OSM    H7T11070   5.115   0.544  10.271  1.9844 -1.1599  0.8138
  108OSM    C8S11071   5.269   0.647  10.161 -0.2321  0.0919  0.0608
  108OSM    H8S11072   5.356   0.596  10.208  0.2135 -0.4099 -1.2594
  108OSM    H8T11073   5.304   0.750  10.143  1.3952 -0.1274  1.7392
  108OSM    C9S11074   5.237   0.578  10.020  0.0978 -0.6288 -0.2849
  108OSM    H9S11075   5.178   0.646   9.955 -0.2686 -1.3156 -0.6747
  108OSM    H9T11076   5.188   0.479  10.031 -0.7888  0.0341  2.5968
  108OSM   C10S11077   5.362   0.550   9.935 -0.3933  0.1405 -0.2837
  108OSM   H10S11078   5.413   0.473   9.997 -0.5771 -0.4056 -0.8016
  108OSM   H10T11079   5.426   0.640   9.931 -0.6408  0.3035 -0.6685
  108OSM   C11S11080   5.316   0.504   9.799  0.3607 -0.1107  0.3171
  108OSM   H11S11081   5.263   0.589   9.751 -0.1450 -1.4526 -1.6279
  108OSM   H11T11082   5.249   0.418   9.820 -0.7143  0.4606 -0.6784
  108OSM   C12S11083   5.435   0.437   9.726 -0.4003  0.0278 -0.2850
  108OSM   H12S11084   5.493   0.371   9.794  0.5202  1.1777  0.0794
  108OSM   H12T11085   5.500   0.519   9.688 -2.7771  3.1625  1.8538
  108OSM   C13S11086   5.395   0.368   9.590 -0.1900 -0.8000 -0.4992
  108OSM   H13S11087   5.319   0.291   9.616 -2.6730  1.4222 -0.6997
  108OSM   H13T11088   5.489   0.320   9.558  0.9436  1.2425 -0.3987
  108OSM   C14S11089   5.335   0.466   9.489  0.6490  0.3422 -0.0719
  108OSM   H14S11090   5.256   0.528   9.537  1.4432  0.9617  0.4665
  108OSM   H14T11091   5.269   0.409   9.420 -2.1442  1.1994  1.7215
  108OSM   C15S11092   5.443   0.549   9.424  0.1025 -0.1375  0.4146
  108OSM   H15S11093   5.516   0.488   9.367  1.0582 -0.4009  1.8730
  108OSM   H15T11094   5.490   0.598   9.512  0.1041 -1.4648  1.1878
  108OSM   C16S11095   5.394   0.665   9.333 -0.3857  0.2727 -0.1618
  108OSM   H16S11096   5.339   0.735   9.399 -0.4853  0.2417 -0.2123
  108OSM   H16T11097   5.328   0.620   9.256 -1.2400 -1.5596  1.5488
  108OSM   C17S11098   5.514   0.743   9.265  0.1266 -0.2426  0.4666
  108OSM   H17S11099   5.555   0.681   9.182 -0.3613  0.2390 -0.1445
  108OSM   H17T11100   5.596   0.766   9.337 -0.0143 -1.9313  1.2053
  108OSM   C18S11101   5.466   0.875   9.202  0.9302  0.4444 -0.1185
  108OSM   H18S11102   5.374   0.850   9.145  1.1715  0.3940 -0.4925
  108OSM   H18T11103   5.546   0.918   9.137  1.3763  1.3076  0.9796
  108OSM   H18U11104   5.444   0.943   9.287 -1.7090  0.5349 -0.7819
  108OSM    C1F11105   4.618   0.894  10.331  0.2502 -0.1639  0.8941
  108OSM     OF11106   4.575   1.010  10.356  0.3404  0.3187 -0.0964
  108OSM    C2F11107   4.579   0.816  10.215 -0.0225 -0.1646 -0.3357
  108OSM    H2F11108   4.505   0.738  10.243 -0.4161  1.0479  2.2356
  108OSM    H2G11109   4.672   0.774  10.170 -0.9979 -2.7491 -0.1328
  108OSM    C3F11110   4.544   0.902  10.090 -0.0252  0.1064 -1.0885
  108OSM    H3F11111   4.621   0.982  10.080  0.4509 -0.3376 -1.0494
  108OSM    H3G11112   4.449   0.957  10.106 -0.4460 -0.9405  0.1043
  108OSM    C4F11113   4.531   0.819   9.966 -0.1692  0.3671  0.2790
  108OSM    H4F11114   4.432   0.767   9.970 -0.1203  0.3349  1.0848
  108OSM    H4G11115   4.625   0.760   9.958 -0.4694 -0.1747  0.6977
  108OSM    C5F11116   4.525   0.918   9.846  0.0667  0.0527  0.8033
  108OSM    H5F11117   4.623   0.971   9.852  0.9734 -1.2058 -1.5819
  108OSM    H5G11118   4.438   0.985   9.864 -0.9997 -0.6787 -1.2831
  108OSM    C6F11119   4.505   0.840   9.706 -1.2816  0.1519  0.3810
  108OSM    H6F11120   4.414   0.776   9.713 -0.6698 -0.9043 -0.8635
  108OSM    H6G11121   4.593   0.772   9.702 -1.6319 -0.3539  1.0312
  108OSM    C7F11122   4.500   0.940   9.585  0.0344  0.6129 -0.6074
  108OSM    H7F11123   4.604   0.976   9.565  1.4965 -2.6089  0.4647
  108OSM    H7G11124   4.431   1.025   9.606 -1.1615 -0.1616 -1.3432
  108OSM    C8F11125   4.451   0.853   9.465 -0.4962  0.2784 -0.5501
  108OSM    H8F11126   4.363   0.798   9.504  0.6821 -0.0168  1.8792
  108OSM    H8G11127   4.533   0.779   9.450  0.5132  1.1799  0.3448
  108OSM    C9F11128   4.426   0.924   9.337  0.3064 -0.4808  0.5256
  108OSM    H9F11129   4.334   0.986   9.338  0.5373 -0.1114  2.0856
  108OSM   C10F11130   4.508   0.927   9.228 -0.1325  0.0670  0.5175
  108OSM   H10F11131   4.485   0.992   9.143 -1.9132 -1.7206 -0.4537
  108OSM   C11F11132   4.633   0.852   9.197 -0.0768  0.3672  0.4475
  108OSM   H11F11133   4.607   0.782   9.115  0.1571 -0.1395  0.7950
  108OSM   H11G11134   4.659   0.792   9.287 -2.1884 -1.8651 -0.3071
  108OSM   C12F11135   4.755   0.928   9.146  0.2101 -0.9960 -0.4464
  108OSM   H12F11136   4.852   0.880   9.170  0.9651  1.5002  2.1963
  108OSM   H12G11137   4.768   1.019   9.209 -0.6209  0.1447 -1.8837
  108OSM   C13F11138   4.746   0.974   8.994 -0.1249 -0.1701  0.1638
  108OSM   H13F11139   4.766   1.084   8.992 -1.3622  0.0813  0.7424
  108OSM   H13G11140   4.640   0.968   8.964  0.2209 -1.6611 -0.8662
  108OSM   C14F11141   4.840   0.892   8.908 -0.1716 -0.2139  0.5527
  108OSM   H14F11142   4.812   0.785   8.907  0.7049 -0.4847 -2.1052
  108OSM   H14G11143   4.945   0.908   8.940 -0.4225  1.9859  0.4861
  108OSM   C15F11144   4.837   0.928   8.759  0.3602 -0.1556 -0.2352
  108OSM   H15F11145   4.872   1.033   8.758 -0.7281  0.2182 -0.0261
  108OSM   H15G11146   4.731   0.929   8.726  0.6166  1.7288 -1.1204
  108OSM   C16F11147   4.928   0.845   8.669  0.1950 -0.1885  0.1336
  108OSM   H16F11148   4.910   0.736   8.678 -0.4588 -0.0571  0.3921
  108OSM   H16G11149   5.032   0.857   8.708 -0.2498  1.0232  1.0119
  108OSM   C17F11150   4.908   0.883   8.518 -0.2685  0.0703 -0.6847
  108OSM   H17F11151   4.802   0.873   8.487 -0.2039 -1.9956 -0.4143
  108OSM   H17G11152   4.966   0.812   8.455 -2.4806 -3.2734  0.7412
  108OSM   C18F11153   4.978   1.022   8.488 -0.3490 -0.3276  0.3017
  108OSM   H18F11154   5.076   1.029   8.539 -0.3719  1.2999  0.1822
  108OSM   H18G11155   4.914   1.102   8.531  0.3661 -0.0522  0.8710
  108OSM   H18H11156   4.989   1.040   8.378 -0.3563 -0.6166  0.2539
  109OSM      N11157   2.892   4.814  10.669 -0.0198 -0.0621 -0.2257
  109OSM    C1511158   2.862   4.674  10.728  0.1913  0.0285  0.4509
  109OSM   H15A11159   2.758   4.649  10.719  0.1999 -0.3696  1.3274
  109OSM   H15B11160   2.880   4.678  10.835  0.2009  2.6846  0.4281
  109OSM   H15C11161   2.933   4.608  10.681  3.1384  2.8602  0.5092
  109OSM    C1411162   2.836   4.831  10.531 -0.0045  0.1262 -0.1016
  109OSM   H14A11163   2.730   4.810  10.538 -0.1308  0.8548  0.2677
  109OSM   H14B11164   2.864   4.758  10.456  3.4284 -0.5084  1.6108
  109OSM   H14C11165   2.848   4.929  10.488 -1.3254  0.4553  0.2186
  109OSM    C1311166   2.826   4.916  10.762 -0.8827  0.2844 -0.1747
  109OSM   H13A11167   2.858   5.012  10.726  0.9331  1.3252  3.6830
  109OSM   H13B11168   2.851   4.912  10.868  1.1502  2.5003 -0.4881
  109OSM   H13C11169   2.718   4.913  10.756 -1.0107  3.3843 -1.1819
  109OSM    C1211170   3.041   4.834  10.675  0.3749 -0.3845  0.4161
  109OSM   H12A11171   3.100   4.753  10.636  1.4330  1.4247 -2.0394
  109OSM   H12B11172   3.080   4.847  10.775 -2.5078  2.1025  1.3694
  109OSM    C1111173   3.097   4.965  10.602  0.0023  0.3833 -0.0889
  109OSM   H11A11174   3.044   4.972  10.505  0.8163 -3.7922 -1.0329
  109OSM   H11B11175   3.206   4.955  10.582  0.1753  1.1259  0.4782
  109OSM      P11176   3.191   5.147  10.764  0.5725 -0.1851  0.2480
  109OSM    O1311177   3.134   5.266  10.835  0.0112  0.1138  0.4436
  109OSM    O1411178   3.272   5.055  10.849  0.2481  0.6424  0.0694
  109OSM    O1111179   3.278   5.210  10.649  0.6872 -0.2241 -0.1153
  109OSM    O1211180   3.074   5.074  10.690  0.2677  0.7634  0.4532
  109OSM    C1S11181   3.206   5.282  10.551 -0.4657 -0.3450  0.7235
  109OSM    H1S11182   3.132   5.356  10.591 -0.6653 -1.6956  3.0562
  109OSM    H1T11183   3.142   5.213  10.491 -0.0705 -1.8730  1.9948
  109OSM     NF11184   3.228   5.478  10.414  0.2330 -0.3349  0.2656
  109OSM    HNF11185   3.175   5.474  10.330 -0.3285  0.3322  0.5767
  109OSM    C2S11186   3.298   5.361  10.450 -0.2262  0.4165  0.5743
  109OSM    H2S11187   3.395   5.384  10.499  0.5589  0.0528 -0.7689
  109OSM    C3S11188   3.321   5.264  10.332 -0.2322  0.9930  0.3538
  109OSM    H3S11189   3.222   5.234  10.290 -0.0211  1.1307 -0.2408
  109OSM     O311190   3.383   5.144  10.384  0.3076 -0.5758 -0.2429
  109OSM    HO311191   3.360   5.157  10.477  1.3931  2.2836 -0.2620
  109OSM    C4S11192   3.395   5.329  10.218  0.1282 -0.3174  0.4271
  109OSM    H4S11193   3.329   5.345  10.132 -1.5127 -0.5522  1.5796
  109OSM    C5S11194   3.527   5.364  10.207 -0.1079  0.1676  0.1189
  109OSM    H5S11195   3.592   5.344  10.294 -0.1304 -1.5516 -0.2425
  109OSM    C6S11196   3.581   5.442  10.085  0.6339 -0.5027  0.2975
  109OSM    H6S11197   3.692   5.439  10.086  0.6234 -2.0998  1.1291
  109OSM    H6T11198   3.552   5.548  10.096  0.3116 -0.7440  2.1618
  109OSM    C7S11199   3.529   5.390   9.950 -0.7078 -0.7120 -0.4450
  109OSM    H7S11200   3.421   5.417   9.950 -0.3265  1.0323 -2.2428
  109OSM    H7T11201   3.543   5.281   9.937 -1.5000 -1.0445  1.1995
  109OSM    C8S11202   3.594   5.453   9.826  0.2379 -0.4691  0.5826
  109OSM    H8S11203   3.693   5.405   9.811  0.4534  0.1276  0.0465
  109OSM    H8T11204   3.602   5.564   9.823 -0.4582 -0.4370 -0.3538
  109OSM    C9S11205   3.522   5.404   9.696  0.3093  0.0184  0.4155
  109OSM    H9S11206   3.417   5.437   9.708  0.1992  0.1376 -0.7874
  109OSM    H9T11207   3.525   5.293   9.696  0.1143 -0.0728 -2.8275
  109OSM   C10S11208   3.563   5.478   9.571 -0.0563 -0.8650  0.0517
  109OSM   H10S11209   3.664   5.444   9.541  0.4577  0.6875 -0.0754
  109OSM   H10T11210   3.585   5.586   9.584  0.7430 -1.0626  0.3876
  109OSM   C11S11211   3.459   5.460   9.462 -0.3762  0.5803  0.8334
  109OSM   H11S11212   3.370   5.522   9.485  0.3627  2.1221 -0.3283
  109OSM   H11T11213   3.420   5.357   9.445  0.7501  0.4377 -1.1707
  109OSM   C12S11214   3.518   5.512   9.330  0.4232  0.1929  0.0654
  109OSM   H12S11215   3.618   5.464   9.326  0.0092 -0.9548  2.1647
  109OSM   H12T11216   3.536   5.621   9.335  0.0720  0.2985 -0.7006
  109OSM   C13S11217   3.428   5.487   9.213 -0.0049 -1.1228  0.2595
  109OSM   H13S11218   3.343   5.558   9.223  0.0754 -1.1775  1.5582
  109OSM   H13T11219   3.389   5.382   9.210 -0.3093 -1.0178  0.4248
  109OSM   C14S11220   3.498   5.502   9.080 -0.7785  0.1865 -0.2724
  109OSM   H14S11221   3.598   5.455   9.092 -0.4477  0.9602  0.0586
  109OSM   H14T11222   3.527   5.608   9.063  2.9310 -1.1325 -3.7952
  109OSM   C15S11223   3.422   5.439   8.965 -0.6172 -0.1171 -0.2714
  109OSM   H15S11224   3.322   5.488   8.971 -2.2970 -3.2778 -0.3826
  109OSM   H15T11225   3.421   5.329   8.981  0.3124 -0.3411 -1.6264
  109OSM   C16S11226   3.485   5.455   8.829 -0.9787 -0.6730  0.2548
  109OSM   H16S11227   3.588   5.415   8.821 -0.0027  1.8991 -0.9504
  109OSM   H16T11228   3.505   5.562   8.807  1.6192 -1.3098 -0.8820
  109OSM   C17S11229   3.396   5.395   8.717 -0.0020  0.2545 -0.3361
  109OSM   H17S11230   3.379   5.289   8.747 -0.5552  0.1506 -0.9791
  109OSM   H17T11231   3.457   5.385   8.625  0.0998 -1.6930 -0.1043
  109OSM   C18S11232   3.273   5.468   8.688 -0.3778  0.6960 -0.5735
  109OSM   H18S11233   3.307   5.573   8.704  0.0436  0.7110 -1.5280
  109OSM   H18T11234   3.183   5.449   8.750 -0.6247  0.3618 -1.0312
  109OSM   H18U11235   3.240   5.458   8.583  1.1186 -0.8497 -0.9333
  109OSM    C1F11236   3.222   5.586  10.490  0.1296  0.7555 -0.1065
  109OSM     OF11237   3.282   5.586  10.597  0.5594 -0.6066 -0.0193
  109OSM    C2F11238   3.156   5.711  10.430 -0.3403 -0.1653  0.3290
  109OSM    H2F11239   3.130   5.777  10.515  0.9208 -1.6009  1.8864
  109OSM    H2G11240   3.070   5.694  10.361  1.0315  2.0349 -2.1158
  109OSM    C3F11241   3.252   5.790  10.343  0.4808 -0.0591  0.4965
  109OSM    H3F11242   3.353   5.800  10.388 -0.1560  0.0271  1.9731
  109OSM    H3G11243   3.225   5.897  10.332 -0.5520 -0.4404 -1.0474
  109OSM    C4F11244   3.259   5.734  10.200 -0.0269  0.8284 -0.0624
  109OSM    H4F11245   3.166   5.738  10.139  0.1286  0.5043 -0.3241
  109OSM    H4G11246   3.291   5.628  10.208 -0.4496  0.6195 -0.9437
  109OSM    C5F11247   3.370   5.799  10.114 -0.4438  0.4731  0.0981
  109OSM    H5F11248   3.469   5.806  10.163  0.2159  2.7385 -1.4142
  109OSM    H5G11249   3.331   5.903  10.105 -1.2011  0.1810 -0.0375
  109OSM    C6F11250   3.381   5.746   9.966 -0.0793 -1.1310  0.0633
  109OSM    H6F11251   3.280   5.716   9.931 -1.1955  2.6628 -0.4065
  109OSM    H6G11252   3.450   5.659   9.966  1.6423  0.1566  1.5688
  109OSM    C7F11253   3.424   5.856   9.865 -1.0307 -0.8768  0.5177
  109OSM    H7F11254   3.530   5.879   9.888 -1.6543  1.9067  0.9511
  109OSM    H7G11255   3.356   5.944   9.872  0.5090  0.4239 -0.2711
  109OSM    C8F11256   3.438   5.810   9.719  0.4865 -0.1586 -0.8410
  109OSM    H8F11257   3.504   5.721   9.725  0.7481  0.1230  1.8988
  109OSM    H8G11258   3.493   5.889   9.662 -1.0533  1.2044 -0.4997
  109OSM    C9F11259   3.309   5.766   9.663 -0.5321  0.5880  0.0450
  109OSM    H9F11260   3.278   5.671   9.708  0.2678 -0.3293 -1.3035
  109OSM   C10F11261   3.239   5.832   9.568 -0.4735 -0.1138 -0.5352
  109OSM   H10F11262   3.141   5.793   9.537  0.2089 -1.5716 -0.9159
  109OSM   C11F11263   3.279   5.964   9.511 -0.3900  0.3705  0.2119
  109OSM   H11F11264   3.376   6.000   9.552 -0.4243 -0.0936  0.7126
  109OSM   H11G11265   3.205   6.043   9.537 -4.6178 -3.2316  0.2866
  109OSM   C12F11266   3.297   5.966   9.356  0.3612  0.2980 -0.0535
  109OSM   H12F11267   3.376   5.891   9.335 -0.3750 -0.3363 -0.5945
  109OSM   H12G11268   3.333   6.063   9.315 -0.2470  0.8371  0.6730
  109OSM   C13F11269   3.165   5.925   9.283  0.2325  1.2468  0.4217
  109OSM   H13F11270   3.091   5.996   9.326 -0.9421 -0.0235  0.5578
  109OSM   H13G11271   3.141   5.825   9.325  1.9664  1.2231  1.4726
  109OSM   C14F11272   3.171   5.945   9.135 -0.6785 -0.1109 -0.2248
  109OSM   H14F11273   3.189   6.053   9.122 -0.8667  0.0416  0.6994
  109OSM   H14G11274   3.069   5.910   9.110 -0.3774 -0.5724 -0.8443
  109OSM   C15F11275   3.276   5.846   9.066  0.3020 -0.2225  0.6687
  109OSM   H15F11276   3.270   5.749   9.120  2.2213 -1.0949 -0.5697
  109OSM   H15G11277   3.378   5.888   9.069  2.0136 -3.8538 -0.8331
  109OSM   C16F11278   3.243   5.834   8.916 -0.1325 -0.9382  0.3046
  109OSM   H16F11279   3.141   5.796   8.893  0.2756 -0.7074 -2.1288
  109OSM   H16G11280   3.311   5.760   8.869  3.4594  1.9165  0.5416
  109OSM   C17F11281   3.251   5.966   8.844 -0.5719 -0.7097  0.5286
  109OSM   H17F11282   3.347   6.015   8.872 -0.2900 -0.6448 -0.5329
  109OSM   H17G11283   3.174   6.039   8.877 -0.6628  1.8379 -4.3850
  109OSM   C18F11284   3.245   5.945   8.692 -0.9718  0.4850  0.0779
  109OSM   H18F11285   3.151   5.892   8.667 -0.6533  0.4299 -1.0352
  109OSM   H18G11286   3.336   5.888   8.662 -1.0927  0.7394 -0.8092
  109OSM   H18H11287   3.239   6.040   8.635 -0.4493  1.2828  1.3120
  110OSM      N11288   5.046   3.922  11.051  0.7244 -0.0640 -0.7216
  110OSM    C1511289   5.044   3.975  10.913 -0.4799 -0.1407 -0.1015
  110OSM   H15A11290   4.942   3.959  10.881 -0.5351 -1.4169  0.6269
  110OSM   H15B11291   5.108   3.932  10.838 -1.2497  1.7035 -1.8850
  110OSM   H15C11292   5.070   4.080  10.915  2.3520 -0.7419 -1.2074
  110OSM    C1411293   5.008   3.773  11.057 -0.6044 -0.3379 -0.3945
  110OSM   H14A11294   4.915   3.742  11.012 -0.7358  0.2119 -0.5126
  110OSM   H14B11295   5.017   3.730  11.155 -0.0969 -0.8435 -0.6611
  110OSM   H14C11296   5.082   3.727  10.993  1.7013  1.0055  1.1611
  110OSM    C1311297   5.170   3.952  11.123  0.3792 -0.3367  0.0992
  110OSM   H13A11298   5.186   3.895  11.213  0.6070 -1.0424 -0.3795
  110OSM   H13B11299   5.202   4.055  11.129  1.5742 -0.5544 -1.7076
  110OSM   H13C11300   5.245   3.914  11.055 -0.1838 -0.7651 -0.2823
  110OSM    C1211301   4.933   3.988  11.133 -0.2408  0.5240  1.3513
  110OSM   H12A11302   4.934   3.940  11.230  1.7354 -0.5761  0.8567
  110OSM   H12B11303   4.839   3.952  11.096  0.8113  0.4249 -1.4577
  110OSM    C1111304   4.930   4.139  11.145 -0.4190 -0.1735  0.5042
  110OSM   H11A11305   5.031   4.167  11.181 -0.7656  2.1069 -0.1130
  110OSM   H11B11306   4.861   4.174  11.226  1.4532  2.1147  1.2231
  110OSM      P11307   4.881   4.351  10.999 -0.2283 -0.2592  0.1184
  110OSM    O1311308   4.750   4.393  11.051 -0.2398 -0.3896  0.5068
  110OSM    O1411309   5.002   4.415  11.046 -0.1101  0.1161 -0.3672
  110OSM    O1111310   4.886   4.385  10.843  0.4663 -0.3508  0.4549
  110OSM    O1211311   4.896   4.190  11.013 -0.0962 -0.1074 -0.3828
  110OSM    C1S11312   4.994   4.342  10.766  0.0671 -0.5166  0.2048
  110OSM    H1S11313   5.012   4.234  10.787 -0.6934 -0.0860  3.6739
  110OSM    H1T11314   5.085   4.404  10.780 -0.3902  0.6027 -1.4543
  110OSM     NF11315   5.069   4.274  10.541 -0.0869  0.7885  0.3229
  110OSM    HNF11316   5.131   4.314  10.474 -2.6208 -2.3062 -4.4430
  110OSM    C2S11317   4.980   4.363  10.616  0.4959  0.2620  0.0269
  110OSM    H2S11318   4.881   4.318  10.591  0.9782 -0.4355 -0.6812
  110OSM    C3S11319   4.965   4.508  10.571  0.1881 -0.1052  0.0611
  110OSM    H3S11320   5.067   4.552  10.575 -0.0045  0.2312  1.8226
  110OSM     O311321   4.880   4.596  10.654 -0.3476  0.1781  1.0010
  110OSM    HO311322   4.871   4.548  10.736 -0.4751 -2.0689 -0.2415
  110OSM    C4S11323   4.905   4.522  10.434 -0.1157 -0.0360  0.3054
  110OSM    H4S11324   4.832   4.444  10.406 -0.6649  0.5127  0.1782
  110OSM    C5S11325   4.937   4.610  10.337 -0.2627 -0.0138  0.5835
  110OSM    H5S11326   4.999   4.696  10.366 -1.3172  0.6712  0.8327
  110OSM    C6S11327   4.889   4.616  10.192 -0.2039  0.6668 -0.3964
  110OSM    H6S11328   4.969   4.573  10.129  0.0217 -0.3333  0.5349
  110OSM    H6T11329   4.871   4.718  10.152  1.1461  0.7928 -0.7234
  110OSM    C7S11330   4.772   4.528  10.157 -0.0568 -0.1886 -0.0404
  110OSM    H7S11331   4.682   4.560  10.213 -0.8487  0.4689 -1.6205
  110OSM    H7T11332   4.803   4.428  10.192  0.4010 -0.0818 -0.1261
  110OSM    C8S11333   4.740   4.553  10.004  0.1751  0.1540 -0.4573
  110OSM    H8S11334   4.832   4.523   9.950  0.3548  1.1746 -0.7528
  110OSM    H8T11335   4.751   4.662   9.987  0.2567  0.9389  3.6498
  110OSM    C9S11336   4.618   4.481   9.954 -0.2405  0.0286 -0.4157
  110OSM    H9S11337   4.525   4.491  10.014 -0.2568  3.7197 -0.8333
  110OSM    H9T11338   4.639   4.372   9.964  0.8709 -0.0181 -2.6351
  110OSM   C10S11339   4.579   4.503   9.809  0.0117 -0.7994  0.7885
  110OSM   H10S11340   4.498   4.434   9.778  0.4381 -1.1118  0.3560
  110OSM   H10T11341   4.666   4.490   9.741  0.1407 -0.2092  0.8284
  110OSM   C11S11342   4.505   4.639   9.787  0.1372 -0.0077 -0.3641
  110OSM   H11S11343   4.572   4.728   9.790 -0.0631  0.2509 -2.0468
  110OSM   H11T11344   4.430   4.646   9.869 -1.5998 -0.4022 -1.8471
  110OSM   C12S11345   4.438   4.644   9.646  0.1764  0.8389 -0.4300
  110OSM   H12S11346   4.384   4.740   9.658  0.6140  0.8243  2.3581
  110OSM   H12T11347   4.357   4.571   9.626 -0.6218  1.7886 -0.7125
  110OSM   C13S11348   4.547   4.654   9.533  0.1505  0.3794 -0.2605
  110OSM   H13S11349   4.573   4.553   9.496  2.0528  1.3991 -1.8993
  110OSM   H13T11350   4.631   4.709   9.579  0.2801 -1.2064  1.5417
  110OSM   C14S11351   4.497   4.739   9.418 -0.2611 -0.6889 -0.5029
  110OSM   H14S11352   4.497   4.848   9.439  2.9317 -0.5279 -0.7357
  110OSM   H14T11353   4.390   4.715   9.402 -0.2607 -1.6397  0.6939
  110OSM   C15S11354   4.579   4.710   9.292  0.0670 -0.0068 -0.1315
  110OSM   H15S11355   4.567   4.607   9.252  0.6747 -0.2421  0.2825
  110OSM   H15T11356   4.687   4.732   9.306 -0.0555 -0.1063  1.0294
  110OSM   C16S11357   4.521   4.799   9.172  0.1013  0.1464 -0.0804
  110OSM   H16S11358   4.533   4.907   9.199 -1.9382  0.2974  0.3749
  110OSM   H16T11359   4.413   4.774   9.161 -0.1676  2.0428 -2.7932
  110OSM   C17S11360   4.589   4.775   9.033 -0.4168 -0.2176  0.3381
  110OSM   H17S11361   4.535   4.840   8.960 -0.3944  3.2901  3.1398
  110OSM   H17T11362   4.582   4.668   9.004 -2.4997 -0.8234  2.7334
  110OSM   C18S11363   4.743   4.818   9.038  0.0936 -0.4769  0.0005
  110OSM   H18S11364   4.797   4.739   9.095 -1.7551 -0.8935  1.2622
  110OSM   H18T11365   4.759   4.913   9.093  0.2406  0.0661 -0.9569
  110OSM   H18U11366   4.783   4.821   8.934 -0.1399  1.4666 -0.0514
  110OSM    C1F11367   5.068   4.138  10.558 -0.0904  0.2664  0.2528
  110OSM     OF11368   4.967   4.071  10.585  0.1819 -0.1758  0.3192
  110OSM    C2F11369   5.203   4.073  10.540  0.4774 -0.4659  0.0864
  110OSM    H2F11370   5.209   3.988  10.611 -0.4516  0.2401  1.0450
  110OSM    H2G11371   5.284   4.146  10.559  2.1362 -2.0764 -0.5316
  110OSM    C3F11372   5.197   4.021  10.394 -0.3454  0.6917  0.2759
  110OSM    H3F11373   5.180   4.099  10.317  0.0891  0.6310  0.1161
  110OSM    H3G11374   5.116   3.947  10.378  1.8781 -2.0687  0.9428
  110OSM    C4F11375   5.326   3.944  10.355  0.2191 -0.1165 -0.1984
  110OSM    H4F11376   5.346   3.857  10.421  0.9042 -0.7185 -1.1810
  110OSM    H4G11377   5.418   4.006  10.364  1.6905 -1.6676 -3.3354
  110OSM    C5F11378   5.310   3.877  10.216  0.2007 -0.4736 -0.0124
  110OSM    H5F11379   5.283   3.948  10.135  0.2901 -1.2362 -0.7152
  110OSM    H5G11380   5.235   3.797  10.231  0.5988 -1.1967 -1.7391
  110OSM    C6F11381   5.438   3.806  10.172 -0.4048  0.9745 -0.1077
  110OSM    H6F11382   5.472   3.737  10.252 -0.6069  1.4213  0.3715
  110OSM    H6G11383   5.514   3.887  10.175 -3.0986  3.6960 -0.6391
  110OSM    C7F11384   5.431   3.742  10.030  0.1066 -0.1775  1.2699
  110OSM    H7F11385   5.399   3.823   9.962  1.2987  0.1846  1.1205
  110OSM    H7G11386   5.359   3.657  10.032  1.1944 -1.1225  1.1828
  110OSM    C8F11387   5.555   3.687   9.970  0.0372 -0.1796  0.1538
  110OSM    H8F11388   5.520   3.627   9.883 -0.8777 -0.1246  0.4721
  110OSM    H8G11389   5.594   3.617  10.047  0.7861  1.1488  1.0182
  110OSM    C9F11390   5.662   3.789   9.937 -0.2631  0.1378 -0.3816
  110OSM    H9F11391   5.689   3.843  10.029  1.9807 -0.3560 -0.6794
  110OSM   C10F11392   5.736   3.809   9.823  0.4824 -0.3418 -0.1814
  110OSM   H10F11393   5.825   3.873   9.829  1.0123 -0.6846 -2.9999
  110OSM   C11F11394   5.716   3.738   9.694 -0.5435 -0.0428  0.1953
  110OSM   H11F11395   5.660   3.643   9.706  2.5358 -1.7321  3.1942
  110OSM   H11G11396   5.814   3.706   9.652 -1.0885  0.2869 -1.4111
  110OSM   C12F11397   5.654   3.828   9.594  0.5732 -0.0947  0.2935
  110OSM   H12F11398   5.640   3.775   9.498  0.9316  0.1269  0.1165
  110OSM   H12G11399   5.707   3.920   9.562 -1.0516  0.9967  0.6363
  110OSM   C13F11400   5.508   3.871   9.619  0.2696 -0.3644 -0.7956
  110OSM   H13F11401   5.501   3.921   9.719 -0.4085 -2.2877  0.1704
  110OSM   H13G11402   5.443   3.783   9.635  0.9924 -0.6983  0.4958
  110OSM   C14F11403   5.445   3.958   9.508  0.5161 -1.4162 -0.4081
  110OSM   H14F11404   5.476   3.917   9.410  0.2712  1.1222 -1.6254
  110OSM   H14G11405   5.497   4.057   9.516 -1.0115 -0.6347  0.1801
  110OSM   C15F11406   5.287   3.967   9.518 -0.1742 -0.5406  0.0427
  110OSM   H15F11407   5.256   4.015   9.613 -3.5194 -3.1193  0.4397
  110OSM   H15G11408   5.238   3.867   9.518 -2.7561  0.6105  1.2835
  110OSM   C16F11409   5.228   4.048   9.399  0.0303 -0.4262  0.5773
  110OSM   H16F11410   5.288   4.036   9.307 -0.5554 -1.5747  0.3325
  110OSM   H16G11411   5.223   4.152   9.439 -0.2068 -0.5975  1.0067
  110OSM   C17F11412   5.090   4.009   9.363  0.4690 -0.1003 -1.4784
  110OSM   H17F11413   5.030   3.998   9.456  1.0412  0.9077 -0.9750
  110OSM   H17G11414   5.086   3.905   9.325  0.4519 -0.2512 -1.0710
  110OSM   C18F11415   5.030   4.099   9.256 -0.2798  0.0433  0.1812
  110OSM   H18F11416   4.940   4.051   9.214 -0.0333 -0.8180  0.6057
  110OSM   H18G11417   5.103   4.128   9.177  1.1625  1.5511  1.9474
  110OSM   H18H11418   4.996   4.198   9.292  0.7021  0.0709  1.1086
  111OSM      N11419   4.875   1.573  10.710  0.2158 -0.1731 -0.3055
  111OSM    C1511420   4.838   1.438  10.672 -0.4554  0.4355  0.2138
  111OSM   H15A11421   4.745   1.421  10.621 -0.5232 -1.1670  0.8346
  111OSM   H15B11422   4.834   1.377  10.761 -1.0310 -0.7031 -0.5675
  111OSM   H15C11423   4.924   1.397  10.621  0.1925  0.9550  0.8679
  111OSM    C1411424   4.978   1.569  10.812  0.4451  0.3643 -0.2738
  111OSM   H14A11425   5.024   1.665  10.829  0.9046 -0.2415  2.3271
  111OSM   H14B11426   5.057   1.502  10.780  0.6472  0.3593  0.2347
  111OSM   H14C11427   4.941   1.535  10.908  2.2837  1.6725  0.9478
  111OSM    C1311428   4.906   1.649  10.588 -0.5870  0.1105  0.1678
  111OSM   H13A11429   4.986   1.601  10.535 -1.7274 -1.4391 -0.2063
  111OSM   H13B11430   4.946   1.744  10.620 -1.0880  0.7488 -1.0318
  111OSM   H13C11431   4.822   1.675  10.526 -0.1299  0.7092 -0.2187
  111OSM    C1211432   4.749   1.635  10.761  0.8272  0.1826 -0.6640
  111OSM   H12A11433   4.759   1.735  10.802 -0.0906  0.1232 -0.2633
  111OSM   H12B11434   4.711   1.575  10.843  0.4179 -0.0167 -0.9991
  111OSM    C1111435   4.621   1.654  10.670 -0.8648  0.0655  0.0973
  111OSM   H11A11436   4.527   1.678  10.724 -1.3150  0.0418 -0.6710
  111OSM   H11B11437   4.606   1.554  10.623  3.2286 -0.6820  0.0308
  111OSM      P11438   4.608   1.889  10.575 -0.5525 -0.2043 -0.1728
  111OSM    O1311439   4.468   1.906  10.548 -0.2965 -0.2281  0.2740
  111OSM    O1411440   4.653   1.927  10.712 -0.0869  0.0934 -0.8471
  111OSM    O1111441   4.696   1.960  10.464 -0.1416 -0.0202  0.2221
  111OSM    O1211442   4.646   1.743  10.562  0.1607  0.6789 -0.0435
  111OSM    C1S11443   4.670   2.102  10.437 -0.9324  0.4459 -0.2483
  111OSM    H1S11444   4.745   2.162  10.493 -1.0642 -0.2579  0.7060
  111OSM    H1T11445   4.570   2.132  10.474 -0.5005  1.7771 -0.0862
  111OSM     NF11446   4.647   2.273  10.265 -0.9497  0.2392 -0.5672
  111OSM    HNF11447   4.552   2.300  10.250 -1.7364 -1.9100  0.1980
  111OSM    C2S11448   4.676   2.133  10.285  0.3081 -0.3278 -0.2365
  111OSM    H2S11449   4.775   2.116  10.239  0.8653  2.5039 -0.2507
  111OSM    C3S11450   4.572   2.051  10.213 -0.1768  0.4221  0.1471
  111OSM    H3S11451   4.479   2.064  10.273 -0.5673 -1.3888 -0.0276
  111OSM     O311452   4.588   1.912  10.206  0.3952  0.0732 -0.3242
  111OSM    HO311453   4.663   1.899  10.265  0.0869 -0.6477 -0.0784
  111OSM    C4S11454   4.548   2.092  10.067 -0.6292 -0.4612  0.2793
  111OSM    H4S11455   4.638   2.079  10.004 -1.0189 -0.9351 -0.1855
  111OSM    C5S11456   4.435   2.121  10.002 -0.1434 -0.8969  0.0271
  111OSM    H5S11457   4.336   2.116  10.051 -0.1678 -0.3305  0.0393
  111OSM    C6S11458   4.425   2.160   9.854 -0.2324 -0.4249  0.4276
  111OSM    H6S11459   4.372   2.255   9.833 -2.6330 -2.0285 -1.2572
  111OSM    H6T11460   4.361   2.087   9.799 -0.3838 -1.0612  1.4218
  111OSM    C7S11461   4.554   2.192   9.775 -0.0011 -0.0136 -0.1692
  111OSM    H7S11462   4.620   2.103   9.779  0.2457 -0.0904 -3.3314
  111OSM    H7T11463   4.610   2.275   9.822 -1.4420  0.3388  0.9939
  111OSM    C8S11464   4.525   2.219   9.621 -0.3102 -0.1856  0.0177
  111OSM    H8S11465   4.452   2.303   9.620  2.8668  2.7891  0.5025
  111OSM    H8T11466   4.469   2.128   9.591 -0.2557 -0.3469  0.4045
  111OSM    C9S11467   4.659   2.244   9.541 -0.7786  0.7692 -0.5752
  111OSM    H9S11468   4.736   2.170   9.571 -1.2048  0.6255  0.1746
  111OSM    H9T11469   4.695   2.343   9.577  0.0179 -0.5329  2.5256
  111OSM   C10S11470   4.653   2.257   9.385  0.2852  0.4137 -0.0851
  111OSM   H10S11471   4.630   2.157   9.341  1.1738  0.7584 -1.4089
  111OSM   H10T11472   4.754   2.293   9.354 -0.5112  0.9420 -2.1935
  111OSM   C11S11473   4.550   2.362   9.336 -0.5620  0.3978  0.2893
  111OSM   H11S11474   4.593   2.464   9.335  0.0829  0.1390 -1.3450
  111OSM   H11T11475   4.467   2.366   9.411 -1.7109  0.5797 -0.9460
  111OSM   C12S11476   4.474   2.330   9.204 -0.8444  0.1714  1.3669
  111OSM   H12S11477   4.403   2.245   9.203 -3.1482  1.9954  0.9063
  111OSM   H12T11478   4.549   2.320   9.122 -1.3539  2.7442  0.4925
  111OSM   C13S11479   4.410   2.454   9.150  0.8245 -0.3805  0.3052
  111OSM   H13S11480   4.471   2.546   9.159  0.9457 -0.4954  0.7064
  111OSM   H13T11481   4.324   2.466   9.219 -0.4430 -1.4476 -1.0275
  111OSM   C14S11482   4.347   2.433   9.018 -0.0419  0.2798 -0.3523
  111OSM   H14S11483   4.282   2.522   9.003  1.0121  1.3223  0.9472
  111OSM   H14T11484   4.272   2.351   9.017 -0.6894  0.8708 -1.6841
  111OSM   C15S11485   4.442   2.440   8.897  0.4400 -0.0082  0.2062
  111OSM   H15S11486   4.498   2.345   8.882 -1.4498 -0.9494 -1.3941
  111OSM   H15T11487   4.511   2.525   8.882 -0.9964  0.6992 -3.3449
  111OSM   C16S11488   4.359   2.448   8.762  0.6281  0.2391  0.0698
  111OSM   H16S11489   4.291   2.362   8.741  1.5805 -0.6916  0.6858
  111OSM   H16T11490   4.442   2.437   8.689 -0.9751 -0.7571 -1.6987
  111OSM   C17S11491   4.285   2.583   8.740 -0.0894  0.3020  1.0944
  111OSM   H17S11492   4.355   2.669   8.734 -2.5458  2.3318 -0.9625
  111OSM   H17T11493   4.213   2.587   8.825  0.2121 -0.1180  1.3705
  111OSM   C18S11494   4.204   2.588   8.611  0.1741  0.1623 -0.5753
  111OSM   H18S11495   4.152   2.684   8.593  0.0904  0.6711  1.9845
  111OSM   H18T11496   4.123   2.513   8.617 -0.7136  1.2267  2.2869
  111OSM   H18U11497   4.273   2.578   8.524  0.6827  2.3218 -0.4900
  111OSM    C1F11498   4.736   2.372  10.292 -0.5258  0.2077  0.6226
  111OSM     OF11499   4.857   2.343  10.296 -0.3796  0.3458 -0.0951
  111OSM    C2F11500   4.685   2.513  10.288 -0.8380 -0.0477 -0.4495
  111OSM    H2F11501   4.690   2.543  10.394 -2.2351  0.3142 -0.4585
  111OSM    H2G11502   4.578   2.520  10.257 -0.9550  0.5823  0.0589
  111OSM    C3F11503   4.773   2.600  10.197 -0.3930 -0.4258  0.2672
  111OSM    H3F11504   4.879   2.585  10.228 -0.2273  2.1060  1.1578
  111OSM    H3G11505   4.741   2.702  10.225 -0.9354 -0.4252 -0.3538
  111OSM    C4F11506   4.765   2.571  10.045 -0.0985 -0.2820 -0.1847
  111OSM    H4F11507   4.820   2.478  10.021  3.1025  0.6576  2.7322
  111OSM    H4G11508   4.813   2.662  10.003 -2.7223  1.9225  1.2382
  111OSM    C5F11509   4.626   2.574   9.980 -0.0759  0.2809  0.3254
  111OSM    H5F11510   4.567   2.652  10.033  0.8441  2.2334 -1.3572
  111OSM    H5G11511   4.576   2.476   9.993 -1.6888  1.1738  1.2671
  111OSM    C6F11512   4.626   2.624   9.834  0.2800 -0.1035  0.0039
  111OSM    H6F11513   4.621   2.734   9.830  3.2695  0.1067  0.2032
  111OSM    H6G11514   4.539   2.589   9.775  1.3607 -0.5091 -1.3844
  111OSM    C7F11515   4.748   2.573   9.748  0.1151  0.6846 -0.0518
  111OSM    H7F11516   4.732   2.463   9.744 -3.7980  1.0311  1.1694
  111OSM    H7G11517   4.835   2.604   9.808 -0.4513 -0.5575  1.4986
  111OSM    C8F11518   4.766   2.617   9.605  0.4430 -0.2684 -0.1139
  111OSM    H8F11519   4.676   2.584   9.548  0.3533 -0.5933  0.2184
  111OSM    H8G11520   4.853   2.564   9.561 -0.8788 -1.3981 -1.4777
  111OSM    C9F11521   4.780   2.769   9.577  0.2899 -0.7700  0.2943
  111OSM    H9F11522   4.700   2.825   9.628 -0.4247 -1.7152  0.2275
  111OSM   C10F11523   4.861   2.831   9.489  0.5363  0.3251 -0.1926
  111OSM   H10F11524   4.863   2.940   9.477  0.2411  0.4733  0.9978
  111OSM   C11F11525   4.963   2.767   9.397  0.6342 -0.1809 -0.2970
  111OSM   H11F11526   4.975   2.656   9.401 -0.4439 -0.3488 -1.2127
  111OSM   H11G11527   5.067   2.803   9.414 -0.3929  3.5217 -1.0322
  111OSM   C12F11528   4.944   2.812   9.248  0.1596 -1.1517  0.1449
  111OSM   H12F11529   4.948   2.923   9.245 -1.7696 -1.0142  0.7542
  111OSM   H12G11530   4.840   2.779   9.225  0.8472 -4.7543  1.5648
  111OSM   C13F11531   5.042   2.745   9.149 -0.1189  0.2614 -0.4877
  111OSM   H13F11532   5.014   2.638   9.141  0.3161  0.1153 -0.1354
  111OSM   H13G11533   5.146   2.754   9.189 -1.1182  1.9888  1.9498
  111OSM   C14F11534   5.033   2.811   9.011  0.2519  0.7910 -0.0366
  111OSM   H14F11535   5.078   2.913   9.017  2.1348 -0.0213  0.5540
  111OSM   H14G11536   4.929   2.834   8.983 -0.5524 -0.1023  2.0215
  111OSM   C15F11537   5.120   2.742   8.899 -0.0815  0.3808  0.2513
  111OSM   H15F11538   5.118   2.631   8.906  0.5488  0.4298  1.3215
  111OSM   H15G11539   5.226   2.771   8.914  0.6915 -1.3104 -1.4519
  111OSM   C16F11540   5.083   2.801   8.757  0.4136 -0.2184 -0.6653
  111OSM   H16F11541   4.984   2.753   8.741  1.1583 -3.1166  2.4810
  111OSM   H16G11542   5.142   2.764   8.671  0.4075  0.1600 -0.8373
  111OSM   C17F11543   5.081   2.954   8.744 -0.7482 -0.1981 -0.7227
  111OSM   H17F11544   5.168   2.997   8.798  0.1526 -0.6469 -1.8034
  111OSM   H17G11545   4.984   2.990   8.787 -2.1345 -2.2521 -1.9414
  111OSM   C18F11546   5.097   2.989   8.600 -0.2555 -0.1721  0.0789
  111OSM   H18F11547   5.199   2.966   8.561 -1.3831 -1.0738 -2.6103
  111OSM   H18G11548   5.068   3.090   8.565 -2.0083 -1.5978 -3.0934
  111OSM   H18H11549   5.034   2.924   8.535 -1.3244 -0.2272  1.1505
  112OSM      N11550   4.709   0.595  10.978  0.7573 -0.8189 -0.2381
  112OSM    C1511551   4.607   0.701  10.963 -0.4712  0.1275  0.8411
  112OSM   H15A11552   4.638   0.769  10.885 -1.1303 -1.6728 -1.0635
  112OSM   H15B11553   4.590   0.761  11.052 -0.8526  2.3769 -0.6749
  112OSM   H15C11554   4.514   0.655  10.933 -0.0316 -2.0968  2.5890
  112OSM    C1411555   4.839   0.649  11.032 -0.1539 -0.0458 -0.2360
  112OSM   H14A11556   4.892   0.704  10.956 -0.8632 -0.4704 -1.0628
  112OSM   H14B11557   4.911   0.574  11.060 -0.6592 -0.1227  0.9301
  112OSM   H14C11558   4.833   0.706  11.124  0.6299 -0.0581 -0.1704
  112OSM    C1311559   4.650   0.486  11.065  0.7108 -0.3508 -0.5389
  112OSM   H13A11560   4.719   0.402  11.062  1.6071  0.3993 -1.6924
  112OSM   H13B11561   4.550   0.459  11.035  0.1361 -2.0410  2.5025
  112OSM   H13C11562   4.646   0.523  11.166  1.4783  0.5000 -0.8067
  112OSM    C1211563   4.742   0.531  10.842  0.0059 -0.5104 -0.8773
  112OSM   H12A11564   4.804   0.446  10.865  1.5148  0.8752  0.4485
  112OSM   H12B11565   4.809   0.588  10.780  0.3800  0.6102  0.4901
  112OSM    C1111566   4.624   0.487  10.753  0.8541 -0.1769  0.3479
  112OSM   H11A11567   4.676   0.475  10.655  2.0605 -1.7792  1.1291
  112OSM   H11B11568   4.549   0.564  10.727  0.0980 -0.6831  0.9978
  112OSM      P11569   4.594   0.216  10.740 -0.4360  0.0849  0.3021
  112OSM    O1311570   4.737   0.186  10.759  0.4193  0.1111 -0.2529
  112OSM    O1411571   4.495   0.121  10.799 -0.8949  0.0774  0.3925
  112OSM    O1111572   4.566   0.228  10.578  0.1691  0.1100 -0.6046
  112OSM    O1211573   4.558   0.367  10.793  0.4354  0.3917 -0.3341
  112OSM    C1S11574   4.453   0.305  10.537  0.0791 -0.0323  0.1321
  112OSM    H1S11575   4.497   0.406  10.521  1.3502 -0.7301 -0.9624
  112OSM    H1T11576   4.362   0.300  10.601  0.9805 -3.0746  1.3324
  112OSM     NF11577   4.299   0.359  10.353 -0.3640  0.6734 -0.6329
  112OSM    HNF11578   4.205   0.326  10.348 -0.0410 -0.2236 -0.9533
  112OSM    C2S11579   4.408   0.272  10.400  0.3658 -0.0634 -0.2812
  112OSM    H2S11580   4.496   0.276  10.332  0.1649  1.0279 -0.4887
  112OSM    C3S11581   4.368   0.120  10.400  0.0544  0.2619  0.6544
  112OSM    H3S11582   4.279   0.103  10.464  0.3539 -0.2721  0.9343
  112OSM     O311583   4.454   0.029  10.465 -0.1273  0.8800  0.1842
  112OSM    HO311584   4.516   0.089  10.507 -1.2715  2.3661 -0.1458
  112OSM    C4S11585   4.349   0.079  10.260  0.9435  0.2966  0.2300
  112OSM    H4S11586   4.244   0.051  10.242  0.5838  0.5773  1.7149
  112OSM    C5S11587   4.432   0.075  10.159 -0.7922  0.7463  0.3174
  112OSM    H5S11588   4.537   0.108  10.170  0.1544 -1.5380 -1.0665
  112OSM    C6S11589   4.396   0.021  10.021 -0.1301  0.3658 -0.0592
  112OSM    H6S11590   4.465  -0.066  10.014  0.8758  0.4184  5.1973
  112OSM    H6T11591   4.417   0.089   9.936  1.3435  1.6355  1.2482
  112OSM    C7S11592   4.250  -0.042   9.995 -0.0828 -0.1154  0.2647
  112OSM    H7S11593   4.169   0.022  10.035  0.4388  0.7786 -0.0836
  112OSM    H7T11594   4.233  -0.130  10.061 -1.9875  0.4642  0.6201
  112OSM    C8S11595   4.224  -0.070   9.847  0.4211 -0.6251 -0.4219
  112OSM    H8S11596   4.127  -0.125   9.839 -1.7742  2.8876 -0.2778
  112OSM    H8T11597   4.295  -0.137   9.795  0.4013  0.9799 -2.6983
  112OSM    C9S11598   4.187   0.060   9.768 -0.6708 -0.0299 -0.2031
  112OSM    H9S11599   4.279   0.122   9.769  0.3374 -1.4597  0.6694
  112OSM    H9T11600   4.102   0.112   9.816  0.7226  1.6706  0.5529
  112OSM   C10S11601   4.153   0.037   9.618  0.4595 -0.2997  0.3645
  112OSM   H10S11602   4.163   0.128   9.556 -1.7786 -0.4449 -0.2993
  112OSM   H10T11603   4.046   0.006   9.618  1.1284 -2.8547  1.1461
  112OSM   C11S11604   4.243  -0.075   9.546  0.2118  0.1689 -0.5409
  112OSM   H11S11605   4.229  -0.180   9.578 -0.7231  0.2580 -0.6367
  112OSM   H11T11606   4.344  -0.030   9.553  0.1413  0.6638 -2.2631
  112OSM   C12S11607   4.208  -0.070   9.395  0.7256  0.3012 -0.1023
  112OSM   H12S11608   4.178   0.032   9.363  1.1469  0.2442 -0.7055
  112OSM   H12T11609   4.123  -0.136   9.370  0.6588 -0.8303  2.7221
  112OSM   C13S11610   4.322  -0.121   9.302 -0.5035 -0.0263  0.1843
  112OSM   H13S11611   4.313  -0.232   9.302 -1.2588 -0.0024 -1.5418
  112OSM   H13T11612   4.416  -0.091   9.354 -0.7667 -2.0130  1.9669
  112OSM   C14S11613   4.322  -0.060   9.162 -0.8873 -0.4731 -0.4558
  112OSM   H14S11614   4.342   0.049   9.158 -2.3164 -0.2121 -1.2395
  112OSM   H14T11615   4.226  -0.092   9.115  0.5445 -1.9315 -2.5921
  112OSM   C15S11616   4.417  -0.125   9.055  1.0115  0.0275 -0.6693
  112OSM   H15S11617   4.408  -0.235   9.071  0.5042  0.4993  3.1222
  112OSM   H15T11618   4.526  -0.104   9.060  1.4090 -1.6273 -1.4528
  112OSM   C16S11619   4.375  -0.101   8.913 -0.1793  0.0634  0.0878
  112OSM   H16S11620   4.405  -0.003   8.871  1.1757 -0.3786 -0.0339
  112OSM   H16T11621   4.265  -0.105   8.895  0.0310  0.1164 -1.3395
  112OSM   C17S11622   4.427  -0.212   8.821 -0.3230 -0.3859  1.1745
  112OSM   H17S11623   4.410  -0.311   8.871  1.2438 -0.9260  0.6908
  112OSM   H17T11624   4.536  -0.200   8.808 -0.4526 -1.6306 -1.7008
  112OSM   C18S11625   4.349  -0.218   8.690  0.8106  0.4585  0.1607
  112OSM   H18S11626   4.374  -0.314   8.640 -0.9298 -0.5341  1.1111
  112OSM   H18T11627   4.365  -0.123   8.634 -2.3132  0.3055 -1.1988
  112OSM   H18U11628   4.240  -0.224   8.709  0.6724 -0.6361 -0.8509
  112OSM    C1F11629   4.323   0.486  10.319 -0.0880  1.0652  0.7324
  112OSM     OF11630   4.433   0.533  10.339 -0.2098 -0.1884 -0.1980
  112OSM    C2F11631   4.205   0.558  10.265  0.2633  0.5009  1.4495
  112OSM    H2F11632   4.140   0.590  10.349 -0.2153  0.8890  0.9377
  112OSM    H2G11633   4.166   0.495  10.183  1.5095  1.9460 -0.3318
  112OSM    C3F11634   4.238   0.685  10.181  0.1443 -1.0113 -0.2937
  112OSM    H3F11635   4.286   0.651  10.087  0.0910 -2.7134  0.2574
  112OSM    H3G11636   4.307   0.758  10.228 -1.6637  0.8191 -0.3620
  112OSM    C4F11637   4.115   0.769  10.140 -0.3982 -0.1956  0.6446
  112OSM    H4F11638   4.093   0.836  10.226  0.8535 -1.2562  1.8555
  112OSM    H4G11639   4.037   0.693  10.118  2.4623 -3.2074 -0.0610
  112OSM    C5F11640   4.127   0.848  10.008  0.0510  0.0583  0.4993
  112OSM    H5F11641   4.213   0.918  10.012  0.9995 -1.0349  0.0475
  112OSM    H5G11642   4.031   0.902   9.999 -0.3554 -0.5749  0.9313
  112OSM    C6F11643   4.138   0.764   9.877  0.8643 -0.3470 -0.0096
  112OSM    H6F11644   4.050   0.696   9.877 -2.1545  3.2394  0.8525
  112OSM    H6G11645   4.234   0.708   9.878 -0.0788 -2.0353 -0.0729
  112OSM    C7F11646   4.125   0.840   9.743  0.4329 -0.0797 -0.2417
  112OSM    H7F11647   4.154   0.772   9.661  0.7030 -1.3102  0.8405
  112OSM    H7G11648   4.198   0.923   9.751  0.0857  0.2003  0.0845
  112OSM    C8F11649   3.982   0.902   9.722 -0.2516 -0.1381  0.6068
  112OSM    H8F11650   3.992   0.970   9.634 -2.2392 -1.1600 -0.4800
  112OSM    H8G11651   3.960   0.968   9.809 -1.8506  1.5546 -0.9726
  112OSM    C9F11652   3.864   0.807   9.706 -0.1553  0.3296 -0.7019
  112OSM    H9F11653   3.816   0.790   9.804  2.5665 -0.3361  0.5995
  112OSM   C10F11654   3.825   0.747   9.592  0.3269 -0.1525 -0.8712
  112OSM   H10F11655   3.725   0.701   9.601 -1.2125  3.0734 -0.2256
  112OSM   C11F11656   3.885   0.766   9.458  0.8240  0.0498  0.2662
  112OSM   H11F11657   3.938   0.671   9.436  5.3801  2.1273  1.2100
  112OSM   H11G11658   3.968   0.839   9.466  0.9549 -0.2333  1.5823
  112OSM   C12F11659   3.783   0.800   9.344 -0.3416  0.5215 -0.0777
  112OSM   H12F11660   3.732   0.895   9.368  3.2432  2.3425  1.1814
  112OSM   H12G11661   3.713   0.715   9.358  1.0218 -0.3751  1.7444
  112OSM   C13F11662   3.850   0.792   9.209 -0.2783 -0.6189 -0.3173
  112OSM   H13F11663   3.906   0.697   9.201 -1.6668 -1.6249  1.3702
  112OSM   H13G11664   3.926   0.871   9.189 -0.4222 -0.2989  0.3916
  112OSM   C14F11665   3.744   0.807   9.095  0.5281  0.3762  0.0052
  112OSM   H14F11666   3.653   0.750   9.122  0.4754  0.8651  0.8773
  112OSM   H14G11667   3.784   0.770   8.998 -0.2198  2.0755 -1.0009
  112OSM   C15F11668   3.711   0.953   9.068  0.5378 -0.1557 -0.3877
  112OSM   H15F11669   3.678   0.987   9.169  0.7507 -1.5489  0.1758
  112OSM   H15G11670   3.628   0.961   8.995 -0.9972  1.4799  1.4309
  112OSM   C16F11671   3.830   1.030   9.015 -0.0898  0.4491  0.5722
  112OSM   H16F11672   3.881   0.976   8.932  2.1356  1.2334  1.3608
  112OSM   H16G11673   3.912   1.052   9.087 -1.5969  4.3749  1.3452
  112OSM   C17F11674   3.785   1.171   8.971  0.0008 -0.8097 -0.6616
  112OSM   H17F11675   3.758   1.231   9.060  1.7774 -0.8860 -0.0237
  112OSM   H17G11676   3.697   1.170   8.903  2.5966 -3.4991 -4.3907
  112OSM   C18F11677   3.891   1.246   8.887  0.0800  0.2915  0.5517
  112OSM   H18F11678   3.982   1.250   8.950 -0.6238 -2.1592  1.8557
  112OSM   H18G11679   3.844   1.339   8.848 -1.3030 -0.4301  0.4346
  112OSM   H18H11680   3.916   1.185   8.797  2.0168 -1.3857  2.1284
  113OSM      N11681   6.146   1.668  11.281  0.4910  0.3960  0.9389
  113OSM    C1511682   6.282   1.635  11.335 -0.7392  0.0527 -0.2271
  113OSM   H15A11683   6.288   1.651  11.442 -0.2392 -1.6162  0.0184
  113OSM   H15B11684   6.357   1.695  11.285 -3.0721  1.2627 -2.5365
  113OSM   H15C11685   6.307   1.530  11.335  0.4083  0.3024  0.7894
  113OSM    C1411686   6.051   1.595  11.373 -0.2374  0.2429 -0.1228
  113OSM   H14A11687   5.949   1.630  11.364  0.1582  2.0460  1.6047
  113OSM   H14B11688   6.079   1.606  11.476 -0.2500  0.3948 -0.1341
  113OSM   H14C11689   6.036   1.491  11.350 -4.0983  0.5998  0.1711
  113OSM    C1311690   6.117   1.817  11.286 -0.0068 -0.4667 -0.2948
  113OSM   H13A11691   6.016   1.844  11.257  0.0430  1.6227  1.2628
  113OSM   H13B11692   6.180   1.878  11.223  1.3672  0.4455  1.8552
  113OSM   H13C11693   6.124   1.862  11.384  3.5786  2.2262 -1.5666
  113OSM    C1211694   6.119   1.633  11.135  0.3170  0.4588  0.4321
  113OSM   H12A11695   6.129   1.527  11.117 -1.0163  0.1961  1.0785
  113OSM   H12B11696   6.196   1.666  11.067  0.5624 -3.0481 -1.1860
  113OSM    C1111697   5.975   1.664  11.076  0.6868 -0.4001  0.5296
  113OSM   H11A11698   5.896   1.645  11.151 -0.3776  0.1361 -0.4158
  113OSM   H11B11699   5.941   1.607  10.987 -1.2981  1.3634  0.0537
  113OSM      P11700   6.036   1.873  10.936  0.4825  0.2134  0.5044
  113OSM    O1311701   5.936   1.962  10.872 -0.0394 -0.2352  0.0599
  113OSM    O1411702   6.165   1.934  10.984 -0.2430  0.1008  0.3294
  113OSM    O1111703   6.079   1.751  10.845  0.6516  0.3325 -0.1111
  113OSM    O1211704   5.954   1.805  11.052 -0.1909  0.2174 -0.1827
  113OSM    C1S11705   6.042   1.714  10.711  0.4083  0.3379  0.0478
  113OSM    H1S11706   5.938   1.746  10.684 -0.9664 -2.8586  1.0953
  113OSM    H1T11707   6.038   1.603  10.707 -2.0663  0.3334  0.8082
  113OSM     NF11708   6.114   1.724  10.476  0.1808 -0.1660  0.3166
  113OSM    HNF11709   6.159   1.650  10.426 -0.5615  0.5859 -1.5609
  113OSM    C2S11710   6.153   1.752  10.615  0.0563  0.3416  0.3127
  113OSM    H2S11711   6.164   1.863  10.619  0.1847  0.4307 -1.5158
  113OSM    C3S11712   6.295   1.696  10.661 -0.1738 -0.0656 -0.2172
  113OSM    H3S11713   6.296   1.585  10.662 -1.7973 -0.1105  0.4119
  113OSM     O311714   6.325   1.733  10.792 -0.0353  0.6699  0.0949
  113OSM    HO311715   6.240   1.756  10.830 -0.0204  0.4253  0.2796
  113OSM    C4S11716   6.407   1.752  10.569 -0.1905  0.1331  0.1796
  113OSM    H4S11717   6.411   1.861  10.559  0.2769  0.4267  2.9134
  113OSM    C5S11718   6.499   1.678  10.506  0.1649 -0.4024  0.3927
  113OSM    H5S11719   6.490   1.568  10.511  0.2270 -0.4127  0.2845
  113OSM    C6S11720   6.611   1.726  10.415  0.2538 -0.4521  0.2510
  113OSM    H6S11721   6.707   1.672  10.425  2.1396  2.7568  0.5970
  113OSM    H6T11722   6.646   1.825  10.451 -3.1910  0.7451  0.7213
  113OSM    C7S11723   6.593   1.761  10.263  0.4964  1.2577  1.3035
  113OSM    H7S11724   6.690   1.772  10.211 -0.5402  0.3558 -0.9454
  113OSM    H7T11725   6.539   1.858  10.260 -1.6195  0.1235 -0.6102
  113OSM    C8S11726   6.498   1.676  10.175 -0.3592 -0.0102 -0.1429
  113OSM    H8S11727   6.392   1.680  10.209 -0.7795  0.3910 -1.4419
  113OSM    H8T11728   6.521   1.567  10.184 -0.2268  0.0903  0.7930
  113OSM    C9S11729   6.500   1.729  10.033  0.4070 -0.0428  0.2549
  113OSM    H9S11730   6.597   1.716   9.981  0.4942 -0.7615  0.5802
  113OSM    H9T11731   6.485   1.839  10.042 -0.1545 -0.1762  1.0533
  113OSM   C10S11732   6.402   1.654   9.945 -0.0899  0.5986  0.0307
  113OSM   H10S11733   6.302   1.702   9.953 -0.1337  0.4727  0.2684
  113OSM   H10T11734   6.386   1.554   9.990  2.1348 -0.7097 -1.9057
  113OSM   C11S11735   6.436   1.657   9.801  0.3066  0.4520 -0.3107
  113OSM   H11S11736   6.544   1.646   9.779  0.4268 -1.5372  0.9899
  113OSM   H11T11737   6.399   1.757   9.770  1.7328  1.7825  1.9456
  113OSM   C12S11738   6.371   1.545   9.730 -0.2443  0.4949 -0.4531
  113OSM   H12S11739   6.262   1.565   9.744 -0.1513  0.1609  0.9356
  113OSM   H12T11740   6.375   1.456   9.797  0.1772  1.0208  0.2282
  113OSM   C13S11741   6.419   1.524   9.590 -0.4038  0.1266  0.2466
  113OSM   H13S11742   6.337   1.476   9.533 -1.6899  2.1499  0.2733
  113OSM   H13T11743   6.510   1.461   9.592 -0.5314 -0.0755 -0.1779
  113OSM   C14S11744   6.460   1.649   9.512 -0.0650  0.2519 -0.3816
  113OSM   H14S11745   6.554   1.688   9.558  0.1854 -0.9042  0.1353
  113OSM   H14T11746   6.379   1.724   9.519 -0.4729 -0.1084 -1.0715
  113OSM   C15S11747   6.476   1.619   9.365 -0.8697 -0.1184  0.0513
  113OSM   H15S11748   6.375   1.604   9.321 -0.7170  0.1460 -0.4010
  113OSM   H15T11749   6.531   1.525   9.344  0.6579  0.7463  0.0024
  113OSM   C16S11750   6.557   1.726   9.294 -0.4387  0.4484 -0.0553
  113OSM   H16S11751   6.659   1.682   9.285 -1.4068 -1.7820 -0.9819
  113OSM   H16T11752   6.550   1.820   9.352 -0.9404  1.7272 -2.0984
  113OSM   C17S11753   6.514   1.736   9.148 -0.3909  0.2099 -0.2969
  113OSM   H17S11754   6.405   1.752   9.136 -0.2572  0.4708 -1.2118
  113OSM   H17T11755   6.544   1.643   9.096 -2.2916 -0.6629  0.0670
  113OSM   C18S11756   6.582   1.849   9.082 -0.2403  0.0958 -0.1086
  113OSM   H18S11757   6.561   1.843   8.973  0.8797  0.3484 -0.3447
  113OSM   H18T11758   6.692   1.863   9.084 -0.2603  0.2770 -0.2432
  113OSM   H18U11759   6.537   1.947   9.111  1.7931  0.9670  0.2333
  113OSM    C1F11760   6.012   1.791  10.422  0.1998  0.2708  0.7441
  113OSM     OF11761   5.969   1.892  10.474  0.2625  0.2109  0.6704
  113OSM    C2F11762   5.945   1.733  10.300 -0.1934 -0.6289  0.0909
  113OSM    H2F11763   5.840   1.765  10.312  0.2202  0.0755  2.2446
  113OSM    H2G11764   5.959   1.622  10.299  2.0991 -0.4520  2.3854
  113OSM    C3F11765   6.003   1.796  10.174  0.5118 -1.1486 -0.1890
  113OSM    H3F11766   6.113   1.785  10.170  0.7176  0.3920  0.3009
  113OSM    H3G11767   5.983   1.905  10.187 -1.0820 -1.4057 -0.2700
  113OSM    C4F11768   5.942   1.749  10.039  0.2307 -0.2908 -0.1848
  113OSM    H4F11769   5.986   1.809   9.957 -1.0209  0.1649 -0.5475
  113OSM    H4G11770   5.834   1.777  10.038  0.7390  1.7744 -0.5648
  113OSM    C5F11771   5.965   1.598  10.016 -0.3681 -0.8442 -0.0516
  113OSM    H5F11772   5.936   1.546  10.110 -2.3226 -0.6257 -0.4941
  113OSM    H5G11773   6.076   1.594  10.015 -0.3191 -0.4542  1.2748
  113OSM    C6F11774   5.905   1.526   9.889  0.4939  0.2881 -0.1580
  113OSM    H6F11775   5.920   1.416   9.893 -0.7679  0.1333  0.7283
  113OSM    H6G11776   5.953   1.574   9.801 -1.7715  4.0738  0.4348
  113OSM    C7F11777   5.752   1.541   9.883  0.2167  0.7561 -0.5535
  113OSM    H7F11778   5.722   1.647   9.868 -0.9431  0.7255  1.3139
  113OSM    H7G11779   5.714   1.525   9.986  0.3495 -0.3062 -0.6573
  113OSM    C8F11780   5.689   1.443   9.786 -0.4758  0.2830 -0.0272
  113OSM    H8F11781   5.580   1.444   9.806 -0.2894  0.4738  1.0299
  113OSM    H8G11782   5.729   1.342   9.812  2.1319  1.1754 -0.2857
  113OSM    C9F11783   5.732   1.483   9.645  0.0402 -0.3096  0.0957
  113OSM    H9F11784   5.810   1.561   9.638 -1.4523  1.1834 -0.5403
  113OSM   C10F11785   5.678   1.447   9.526  0.1178 -0.0639 -0.3700
  113OSM   H10F11786   5.704   1.489   9.428 -1.0058 -1.0975 -1.1334
  113OSM   C11F11787   5.564   1.350   9.520 -0.0049  0.1842  0.0059
  113OSM   H11F11788   5.548   1.285   9.609 -0.3189 -0.5439 -0.5751
  113OSM   H11G11789   5.597   1.266   9.455  2.1077  0.1844  0.9758
  113OSM   C12F11790   5.431   1.408   9.478  0.1264 -0.0109  0.2790
  113OSM   H12F11791   5.385   1.465   9.562  0.7165 -0.1720  0.7174
  113OSM   H12G11792   5.352   1.333   9.458 -0.0184  0.7395 -2.4864
  113OSM   C13F11793   5.440   1.494   9.351 -0.4921  0.2447  1.0694
  113OSM   H13F11794   5.507   1.446   9.277 -1.9499 -0.3256  0.0753
  113OSM   H13G11795   5.492   1.590   9.373 -2.7454  1.1793  2.7586
  113OSM   C14F11796   5.309   1.547   9.291 -0.7141  0.3110 -0.2181
  113OSM   H14F11797   5.278   1.629   9.359  3.1337  1.1642  0.7670
  113OSM   H14G11798   5.234   1.466   9.278 -2.8537  1.9149  1.3988
  113OSM   C15F11799   5.339   1.620   9.160  0.3689 -0.2230 -0.8486
  113OSM   H15F11800   5.347   1.543   9.080 -1.9771 -2.3244  0.7932
  113OSM   H15G11801   5.423   1.691   9.175  0.5494 -0.5542 -0.2544
  113OSM   C16F11802   5.224   1.710   9.121  0.2296 -0.4844 -1.1572
  113OSM   H16F11803   5.244   1.809   9.166  2.2743 -1.8509  1.2450
  113OSM   H16G11804   5.129   1.667   9.160 -0.1358  0.8738 -0.4881
  113OSM   C17F11805   5.230   1.744   8.972 -0.3520  0.6132 -0.3847
  113OSM   H17F11806   5.187   1.655   8.922  2.0069 -0.4751 -0.5957
  113OSM   H17G11807   5.332   1.759   8.930 -0.2546 -1.4629 -0.9966
  113OSM   C18F11808   5.154   1.872   8.944 -0.2327 -0.0560  0.0827
  113OSM   H18F11809   5.045   1.857   8.963  0.1739 -0.5165  2.3708
  113OSM   H18G11810   5.165   1.898   8.837 -0.0573 -1.1973 -0.1885
  113OSM   H18H11811   5.192   1.954   9.009 -0.1094  0.3536 -0.4974
  114OSM      N11812   5.731   6.213  11.133  0.3838  0.4514  0.1294
  114OSM    C1511813   5.623   6.157  11.214 -0.4770  0.2582  0.2755
  114OSM   H15A11814   5.529   6.210  11.211  0.1670  1.5055  1.0653
  114OSM   H15B11815   5.657   6.135  11.315  2.2485 -2.9088 -1.1424
  114OSM   H15C11816   5.611   6.062  11.165  1.4596  0.7368 -1.2675
  114OSM    C1411817   5.701   6.210  10.986  0.3976  0.6097 -0.7353
  114OSM   H14A11818   5.670   6.112  10.954  0.1618  0.9173 -1.4769
  114OSM   H14B11819   5.788   6.241  10.930  3.0805 -0.9644  2.2361
  114OSM   H14C11820   5.620   6.276  10.958  0.3605 -0.6614 -4.1250
  114OSM    C1311821   5.750   6.357  11.169 -1.0261 -0.1734 -0.4812
  114OSM   H13A11822   5.742   6.367  11.276 -3.7544 -2.3614 -0.3440
  114OSM   H13B11823   5.666   6.417  11.137 -3.6323 -1.6673  2.9413
  114OSM   H13C11824   5.840   6.395  11.123 -0.4587  1.4954  1.8888
  114OSM    C1211825   5.865   6.143  11.172  0.5636 -0.5541  0.1754
  114OSM   H12A11826   5.937   6.188  11.105  2.0396 -0.9591  1.4207
  114OSM   H12B11827   5.870   6.041  11.137  1.6014 -0.8129  1.0114
  114OSM    C1111828   5.920   6.140  11.312  0.0988 -0.0331 -0.6033
  114OSM   H11A11829   5.936   6.246  11.341  2.4056 -0.0893 -1.4687
  114OSM   H11B11830   6.027   6.110  11.319  0.0140  0.0280  1.9426
  114OSM      P11831   5.868   5.909  11.423 -0.0032 -0.1212 -0.1909
  114OSM    O1311832   5.949   5.886  11.543  0.4155 -0.3109  0.5977
  114OSM    O1411833   5.746   5.831  11.406 -0.5584  0.7434 -0.5330
  114OSM    O1111834   5.957   5.874  11.299  0.2042  0.2543  0.1212
  114OSM    O1211835   5.841   6.066  11.407  0.3263 -0.1298  0.1562
  114OSM    C1S11836   5.953   5.752  11.222  0.0128  0.0350 -0.5833
  114OSM    H1S11837   5.849   5.713  11.226 -0.3487  1.1115  2.3052
  114OSM    H1T11838   6.020   5.681  11.274  0.0140  1.3735  1.3422
  114OSM     NF11839   6.040   5.621  11.016  0.1535 -0.0781 -0.0763
  114OSM    HNF11840   6.117   5.561  11.037 -0.5828 -1.5171 -1.2065
  114OSM    C2S11841   6.025   5.754  11.080 -0.1222 -0.3281  0.0220
  114OSM    H2S11842   5.964   5.815  11.009  0.8072  0.8150  0.1587
  114OSM    C3S11843   6.159   5.821  11.103 -0.0309 -0.6652  0.0558
  114OSM    H3S11844   6.215   5.757  11.174 -0.5615 -0.5623  0.5780
  114OSM     O311845   6.152   5.951  11.165 -0.7438  0.0118 -0.0505
  114OSM    HO311846   6.082   5.947  11.230 -0.0909  2.8942  1.0304
  114OSM    C4S11847   6.232   5.831  10.975 -0.1093  0.1066 -0.4668
  114OSM    H4S11848   6.159   5.829  10.892 -1.0532 -1.7787  0.3509
  114OSM    C5S11849   6.365   5.832  10.957  0.1110 -0.0331  0.0949
  114OSM    H5S11850   6.430   5.819  11.044 -0.2547 -1.1315  0.2229
  114OSM    C6S11851   6.433   5.845  10.824  0.4146 -0.3483 -0.1483
  114OSM    H6S11852   6.529   5.900  10.837  0.5781 -0.5746 -0.3971
  114OSM    H6T11853   6.366   5.908  10.762 -1.5623 -1.3428  0.8648
  114OSM    C7S11854   6.472   5.718  10.742 -0.0791  0.0676 -0.4810
  114OSM    H7S11855   6.379   5.659  10.730  0.4268 -1.3740  2.1083
  114OSM    H7T11856   6.539   5.652  10.802 -1.5770  0.6921  2.0227
  114OSM    C8S11857   6.547   5.752  10.609  0.9348  0.0273 -0.0054
  114OSM    H8S11858   6.636   5.815  10.632  0.8039  0.8822 -1.6669
  114OSM    H8T11859   6.483   5.810  10.538  0.7943 -0.9482 -0.7023
  114OSM    C9S11860   6.618   5.630  10.546 -0.4546 -0.3489 -0.4334
  114OSM    H9S11861   6.548   5.544  10.537  0.2037 -0.8330 -1.0406
  114OSM    H9T11862   6.699   5.585  10.607 -0.0037  1.3336  0.2748
  114OSM   C10S11863   6.677   5.654  10.405 -0.2921 -0.1936  0.7275
  114OSM   H10S11864   6.730   5.562  10.375 -1.9441 -0.8204 -0.4056
  114OSM   H10T11865   6.746   5.741  10.401 -0.1659 -0.3295 -2.0226
  114OSM   C11S11866   6.566   5.673  10.298 -0.8435  0.0963 -0.4838
  114OSM   H11S11867   6.552   5.783  10.291 -1.9052 -0.1125 -2.0277
  114OSM   H11T11868   6.477   5.613  10.325  0.7834 -3.2274 -1.9566
  114OSM   C12S11869   6.609   5.630  10.158  0.2515  0.5622 -0.5167
  114OSM   H12S11870   6.623   5.520  10.152 -2.4917  0.2160 -3.0737
  114OSM   H12T11871   6.710   5.675  10.146  1.5004 -1.5980  1.1121
  114OSM   C13S11872   6.511   5.670  10.050 -0.0593 -0.6717  0.0956
  114OSM   H13S11873   6.468   5.765  10.088 -0.5758 -0.5372 -0.7950
  114OSM   H13T11874   6.422   5.603  10.054 -1.9017  1.6476  3.7650
  114OSM   C14S11875   6.579   5.687   9.917 -0.5068 -0.4164 -0.2127
  114OSM   H14S11876   6.614   5.592   9.871  0.2339  0.5660 -1.7346
  114OSM   H14T11877   6.673   5.744   9.928 -1.2282  0.6926  0.4324
  114OSM   C15S11878   6.502   5.751   9.798 -0.5042 -0.5399 -0.4362
  114OSM   H15S11879   6.449   5.843   9.831 -0.9903 -1.4793  1.5595
  114OSM   H15T11880   6.422   5.677   9.776 -1.7700 -0.0966  2.2534
  114OSM   C16S11881   6.593   5.785   9.675 -0.2950 -0.8229  0.8853
  114OSM   H16S11882   6.656   5.696   9.652  0.9476  0.6543 -1.9656
  114OSM   H16T11883   6.672   5.860   9.696  0.7434 -1.8284  0.6776
  114OSM   C17S11884   6.515   5.816   9.541  0.0700  0.0670 -0.3308
  114OSM   H17S11885   6.414   5.768   9.536 -0.7237  1.2025  2.7054
  114OSM   H17T11886   6.575   5.770   9.460 -0.7447 -0.2426 -0.7749
  114OSM   C18S11887   6.495   5.962   9.503 -0.7705 -0.3334 -0.4148
  114OSM   H18S11888   6.432   6.008   9.581  0.5008  0.7206  0.0282
  114OSM   H18T11889   6.441   5.977   9.407 -2.1154 -0.5704  0.2942
  114OSM   H18U11890   6.594   6.013   9.498 -0.9530 -0.0559 -2.4486
  114OSM    C1F11891   5.925   5.567  10.967 -0.2878  0.1382  0.6027
  114OSM     OF11892   5.822   5.630  10.956  0.6357  0.4534  0.1059
  114OSM    C2F11893   5.927   5.422  10.927 -0.0327 -0.3168 -0.2977
  114OSM    H2F11894   5.900   5.373  11.023  2.7659  2.4190  2.0830
  114OSM    H2G11895   6.033   5.388  10.926  0.2850  0.4059  2.0288
  114OSM    C3F11896   5.843   5.379  10.803  0.0412 -0.4471  0.7094
  114OSM    H3F11897   5.734   5.387  10.827  0.1799 -0.7649  1.4743
  114OSM    H3G11898   5.864   5.272  10.783 -0.8428 -0.3674 -0.7192
  114OSM    C4F11899   5.870   5.454  10.678 -0.4402  0.2162 -0.3959
  114OSM    H4F11900   5.974   5.433  10.647  0.1172  1.5652  0.4650
  114OSM    H4G11901   5.857   5.563  10.700  0.6113 -0.0026  1.4757
  114OSM    C5F11902   5.786   5.412  10.559  0.3201 -0.0515 -0.4855
  114OSM    H5F11903   5.686   5.380  10.593  0.0738 -0.4987 -1.5841
  114OSM    H5G11904   5.833   5.326  10.507  1.3662 -0.1003  0.5024
  114OSM    C6F11905   5.762   5.527  10.454 -0.6327 -0.4143 -0.4815
  114OSM    H6F11906   5.864   5.560  10.426 -0.2659 -0.8087  0.3368
  114OSM    H6G11907   5.706   5.608  10.504 -1.2907 -2.5368  2.4667
  114OSM    C7F11908   5.676   5.478  10.342 -0.0462 -0.1428  0.2090
  114OSM    H7F11909   5.582   5.436  10.383  0.1609 -0.5109  0.3117
  114OSM    H7G11910   5.724   5.389  10.295 -0.4954 -0.5478  0.5109
  114OSM    C8F11911   5.648   5.593  10.241 -0.0873 -0.2934  0.2064
  114OSM    H8F11912   5.608   5.683  10.293 -1.1366 -0.4630 -0.2733
  114OSM    H8G11913   5.570   5.559  10.168  0.5010 -0.3794 -0.3924
  114OSM    C9F11914   5.774   5.640  10.168 -0.2484  0.2362 -0.4001
  114OSM    H9F11915   5.865   5.644  10.229  0.2886 -3.8980 -0.6476
  114OSM   C10F11916   5.788   5.680  10.045 -0.0514 -0.3201  0.7894
  114OSM   H10F11917   5.886   5.716  10.011  1.6991 -2.8118  2.7594
  114OSM   C11F11918   5.684   5.692   9.929 -0.6572  0.1064  0.3770
  114OSM   H11F11919   5.706   5.792   9.888  0.4783 -0.0125  0.6728
  114OSM   H11G11920   5.580   5.691   9.970 -1.1688  1.2193 -0.8053
  114OSM   C12F11921   5.700   5.592   9.814 -0.3845  0.5669 -0.5326
  114OSM   H12F11922   5.686   5.489   9.854 -3.0807  1.9672  2.5626
  114OSM   H12G11923   5.799   5.616   9.768 -0.7959 -0.6332 -2.1345
  114OSM   C13F11924   5.593   5.617   9.712  0.2216  0.2834  0.1191
  114OSM   H13F11925   5.574   5.724   9.689 -3.6436 -0.6883 -2.1543
  114OSM   H13G11926   5.495   5.583   9.753 -0.1014  1.0508  0.0071
  114OSM   C14F11927   5.631   5.545   9.585 -0.2477 -0.4072  0.4210
  114OSM   H14F11928   5.668   5.447   9.620 -1.9858 -0.2477  2.9958
  114OSM   H14G11929   5.709   5.599   9.528 -1.6790  0.4758 -0.7938
  114OSM   C15F11930   5.512   5.552   9.481  0.2798  0.4427  0.1325
  114OSM   H15F11931   5.480   5.656   9.461 -0.2542  0.7783  2.4455
  114OSM   H15G11932   5.429   5.500   9.534  0.2138  1.6880  1.3241
  114OSM   C16F11933   5.532   5.473   9.357 -0.5400  0.9610  0.0304
  114OSM   H16F11934   5.440   5.451   9.298 -0.4724 -1.8382  0.8237
  114OSM   H16G11935   5.560   5.375   9.401  0.7097  1.4968  0.4776
  114OSM   C17F11936   5.644   5.522   9.258 -0.4253  0.5868 -0.5183
  114OSM   H17F11937   5.742   5.521   9.311 -0.5592 -2.1664 -0.1486
  114OSM   H17G11938   5.605   5.621   9.226 -0.8814  0.7238  0.4095
  114OSM   C18F11939   5.657   5.427   9.147 -0.2851 -0.7525  0.3966
  114OSM   H18F11940   5.569   5.422   9.080  0.7609  1.3832 -1.2488
  114OSM   H18G11941   5.662   5.326   9.195  1.5937  0.2275  2.4618
  114OSM   H18H11942   5.743   5.447   9.080  1.7643 -2.1403  2.4344
  115OSM      N11943   0.127   1.596   6.309 -0.5144  0.2066  0.2316
  115OSM    C1511944   0.166   1.501   6.197 -0.7013 -0.0962  0.3524
  115OSM   H15A11945   0.128   1.402   6.216 -0.6748 -0.2866 -0.5761
  115OSM   H15B11946   0.270   1.493   6.167 -2.0648 -0.8964 -5.1728
  115OSM   H15C11947   0.110   1.531   6.110  0.6266  2.2829  0.2216
  115OSM    C1411948  -0.003   1.557   6.365 -0.4859 -0.0176  0.5448
  115OSM   H14A11949  -0.029   1.622   6.447 -1.2384  0.0493  0.2622
  115OSM   H14B11950  -0.007   1.454   6.396 -0.0418 -0.2677 -0.1904
  115OSM   H14C11951  -0.090   1.568   6.303 -0.9250  1.0560  1.3186
  115OSM    C1311952   0.239   1.580   6.413 -0.0438  0.1154  0.7584
  115OSM   H13A11953   0.223   1.627   6.508  0.5836  2.5409 -0.2587
  115OSM   H13B11954   0.336   1.615   6.380 -0.2039 -1.0458 -1.1261
  115OSM   H13C11955   0.250   1.475   6.435 -2.0239 -0.1222  0.7805
  115OSM    C1211956   0.121   1.740   6.257  0.0366  0.0194 -0.4032
  115OSM   H12A11957   0.205   1.758   6.191 -0.3677 -0.5283 -1.0742
  115OSM   H12B11958   0.122   1.811   6.338 -0.5729  1.0675 -1.2854
  115OSM    C1111959   0.004   1.780   6.166  1.4024  0.7847  0.5879
  115OSM   H11A11960  -0.094   1.745   6.204  0.5339  3.0080  0.5846
  115OSM   H11B11961   0.012   1.728   6.068 -1.9173  0.4955  0.3745
  115OSM      P11962  -0.120   2.014   6.213  0.0108 -0.0472 -0.5176
  115OSM    O1311963  -0.103   2.153   6.154 -0.0476  0.3429  0.3410
  115OSM    O1411964  -0.250   1.948   6.191 -0.1597 -0.1176  0.5426
  115OSM    O1111965  -0.089   2.019   6.368 -0.5813  0.2082  0.4132
  115OSM    O1211966  -0.002   1.921   6.147 -0.3451 -0.8383 -0.0818
  115OSM    C1S11967   0.019   2.103   6.399 -0.0749 -0.0521 -0.2792
  115OSM    H1S11968  -0.012   2.209   6.392 -0.4961 -0.2586 -2.0826
  115OSM    H1T11969   0.107   2.083   6.334  0.9739 -0.2631  1.1712
  115OSM     NF11970   0.185   2.153   6.572 -0.3362  0.5464  0.2643
  115OSM    HNF11971   0.273   2.107   6.581 -1.0227 -0.4864  2.5383
  115OSM    C2S11972   0.072   2.069   6.540 -0.0963 -0.5392 -0.1998
  115OSM    H2S11973  -0.006   2.109   6.609 -1.4410 -0.5647 -1.6536
  115OSM    C3S11974   0.087   1.920   6.573 -0.4434 -0.1607 -0.1349
  115OSM    H3S11975   0.157   1.879   6.497  1.2172  1.4188  0.4715
  115OSM     O311976  -0.037   1.853   6.563 -0.1682  0.1421 -0.8647
  115OSM    HO311977  -0.089   1.916   6.512  3.2430  3.4327 -0.7239
  115OSM    C4S11978   0.160   1.901   6.707  0.6135 -0.2782 -0.6996
  115OSM    H4S11979   0.263   1.939   6.702  0.1463  1.6631  2.0557
  115OSM    C5S11980   0.106   1.865   6.830  0.0045 -0.1832  1.0771
  115OSM    H5S11981  -0.001   1.839   6.834 -0.4690  1.6383  1.2666
  115OSM    C6S11982   0.187   1.850   6.956 -0.2097  0.0678  0.9774
  115OSM    H6S11983   0.283   1.905   6.942 -0.8732  1.5645  2.0016
  115OSM    H6T11984   0.202   1.746   6.991 -1.0577 -0.1162  0.8122
  115OSM    C7S11985   0.103   1.917   7.076 -0.7616 -0.0749 -0.4857
  115OSM    H7S11986   0.098   2.027   7.068  3.1912  0.2603 -0.7725
  115OSM    H7T11987   0.175   1.904   7.160 -1.0941  0.8692 -0.0443
  115OSM    C8S11988  -0.024   1.843   7.113 -0.2968 -0.3283  0.2943
  115OSM    H8S11989  -0.012   1.735   7.139 -0.7302 -0.2565  0.7929
  115OSM    H8T11990  -0.086   1.850   7.021  0.6046  0.8134 -0.2593
  115OSM    C9S11991  -0.121   1.897   7.221  0.2819  0.3013 -0.3844
  115OSM    H9S11992  -0.207   1.829   7.242  0.0564  0.2265 -1.4754
  115OSM    H9T11993  -0.172   1.991   7.189 -0.3852  0.2818  0.5858
  115OSM   C10S11994  -0.057   1.932   7.358  0.0702 -0.1505 -0.3580
  115OSM   H10S11995   0.004   2.024   7.344 -0.9776  0.8936  1.4112
  115OSM   H10T11996   0.024   1.860   7.384  0.0024  0.5327  2.0345
  115OSM   C11S11997  -0.156   1.951   7.475  0.0124  0.2032 -0.5905
  115OSM   H11S11998  -0.207   1.852   7.481 -1.5284  0.9536 -0.7820
  115OSM   H11T11999  -0.223   2.033   7.442  1.3235  1.5000 -0.1259
  115OSM   C12S12000  -0.069   1.979   7.596  0.1636  0.1414  0.4039
  115OSM   H12S12001  -0.041   2.086   7.600 -0.8028  0.4148  0.0231
  115OSM   H12T12002   0.018   1.910   7.608 -0.4187 -0.3744  1.8938
  115OSM   C13S12003  -0.152   1.977   7.720  0.1700  0.0741 -0.5468
  115OSM   H13S12004  -0.198   1.876   7.726  1.5123 -0.5160  0.4153
  115OSM   H13T12005  -0.235   2.050   7.714  0.3859  0.2460 -1.5032
  115OSM   C14S12006  -0.057   2.001   7.839 -0.3152 -0.5217  0.2520
  115OSM   H14S12007  -0.027   2.108   7.835 -2.4167  0.0877 -2.8704
  115OSM   H14T12008   0.029   1.933   7.858 -0.3027 -0.3757  0.7319
  115OSM   C15S12009  -0.133   1.997   7.972  0.8992  0.1406 -0.0693
  115OSM   H15S12010  -0.184   1.899   7.988 -2.1484  1.6227  0.0684
  115OSM   H15T12011  -0.215   2.070   7.988  0.7171 -0.2943  1.0787
  115OSM   C16S12012  -0.036   2.029   8.081 -0.4455 -0.4622  0.2970
  115OSM   H16S12013   0.026   2.111   8.039  1.7147 -2.6209 -0.9546
  115OSM   H16T12014   0.034   1.944   8.095 -0.6215 -0.3531  2.1036
  115OSM   C17S12015  -0.098   2.062   8.214  0.0328  0.6366 -0.3671
  115OSM   H17S12016  -0.163   2.152   8.203 -0.6602  0.6961  3.1479
  115OSM   H17T12017  -0.018   2.089   8.286 -0.7811 -0.4243  0.9790
  115OSM   C18S12018  -0.179   1.954   8.276  0.0841 -0.9767  0.1584
  115OSM   H18S12019  -0.113   1.877   8.321  0.3087 -0.5552  0.5628
  115OSM   H18T12020  -0.247   1.909   8.201 -0.8035  1.3778 -0.5617
  115OSM   H18U12021  -0.250   2.000   8.349  0.0558 -2.2897  1.0019
  115OSM    C1F12022   0.173   2.282   6.581 -0.0100  0.0025  0.3701
  115OSM     OF12023   0.069   2.349   6.560 -0.2010  0.9011 -0.0692
  115OSM    C2F12024   0.301   2.356   6.601 -0.7049  0.5990 -0.5081
  115OSM    H2F12025   0.315   2.438   6.528  0.5873  1.1894  0.3737
  115OSM    H2G12026   0.386   2.286   6.583 -1.8495 -1.0970  0.3586
  115OSM    C3F12027   0.318   2.407   6.752  0.3946 -0.3293 -0.0737
  115OSM    H3F12028   0.236   2.478   6.778 -1.4699 -2.2763 -0.3493
  115OSM    H3G12029   0.409   2.468   6.769  1.1380 -1.5407  0.4587
  115OSM    C4F12030   0.315   2.300   6.863  0.4476 -0.0234 -0.2756
  115OSM    H4F12031   0.399   2.230   6.845  0.5620 -0.2781  1.1330
  115OSM    H4G12032   0.215   2.251   6.862  0.6205 -0.3665 -0.9077
  115OSM    C5F12033   0.365   2.355   6.998  0.3106 -0.0756  0.6344
  115OSM    H5F12034   0.295   2.436   7.030  0.3921 -0.4472  1.8229
  115OSM    H5G12035   0.458   2.409   6.974 -2.1213  3.2066 -2.3996
  115OSM    C6F12036   0.372   2.253   7.117 -0.1038  0.3193 -0.3007
  115OSM    H6F12037   0.447   2.179   7.083 -1.1683 -0.7055 -0.5083
  115OSM    H6G12038   0.281   2.189   7.123  0.4635 -0.6179 -1.2059
  115OSM    C7F12039   0.412   2.310   7.250 -0.5917 -0.6949 -0.6760
  115OSM    H7F12040   0.329   2.372   7.291  0.7511  2.5247 -2.4320
  115OSM    H7G12041   0.501   2.375   7.241  1.6605 -3.1364  1.9669
  115OSM    C8F12042   0.459   2.195   7.345 -0.5220 -0.0752 -0.0520
  115OSM    H8F12043   0.529   2.239   7.419  0.6356  0.5100 -1.4390
  115OSM    H8G12044   0.537   2.137   7.290  0.9190 -0.4388  2.2404
  115OSM    C9F12045   0.346   2.113   7.395 -0.0155  0.4566  0.0658
  115OSM    H9F12046   0.316   2.035   7.323 -1.3458 -0.5248  1.6072
  115OSM   C10F12047   0.288   2.102   7.521 -0.4025 -0.3136  0.0956
  115OSM   H10F12048   0.203   2.036   7.544 -0.6685  0.0394  0.1440
  115OSM   C11F12049   0.329   2.191   7.639  0.1718  0.0299  0.2128
  115OSM   H11F12050   0.281   2.291   7.637  2.3701  1.1428 -0.2812
  115OSM   H11G12051   0.434   2.224   7.622 -0.0178  0.3507 -0.3750
  115OSM   C12F12052   0.312   2.138   7.785 -0.3608 -0.1848 -0.5822
  115OSM   H12F12053   0.378   2.049   7.787  1.6545  1.2574  1.0959
  115OSM   H12G12054   0.205   2.117   7.808 -0.1476  0.7065  1.4670
  115OSM   C13F12055   0.369   2.237   7.887  0.4058  0.0553 -0.1870
  115OSM   H13F12056   0.306   2.329   7.896  2.0346  1.4246 -1.9201
  115OSM   H13G12057   0.470   2.274   7.860  0.6007  1.4840  2.2235
  115OSM   C14F12058   0.388   2.170   8.026  0.6457 -0.1999  0.2532
  115OSM   H14F12059   0.477   2.107   8.002 -1.0644 -2.1678 -1.2660
  115OSM   H14G12060   0.305   2.105   8.060  1.2184 -0.7227  0.6882
  115OSM   C15F12061   0.418   2.275   8.135 -0.1011  0.4157  0.1920
  115OSM   H15F12062   0.364   2.371   8.120  2.3813  1.7497 -0.9011
  115OSM   H15G12063   0.521   2.304   8.105 -0.4994  1.8943  0.1853
  115OSM   C16F12064   0.419   2.223   8.281  0.6010 -0.7092  0.2364
  115OSM   H16F12065   0.329   2.158   8.288  0.2052 -0.2379 -0.3516
  115OSM   H16G12066   0.403   2.306   8.353  1.7968 -1.1056  0.9902
  115OSM   C17F12067   0.538   2.148   8.336 -0.6991 -0.0790 -0.0693
  115OSM   H17F12068   0.624   2.215   8.353 -0.3080 -0.6817  0.3805
  115OSM   H17G12069   0.565   2.073   8.258 -3.5973  1.3966 -2.7239
  115OSM   C18F12070   0.514   2.059   8.460 -0.6614 -0.0727 -0.0091
  115OSM   H18F12071   0.425   1.994   8.446  1.1199 -2.3602 -1.4449
  115OSM   H18G12072   0.488   2.120   8.549 -1.9234  1.4284 -1.3479
  115OSM   H18H12073   0.600   1.990   8.478  0.5920  0.6481 -2.6899
  116OSM      N12074   5.546   5.974   6.004 -0.0048  0.2994 -0.2633
  116OSM    C1512075   5.691   6.005   5.992 -0.0069 -0.1828 -0.2780
  116OSM   H15A12076   5.755   5.932   6.039  1.0174  1.7642  1.5433
  116OSM   H15B12077   5.715   6.097   6.044  1.2975 -0.9308  0.4759
  116OSM   H15C12078   5.716   6.012   5.888 -0.2087 -2.4027 -0.5198
  116OSM    C1412079   5.466   6.064   5.919 -0.4652  0.0065  0.5567
  116OSM   H14A12080   5.465   6.161   5.967  0.4461  0.1303  0.3384
  116OSM   H14B12081   5.368   6.019   5.910  1.4409 -4.2169 -1.6444
  116OSM   H14C12082   5.509   6.075   5.821 -0.2216 -3.3133  0.1647
  116OSM    C1312083   5.545   5.829   5.951  0.0233 -0.2607  0.4204
  116OSM   H13A12084   5.449   5.781   5.960 -0.4908  0.3451 -1.4091
  116OSM   H13B12085   5.621   5.775   6.005  0.8413 -0.3295 -0.7618
  116OSM   H13C12086   5.570   5.821   5.846 -0.8283  0.4123  0.1499
  116OSM    C1212087   5.494   5.983   6.142  0.3459 -0.3897  0.7195
  116OSM   H12A12088   5.391   5.952   6.136  0.1891  0.3514 -1.2706
  116OSM   H12B12089   5.493   6.088   6.170 -1.9790  0.7977 -2.9734
  116OSM    C1112090   5.558   5.887   6.246  0.2014 -0.7087  1.3805
  116OSM   H11A12091   5.552   5.934   6.347  1.3424 -0.5827  1.3954
  116OSM   H11B12092   5.662   5.892   6.209  0.0575 -2.7605  0.5972
  116OSM      P12093   5.373   5.710   6.283  0.0004 -0.2444 -0.3318
  116OSM    O1312094   5.270   5.782   6.196 -0.2587  0.0485 -0.0390
  116OSM    O1412095   5.377   5.566   6.279 -0.3165  0.5641 -0.3488
  116OSM    O1112096   5.377   5.763   6.432  0.4927  0.1851 -0.4238
  116OSM    O1212097   5.514   5.752   6.228  0.1949 -0.3013  0.3777
  116OSM    C1S12098   5.447   5.698   6.542 -0.8268 -0.6381 -0.1221
  116OSM    H1S12099   5.555   5.687   6.517 -0.7391 -1.2602  0.4920
  116OSM    H1T12100   5.422   5.590   6.551  0.0197 -0.9638 -1.4014
  116OSM     NF12101   5.548   5.716   6.768  0.2355 -0.6452  0.5090
  116OSM    HNF12102   5.522   5.652   6.840 -0.9730  0.0261  0.6937
  116OSM    C2S12103   5.433   5.764   6.684  0.1475 -0.6018  0.0305
  116OSM    H2S12104   5.435   5.875   6.677  0.5228 -0.7040 -2.2485
  116OSM    C3S12105   5.296   5.715   6.739  0.2588  0.0730  0.2571
  116OSM    H3S12106   5.287   5.605   6.727 -0.2172  0.3830 -3.1439
  116OSM     O312107   5.185   5.775   6.680  0.0363 -0.0424  0.0296
  116OSM    HO312108   5.222   5.832   6.613  0.2012 -0.8015 -0.5337
  116OSM    C4S12109   5.291   5.753   6.882  0.0889 -0.3242  0.3194
  116OSM    H4S12110   5.328   5.851   6.914  0.1179  0.2624 -1.4509
  116OSM    C5S12111   5.257   5.674   6.987  0.3555 -0.6299 -0.7359
  116OSM    H5S12112   5.235   5.567   6.986  0.5568 -0.8246  2.8094
  116OSM    C6S12113   5.273   5.725   7.129 -0.3469  0.2042  0.2064
  116OSM    H6S12114   5.241   5.649   7.204 -0.8464  0.4343  0.2299
  116OSM    H6T12115   5.208   5.813   7.146 -0.0341  0.4945 -0.0911
  116OSM    C7S12116   5.420   5.769   7.172  0.2716 -0.2081  0.5014
  116OSM    H7S12117   5.467   5.825   7.088  1.4209 -2.3125 -0.3236
  116OSM    H7T12118   5.483   5.679   7.187 -2.8136 -2.1056  3.4541
  116OSM    C8S12119   5.415   5.850   7.304 -0.1692  0.3565  0.6416
  116OSM    H8S12120   5.343   5.934   7.294 -2.8636 -1.9949 -1.2390
  116OSM    H8T12121   5.513   5.891   7.336  0.8817 -1.8588  0.4768
  116OSM    C9S12122   5.366   5.765   7.422 -0.3691 -1.0732 -0.3087
  116OSM    H9S12123   5.419   5.669   7.444  0.7569 -0.0991  1.5262
  116OSM    H9T12124   5.260   5.735   7.413 -0.4680 -1.1775  1.0176
  116OSM   C10S12125   5.368   5.848   7.558 -0.0906 -0.1354  1.0503
  116OSM   H10S12126   5.301   5.932   7.530 -0.3612 -0.9485 -0.9554
  116OSM   H10T12127   5.468   5.892   7.574 -0.1899 -0.2472  2.0247
  116OSM   C11S12128   5.296   5.795   7.687  0.5601 -0.4526  0.2016
  116OSM   H11S12129   5.369   5.736   7.746  2.4612  1.2248 -0.3468
  116OSM   H11T12130   5.217   5.724   7.656  1.1923 -0.9124 -0.4081
  116OSM   C12S12131   5.225   5.909   7.757 -1.2331 -0.3509 -0.5030
  116OSM   H12S12132   5.147   5.958   7.694  0.2623  2.2173 -0.5229
  116OSM   H12T12133   5.304   5.987   7.771 -0.9457 -0.7463  0.1487
  116OSM   C13S12134   5.166   5.865   7.897 -0.0486  0.1365  1.2309
  116OSM   H13S12135   5.234   5.803   7.960 -1.2370 -3.0502 -0.3687
  116OSM   H13T12136   5.073   5.805   7.881 -0.5251  1.1090  0.1846
  116OSM   C14S12137   5.138   5.982   7.989  0.2160  0.1103  0.3475
  116OSM   H14S12138   5.057   6.047   7.949  0.5371  0.4539  0.2498
  116OSM   H14T12139   5.227   6.048   7.992 -0.5907  1.2065  1.9305
  116OSM   C15S12140   5.124   5.932   8.131  0.3650 -0.4243 -0.3347
  116OSM   H15S12141   5.219   5.891   8.171 -0.0539 -0.6482  0.4409
  116OSM   H15T12142   5.044   5.855   8.134 -0.3089  0.2610  2.9442
  116OSM   C16S12143   5.073   6.048   8.210  0.8285 -0.1746 -0.9582
  116OSM   H16S12144   4.964   6.060   8.194  0.7237 -0.0105 -0.1430
  116OSM   H16T12145   5.126   6.146   8.212 -3.4205  2.3879  2.2922
  116OSM   C17S12146   5.075   6.007   8.361 -1.2521  0.1456  0.1371
  116OSM   H17S12147   5.185   6.013   8.377 -1.1125 -2.1084  0.2339
  116OSM   H17T12148   5.049   5.900   8.375 -0.7966  0.0480  0.2442
  116OSM   C18S12149   5.002   6.107   8.457 -0.0680 -0.0207 -0.3047
  116OSM   H18S12150   4.893   6.101   8.442 -0.4122  1.5280  1.2148
  116OSM   H18T12151   5.041   6.211   8.449  1.1345 -0.2281  1.8764
  116OSM   H18U12152   5.022   6.069   8.560 -0.5871 -1.3990 -0.6965
  116OSM    C1F12153   5.667   5.774   6.748  0.1968  0.9731 -0.1076
  116OSM     OF12154   5.698   5.864   6.669  0.0528  0.9176  0.3963
  116OSM    C2F12155   5.785   5.719   6.839 -0.1658  0.2665  0.7157
  116OSM    H2F12156   5.875   5.781   6.823  1.0274 -1.0401  2.0013
  116OSM    H2G12157   5.794   5.610   6.818  0.8121  0.2914  0.9493
  116OSM    C3F12158   5.756   5.730   6.987  0.1265  0.1254 -0.1153
  116OSM    H3F12159   5.678   5.656   7.013  0.5563  0.1795  1.4127
  116OSM    H3G12160   5.733   5.835   7.014  3.1137  0.7313  0.4894
  116OSM    C4F12161   5.885   5.689   7.064 -0.0943  0.7223  0.0234
  116OSM    H4F12162   5.940   5.614   7.003 -2.3489  0.1155 -1.3948
  116OSM    H4G12163   5.851   5.632   7.153 -0.6680  1.1695  0.0976
  116OSM    C5F12164   5.981   5.802   7.093 -0.0363  1.0000 -1.2705
  116OSM    H5F12165   5.974   5.875   7.009 -0.0159  0.2503 -1.9362
  116OSM    H5G12166   6.080   5.754   7.104 -1.5545 -1.8995  1.8200
  116OSM    C6F12167   5.945   5.877   7.221 -0.0020  0.7619  1.1579
  116OSM    H6F12168   5.840   5.908   7.205 -1.0521 -2.7629  0.4003
  116OSM    H6G12169   6.008   5.967   7.241  1.0382 -0.1839  2.2762
  116OSM    C7F12170   5.968   5.793   7.347 -0.1945  0.3476 -0.3267
  116OSM    H7F12171   6.077   5.772   7.335 -0.2864  0.1154 -0.7851
  116OSM    H7G12172   5.922   5.692   7.343 -0.7192  0.3942  2.4485
  116OSM    C8F12173   5.922   5.862   7.473  0.0066  0.2433 -0.0089
  116OSM    H8F12174   5.811   5.858   7.477 -0.1673  0.9384 -2.4044
  116OSM    H8G12175   5.956   5.967   7.477 -1.6475  0.7807  0.7942
  116OSM    C9F12176   5.963   5.790   7.598  0.2570  0.4600  0.2124
  116OSM    H9F12177   5.887   5.714   7.620 -0.5934  1.7911  2.1693
  116OSM   C10F12178   6.058   5.823   7.691  0.2226 -0.0290 -0.3496
  116OSM   H10F12179   6.087   5.766   7.780  2.9158  3.2952  1.1179
  116OSM   C11F12180   6.158   5.941   7.679 -0.5160  0.3214 -0.1408
  116OSM   H11F12181   6.106   6.027   7.631 -0.1942  0.1742 -0.7663
  116OSM   H11G12182   6.240   5.919   7.608 -2.3391 -3.0653 -1.4382
  116OSM   C12F12183   6.197   5.984   7.822  0.0346  0.0806 -0.4438
  116OSM   H12F12184   6.258   6.076   7.826 -1.3540  1.0108  3.0568
  116OSM   H12G12185   6.258   5.899   7.859  1.5208  1.9527  1.6789
  116OSM   C13F12186   6.088   6.010   7.925 -0.0992 -0.5854  0.0520
  116OSM   H13F12187   6.017   5.924   7.926  1.4873 -1.9657  1.4715
  116OSM   H13G12188   6.032   6.102   7.897 -1.1875 -1.5419 -1.0142
  116OSM   C14F12189   6.143   6.026   8.066  0.8334  0.9347 -0.3549
  116OSM   H14F12190   6.217   6.110   8.066 -0.8765  2.5089  0.1478
  116OSM   H14G12191   6.194   5.932   8.095 -1.2727 -0.0022  0.4957
  116OSM   C15F12192   6.029   6.063   8.163  0.5995 -0.7481 -0.1534
  116OSM   H15F12193   5.941   5.998   8.138 -1.1359  1.0026  1.1368
  116OSM   H15G12194   6.001   6.165   8.129  1.0198 -0.9002 -0.9855
  116OSM   C16F12195   6.068   6.060   8.305 -0.4520  0.2185  0.0635
  116OSM   H16F12196   6.142   6.142   8.320 -2.0496  1.7555 -0.2054
  116OSM   H16G12197   6.117   5.962   8.321 -1.1954 -0.4531 -1.5706
  116OSM   C17F12198   5.943   6.085   8.385  0.6676 -0.2085 -1.0914
  116OSM   H17F12199   5.875   6.003   8.355  1.6459 -0.5620 -2.4277
  116OSM   H17G12200   5.880   6.172   8.357 -2.6460 -1.9641  0.3216
  116OSM   C18F12201   5.961   6.097   8.536 -0.0966 -0.3232 -0.7558
  116OSM   H18F12202   6.028   6.016   8.570 -2.1198 -1.7682  0.0205
  116OSM   H18G12203   5.864   6.087   8.589 -0.3117  0.9156 -0.8926
  116OSM   H18H12204   6.011   6.192   8.563 -1.2774  0.5972 -1.7052
  117OSM      N12205   6.054   1.045   5.804 -0.7063  0.6311 -0.7584
  117OSM    C1512206   5.950   1.129   5.862  0.2520 -0.3770 -0.0253
  117OSM   H15A12207   5.857   1.108   5.813  1.9813  0.6053 -4.1821
  117OSM   H15B12208   5.964   1.236   5.848 -1.4748  0.0349  1.0668
  117OSM   H15C12209   5.949   1.116   5.969 -0.5873  0.9735  0.1559
  117OSM    C1412210   6.024   1.026   5.658 -0.1487  0.7017 -0.1296
  117OSM   H14A12211   5.939   0.961   5.639  0.9679 -0.2478 -2.2552
  117OSM   H14B12212   6.104   0.981   5.601  1.8586  3.5169  0.2551
  117OSM   H14C12213   6.009   1.119   5.607 -0.2830  0.1543 -1.1147
  117OSM    C1312214   6.183   1.110   5.820  0.2151 -0.2247 -0.0908
  117OSM   H13A12215   6.200   1.107   5.927 -0.2536 -0.0773 -0.0076
  117OSM   H13B12216   6.185   1.216   5.802  0.1183 -0.2040  0.0174
  117OSM   H13C12217   6.259   1.062   5.761  0.3014 -0.3009  0.0813
  117OSM    C1212218   6.062   0.905   5.872  0.7190  0.0918 -0.3709
  117OSM   H12A12219   6.133   0.848   5.815  1.1760 -1.0413  1.2818
  117OSM   H12B12220   5.965   0.858   5.861  0.0230  1.4411 -0.2617
  117OSM    C1112221   6.097   0.907   6.024  0.1762  0.7357 -0.0698
  117OSM   H11A12222   6.200   0.945   6.040  0.7270 -1.2433  1.6182
  117OSM   H11B12223   6.104   0.805   6.067  0.8467  0.6029 -0.4797
  117OSM      P12224   5.865   0.928   6.151  0.1967 -0.0599 -0.0350
  117OSM    O1312225   5.772   1.047   6.143 -0.4308  0.0713  0.1228
  117OSM    O1412226   5.811   0.806   6.083 -0.4725 -0.6994 -0.4225
  117OSM    O1112227   5.893   0.895   6.302 -0.0740 -0.2082  0.6907
  117OSM    O1212228   6.001   0.983   6.105 -0.2482 -0.1436 -0.1992
  117OSM    C1S12229   5.967   0.986   6.386 -0.5567  0.2679 -0.0107
  117OSM    H1S12230   5.903   1.070   6.421  2.1071  1.9811  1.0809
  117OSM    H1T12231   6.063   1.018   6.341 -1.3999 -0.0075 -2.0892
  117OSM     NF12232   6.094   1.015   6.597 -0.1115 -0.2711 -0.2200
  117OSM    HNF12233   6.193   1.009   6.608 -0.2457  0.3345  1.8312
  117OSM    C2S12234   6.022   0.915   6.517 -0.6463 -0.3281 -0.1621
  117OSM    H2S12235   5.929   0.887   6.572 -0.5530  2.4486  1.5663
  117OSM    C3S12236   6.102   0.789   6.474  0.6631 -0.8780  0.5865
  117OSM    H3S12237   6.193   0.815   6.416 -0.5370  0.0341 -0.9629
  117OSM     O312238   6.024   0.703   6.394 -0.3339 -0.0868 -0.0010
  117OSM    HO312239   5.962   0.767   6.358  0.2282  0.5950  0.2221
  117OSM    C4S12240   6.149   0.724   6.600  0.4586  0.1075  0.4235
  117OSM    H4S12241   6.061   0.692   6.658  0.0870  1.1208  0.4335
  117OSM    C5S12242   6.273   0.703   6.649  0.0436 -0.5586  0.5261
  117OSM    H5S12243   6.361   0.744   6.597 -0.0109 -0.8752  0.1865
  117OSM    C6S12244   6.308   0.639   6.780 -0.1691  0.4767  0.0308
  117OSM    H6S12245   6.360   0.711   6.846 -0.9776 -1.7213  3.3116
  117OSM    H6T12246   6.387   0.563   6.762 -1.3603 -0.7332 -0.2452
  117OSM    C7S12247   6.192   0.571   6.850  0.4134 -0.3013 -0.5324
  117OSM    H7S12248   6.155   0.481   6.797 -2.8866  0.0065  0.9716
  117OSM    H7T12249   6.104   0.639   6.861  0.0185 -0.3073 -3.1387
  117OSM    C8S12250   6.226   0.507   6.990  0.2007  0.2666 -0.1881
  117OSM    H8S12251   6.305   0.432   6.970  0.6096  0.1714  1.6133
  117OSM    H8T12252   6.127   0.464   7.016 -0.5575 -1.1165 -4.5448
  117OSM    C9S12253   6.283   0.611   7.088 -0.4006 -0.1273 -0.0015
  117OSM    H9S12254   6.234   0.711   7.083 -0.1344 -0.0680 -2.8818
  117OSM    H9T12255   6.387   0.644   7.068 -0.5395  0.3849  0.1048
  117OSM   C10S12256   6.273   0.563   7.233  0.3795 -0.5216 -0.1925
  117OSM   H10S12257   6.275   0.454   7.253 -1.4637 -0.9583 -2.0939
  117OSM   H10T12258   6.172   0.599   7.263  0.6328 -1.1790  1.5544
  117OSM   C11S12259   6.383   0.615   7.326  0.6165 -0.6952  0.4002
  117OSM   H11S12260   6.391   0.726   7.318  2.1981 -0.8709 -0.9761
  117OSM   H11T12261   6.481   0.571   7.297 -0.1290 -0.4040 -3.1118
  117OSM   C12S12262   6.368   0.576   7.473 -0.4157 -0.3045 -0.0522
  117OSM   H12S12263   6.352   0.466   7.478 -2.2694 -0.0991 -0.5289
  117OSM   H12T12264   6.279   0.626   7.517 -1.0511 -1.3008 -0.1713
  117OSM   C13S12265   6.490   0.606   7.560  0.4004  0.3202  0.0949
  117OSM   H13S12266   6.508   0.715   7.550 -2.1436  0.6076 -2.4035
  117OSM   H13T12267   6.579   0.550   7.523  0.5325 -0.6998  1.8152
  117OSM   C14S12268   6.476   0.561   7.711  0.5989 -0.1054 -0.1281
  117OSM   H14S12269   6.457   0.452   7.718  2.0675 -0.3088  1.5821
  117OSM   H14T12270   6.392   0.613   7.762  1.8059 -0.7768  2.7281
  117OSM   C15S12271   6.602   0.576   7.795 -0.3514 -0.6563  0.7196
  117OSM   H15S12272   6.618   0.684   7.816  1.9149 -0.8971  0.5640
  117OSM   H15T12273   6.690   0.538   7.739  0.4861  1.6192  0.3572
  117OSM   C16S12274   6.587   0.505   7.928  0.4916  0.5882  0.0035
  117OSM   H16S12275   6.571   0.397   7.907  0.9749  0.7792 -1.4851
  117OSM   H16T12276   6.495   0.532   7.984 -0.2506  0.8897 -1.3192
  117OSM   C17S12277   6.708   0.520   8.020  0.0934 -0.2630  0.0571
  117OSM   H17S12278   6.723   0.625   8.051 -0.1220 -0.3735  0.5425
  117OSM   H17T12279   6.797   0.490   7.960  0.4083 -0.2813  0.5344
  117OSM   C18S12280   6.693   0.433   8.145 -0.3000 -0.9400  0.0056
  117OSM   H18S12281   6.692   0.330   8.105  1.0166 -0.3879 -1.5401
  117OSM   H18T12282   6.595   0.447   8.197 -0.2397 -0.8106  0.0858
  117OSM   H18U12283   6.774   0.439   8.220  1.4813 -0.9357 -1.8461
  117OSM    C1F12284   6.029   1.112   6.664 -0.6039 -0.4554  1.0096
  117OSM     OF12285   5.921   1.160   6.626  0.5321  0.6154  0.8568
  117OSM    C2F12286   6.104   1.187   6.766  0.4710  0.0828 -0.2051
  117OSM    H2F12287   6.146   1.285   6.736 -1.6113  1.0333 -0.1905
  117OSM    H2G12288   6.184   1.122   6.809  0.5272 -0.9500 -1.7979
  117OSM    C3F12289   6.004   1.213   6.889 -0.2252 -0.1620 -0.0899
  117OSM    H3F12290   5.956   1.115   6.907  2.4459 -1.3516  1.0791
  117OSM    H3G12291   5.929   1.286   6.850 -0.1368  0.4488  0.8389
  117OSM    C4F12292   6.073   1.275   7.012  0.0007  0.0840 -0.7812
  117OSM    H4F12293   6.153   1.341   6.973  0.3837  1.9753  2.8182
  117OSM    H4G12294   6.124   1.189   7.061  0.3385  1.9963  2.5329
  117OSM    C5F12295   5.977   1.346   7.107 -0.3220  0.2519  0.2229
  117OSM    H5F12296   5.908   1.273   7.154 -1.9098  0.9311 -0.9475
  117OSM    H5G12297   5.920   1.427   7.055 -0.8443 -1.2816 -1.7028
  117OSM    C6F12298   6.060   1.414   7.228 -0.1204  0.3440  0.2230
  117OSM    H6F12299   6.088   1.518   7.198 -3.2274  1.3408  0.3732
  117OSM    H6G12300   6.157   1.363   7.245  1.1819  2.6329  0.1383
  117OSM    C7F12301   5.981   1.418   7.356 -0.4501  0.0824 -0.1346
  117OSM    H7F12302   5.926   1.322   7.370 -0.4334  0.2487  1.2121
  117OSM    H7G12303   5.892   1.483   7.353  0.1946  1.4603  3.9799
  117OSM    C8F12304   6.077   1.448   7.471  0.0319 -0.0134 -0.6317
  117OSM    H8F12305   6.139   1.538   7.446 -1.1476  1.5068  1.6226
  117OSM    H8G12306   6.150   1.365   7.481  1.9794  1.5430 -1.2054
  117OSM    C9F12307   5.988   1.483   7.586  0.4918  0.0510 -0.6393
  117OSM    H9F12308   5.907   1.556   7.569  2.6914  2.5028 -1.2041
  117OSM   C10F12309   6.001   1.446   7.713 -0.3324  0.7126 -0.1790
  117OSM   H10F12310   5.924   1.482   7.782  0.3478  2.4206 -0.2614
  117OSM   C11F12311   6.114   1.362   7.770 -0.1718 -0.5703  0.1800
  117OSM   H11F12312   6.168   1.423   7.846  1.6212  0.1319 -1.5833
  117OSM   H11G12313   6.179   1.310   7.697 -1.8155 -1.0545 -1.0195
  117OSM   C12F12314   6.039   1.247   7.840 -0.1636  0.5138  0.6905
  117OSM   H12F12315   6.114   1.172   7.869  1.3014  1.1524 -1.2177
  117OSM   H12G12316   5.968   1.194   7.773 -0.4453 -0.1655  1.5136
  117OSM   C13F12317   5.963   1.291   7.963 -0.4732 -0.2224 -0.2631
  117OSM   H13F12318   5.876   1.354   7.934 -0.0410 -0.5621 -2.4338
  117OSM   H13G12319   6.025   1.356   8.029 -1.9867 -0.2956  1.3052
  117OSM   C14F12320   5.904   1.176   8.050 -0.5469 -0.2841 -0.8586
  117OSM   H14F12321   5.965   1.085   8.030 -1.0477 -0.7190 -0.4716
  117OSM   H14G12322   5.804   1.161   8.004 -0.6898  1.1982 -1.0749
  117OSM   C15F12323   5.882   1.193   8.201 -0.4551 -0.0065 -0.6500
  117OSM   H15F12324   5.985   1.180   8.240 -0.2716  1.7963 -0.4335
  117OSM   H15G12325   5.814   1.112   8.236  0.0481 -0.3371 -0.4181
  117OSM   C16F12326   5.828   1.335   8.238  0.4123  1.1564 -0.3540
  117OSM   H16F12327   5.726   1.331   8.195  0.4765 -1.5627 -0.4609
  117OSM   H16G12328   5.879   1.412   8.178  0.6406 -0.8119 -2.8665
  117OSM   C17F12329   5.826   1.357   8.389  0.8673  0.0976  0.2272
  117OSM   H17F12330   5.789   1.267   8.442  0.4236  0.2257  0.1427
  117OSM   H17G12331   5.933   1.345   8.416  0.8535 -2.7884 -0.6393
  117OSM   C18F12332   5.743   1.471   8.432  0.2443  0.1659 -0.6039
  117OSM   H18F12333   5.634   1.454   8.418 -0.1106  0.5379  1.4559
  117OSM   H18G12334   5.759   1.552   8.358 -1.4158  1.3738  0.2972
  117OSM   H18H12335   5.758   1.503   8.537 -0.9271  0.4008 -0.5045
  118OSM      N12336   1.286   5.194   5.820  0.7414  0.6223 -0.4175
  118OSM    C1512337   1.231   5.063   5.780 -0.3621  0.7186 -0.1894
  118OSM   H15A12338   1.185   5.014   5.864 -2.4468 -0.9739 -2.1774
  118OSM   H15B12339   1.310   4.995   5.751 -0.6323  0.5968 -0.6387
  118OSM   H15C12340   1.162   5.057   5.698 -1.9637 -1.1066  1.2060
  118OSM    C1412341   1.356   5.274   5.711 -0.4585  0.2213 -0.1237
  118OSM   H14A12342   1.423   5.212   5.652  2.0718  0.9770  1.7494
  118OSM   H14B12343   1.422   5.350   5.750 -2.1593  1.7454 -0.0882
  118OSM   H14C12344   1.288   5.327   5.646  1.9785  1.5961 -1.7138
  118OSM    C1312345   1.179   5.286   5.877  0.2228 -0.0997 -0.2441
  118OSM   H13A12346   1.218   5.376   5.923  0.5123 -0.8296  0.9704
  118OSM   H13B12347   1.127   5.235   5.956 -0.4390  1.2570  0.2187
  118OSM   H13C12348   1.098   5.307   5.809 -0.5982  0.0344  0.7672
  118OSM    C1212349   1.383   5.171   5.937 -0.2220  0.9368 -0.1016
  118OSM   H12A12350   1.445   5.254   5.968  0.0657  0.2100  1.3683
  118OSM   H12B12351   1.451   5.099   5.895  1.3136  2.4080 -0.2541
  118OSM    C1112352   1.328   5.106   6.065  0.1624  0.4849  0.4538
  118OSM   H11A12353   1.235   5.162   6.089 -0.5185  0.3290 -1.6366
  118OSM   H11B12354   1.396   5.115   6.152  0.1803  1.5014  0.3418
  118OSM      P12355   1.407   4.854   6.038 -0.3289  0.3234  0.0752
  118OSM    O1312356   1.343   4.728   5.990 -0.0724 -0.5362 -0.1979
  118OSM    O1412357   1.527   4.901   5.963  0.6045  0.0520 -0.8450
  118OSM    O1112358   1.449   4.842   6.187  0.4129 -0.3416  0.2598
  118OSM    O1212359   1.297   4.969   6.051 -0.4280 -0.1477  0.3158
  118OSM    C1S12360   1.353   4.826   6.292 -0.8610  0.5150  0.4222
  118OSM    H1S12361   1.300   4.729   6.282  0.2490  0.0004 -0.7222
  118OSM    H1T12362   1.274   4.905   6.293 -2.7271 -1.2803  0.7479
  118OSM     NF12363   1.329   4.758   6.527 -0.3994 -0.2670  0.6801
  118OSM    HNF12364   1.287   4.828   6.582 -2.4550 -0.5165 -0.4744
  118OSM    C2S12365   1.424   4.812   6.427  0.5023 -0.2144  0.1548
  118OSM    H2S12366   1.509   4.744   6.405  1.7099  1.0374  0.7956
  118OSM    C3S12367   1.484   4.954   6.464 -0.0443 -1.1425  0.2474
  118OSM    H3S12368   1.397   5.023   6.461 -0.3494 -1.5392 -0.4783
  118OSM     O312369   1.564   5.017   6.359  0.0440  0.2391  0.0803
  118OSM    HO312370   1.541   4.967   6.280  0.4148  2.6791 -1.6503
  118OSM    C4S12371   1.563   4.955   6.593  0.5085  0.1308 -0.2459
  118OSM    H4S12372   1.501   4.965   6.683  1.8859 -0.9831  0.8958
  118OSM    C5S12373   1.696   4.937   6.622  0.0405  0.4823  0.0864
  118OSM    H5S12374   1.775   4.923   6.547  2.0864 -0.7718  2.3429
  118OSM    C6S12375   1.754   4.934   6.765  0.6684 -0.0961  0.2305
  118OSM    H6S12376   1.831   5.010   6.791  1.9091 -1.4502  0.6314
  118OSM    H6T12377   1.815   4.841   6.765  0.4059 -0.2694  0.2005
  118OSM    C7S12378   1.657   4.933   6.889 -0.1888 -0.1572 -0.0178
  118OSM    H7S12379   1.598   4.839   6.886 -1.8490  0.8590 -1.8685
  118OSM    H7T12380   1.587   5.019   6.889 -0.2539 -0.1186  2.5922
  118OSM    C8S12381   1.726   4.947   7.022 -0.6697  0.3757 -0.2939
  118OSM    H8S12382   1.792   5.036   7.013  2.8573 -2.1134 -0.6463
  118OSM    H8T12383   1.806   4.872   7.036 -0.0024  1.3950  1.7235
  118OSM    C9S12384   1.644   4.945   7.155  0.5427 -0.1175  0.1421
  118OSM    H9S12385   1.565   5.022   7.147 -1.3562 -1.7060  2.1232
  118OSM    H9T12386   1.716   4.972   7.236  0.5730  0.7763 -0.1708
  118OSM   C10S12387   1.579   4.806   7.162 -0.0091  0.0320  0.5964
  118OSM   H10S12388   1.643   4.718   7.140 -0.9843 -0.6424  0.4114
  118OSM   H10T12389   1.500   4.785   7.087  1.0339 -2.3288  0.0595
  118OSM   C11S12390   1.538   4.780   7.309  0.4427  0.0690  0.1340
  118OSM   H11S12391   1.474   4.689   7.308  2.0584 -1.1227 -2.1145
  118OSM   H11T12392   1.473   4.867   7.333  0.3791  0.4525 -1.3193
  118OSM   C12S12393   1.654   4.764   7.408  0.0642  0.0211 -0.6310
  118OSM   H12S12394   1.726   4.849   7.406 -0.3453  0.5896  2.4931
  118OSM   H12T12395   1.712   4.676   7.373 -0.4077 -0.4286 -0.3026
  118OSM   C13S12396   1.602   4.742   7.550  0.3754 -0.3723  0.5293
  118OSM   H13S12397   1.545   4.647   7.560  0.3772 -0.3603  0.6479
  118OSM   H13T12398   1.530   4.819   7.583 -0.4857 -0.4397 -1.0607
  118OSM   C14S12399   1.720   4.718   7.647  0.6650 -0.5673  0.2400
  118OSM   H14S12400   1.790   4.803   7.633 -1.7765  1.1788 -2.7513
  118OSM   H14T12401   1.779   4.626   7.626  0.6351 -0.3057 -1.0686
  118OSM   C15S12402   1.682   4.719   7.794 -0.1025 -0.0061  0.3108
  118OSM   H15S12403   1.602   4.649   7.825 -0.6102 -0.2127 -1.4033
  118OSM   H15T12404   1.637   4.819   7.814 -0.0837  0.1251 -0.2935
  118OSM   C16S12405   1.801   4.686   7.887  0.3103 -0.5806  0.0055
  118OSM   H16S12406   1.892   4.733   7.845  1.0468 -0.6631  1.4661
  118OSM   H16T12407   1.816   4.576   7.883  1.9799 -0.4552  1.5770
  118OSM   C17S12408   1.780   4.733   8.030  0.1672  0.9219  0.1394
  118OSM   H17S12409   1.718   4.824   8.023  1.0637  1.5527  0.2264
  118OSM   H17T12410   1.875   4.778   8.066  0.8520 -0.3367 -0.0269
  118OSM   C18S12411   1.726   4.641   8.138 -0.3963  0.2565  0.0895
  118OSM   H18S12412   1.650   4.571   8.097 -0.6694  0.6259 -0.0351
  118OSM   H18T12413   1.684   4.700   8.221 -0.9486  0.9884 -0.6923
  118OSM   H18U12414   1.807   4.585   8.190 -0.6821 -0.1269  0.1208
  118OSM    C1F12415   1.279   4.632   6.522 -0.3675  0.0830  0.7062
  118OSM     OF12416   1.324   4.552   6.436 -0.0028  0.5845 -0.1540
  118OSM    C2F12417   1.174   4.583   6.623 -0.3030 -0.0606  0.1067
  118OSM    H2F12418   1.210   4.484   6.660  0.2244  0.1723  0.2280
  118OSM    H2G12419   1.082   4.574   6.561  1.2859  2.2215 -2.8252
  118OSM    C3F12420   1.153   4.688   6.736 -0.2550 -0.6426  0.7773
  118OSM    H3F12421   1.102   4.769   6.679  1.6897  1.3946  1.7898
  118OSM    H3G12422   1.250   4.721   6.777 -0.1593 -0.0331  0.0814
  118OSM    C4F12423   1.076   4.639   6.862 -0.1358 -0.0223  0.3709
  118OSM    H4F12424   1.143   4.593   6.938 -0.4237  1.0264  1.2866
  118OSM    H4G12425   1.003   4.557   6.843 -1.2195  0.8425  0.6811
  118OSM    C5F12426   1.003   4.757   6.929  0.3405  0.3984 -0.3951
  118OSM    H5F12427   0.910   4.780   6.873  0.8563 -0.0830 -1.4702
  118OSM    H5G12428   1.074   4.843   6.918  1.3946  0.0136  2.4519
  118OSM    C6F12429   0.976   4.741   7.079  0.0210 -0.2224  0.8270
  118OSM    H6F12430   0.908   4.658   7.109  2.9519 -2.4178  1.9224
  118OSM    H6G12431   0.940   4.841   7.111  1.0558  0.4065  0.0746
  118OSM    C7F12432   1.107   4.719   7.164 -0.1290 -0.1392 -0.4161
  118OSM    H7F12433   1.181   4.786   7.114  3.6990 -2.1437  2.0500
  118OSM    H7G12434   1.154   4.619   7.154 -1.8229 -1.2586  1.8762
  118OSM    C8F12435   1.090   4.740   7.316  0.0876 -1.0818 -0.3125
  118OSM    H8F12436   0.983   4.715   7.336 -0.0238 -0.0614  0.4466
  118OSM    H8G12437   1.091   4.850   7.332 -2.4270 -1.2435  1.5653
  118OSM    C9F12438   1.180   4.659   7.403 -0.1331 -0.2549 -0.3502
  118OSM    H9F12439   1.193   4.553   7.378 -1.7576 -0.6740  0.4352
  118OSM   C10F12440   1.243   4.704   7.515  0.0708 -0.3681 -0.4283
  118OSM   H10F12441   1.317   4.644   7.569  1.3051  1.1320 -0.3636
  118OSM   C11F12442   1.226   4.842   7.571  0.1158  0.4834 -0.1575
  118OSM   H11F12443   1.141   4.899   7.529  0.8624  1.2859 -0.6043
  118OSM   H11G12444   1.318   4.899   7.546  1.1545 -0.2906  1.6477
  118OSM   C12F12445   1.184   4.858   7.716 -0.0047  0.8528  0.0867
  118OSM   H12F12446   1.079   4.822   7.729 -0.2063  1.3744 -0.0550
  118OSM   H12G12447   1.184   4.965   7.746 -2.4269  0.7297  0.7892
  118OSM   C13F12448   1.274   4.784   7.818 -0.2836 -0.6490  0.3186
  118OSM   H13F12449   1.381   4.795   7.789  0.1457 -4.8583 -0.2757
  118OSM   H13G12450   1.271   4.674   7.805 -0.2349 -0.4327 -1.9137
  118OSM   C14F12451   1.242   4.819   7.963 -0.4007 -0.1133  0.2454
  118OSM   H14F12452   1.135   4.796   7.979 -0.3394  1.1642  3.1249
  118OSM   H14G12453   1.254   4.927   7.985 -0.3844 -0.5004  2.2798
  118OSM   C15F12454   1.329   4.751   8.069  0.3285 -0.0972  0.8236
  118OSM   H15F12455   1.424   4.804   8.049 -0.0907 -0.5565 -3.2307
  118OSM   H15G12456   1.336   4.641   8.054 -2.9781 -0.3187  0.0141
  118OSM   C16F12457   1.283   4.780   8.211  0.4300 -0.3838 -1.4294
  118OSM   H16F12458   1.210   4.702   8.243 -1.0618  0.9699 -1.3892
  118OSM   H16G12459   1.222   4.872   8.223  1.2825  0.0975 -0.6415
  118OSM   C17F12460   1.389   4.796   8.329  0.6785  0.0072 -0.5044
  118OSM   H17F12461   1.338   4.852   8.411  1.4649  2.8273 -1.8209
  118OSM   H17G12462   1.471   4.865   8.300  1.5174 -1.5951 -2.1165
  118OSM   C18F12463   1.451   4.658   8.367  0.3374 -0.4585 -0.2146
  118OSM   H18F12464   1.392   4.613   8.449  3.5406  0.7691  3.0168
  118OSM   H18G12465   1.558   4.663   8.397  0.1518  0.5877  0.3121
  118OSM   H18H12466   1.456   4.589   8.280 -0.7091  0.5389 -1.1025
  119OSM      N12467   3.617   1.413   5.805  0.0668  0.9406  0.2662
  119OSM    C1512468   3.707   1.505   5.722  0.9986  0.5570  0.7500
  119OSM   H15A12469   3.676   1.504   5.619  0.5032  0.7659  0.8929
  119OSM   H15B12470   3.812   1.488   5.737  1.2709 -1.8284 -2.8231
  119OSM   H15C12471   3.691   1.604   5.763 -2.7315  0.4138 -0.0282
  119OSM    C1412472   3.484   1.466   5.826  0.5364 -0.5881 -0.5665
  119OSM   H14A12473   3.464   1.510   5.729  1.5331  0.8284 -0.1733
  119OSM   H14B12474   3.480   1.553   5.891  0.0492 -0.4040 -0.8344
  119OSM   H14C12475   3.418   1.385   5.853  1.4483 -0.7996  1.1639
  119OSM    C1312476   3.607   1.275   5.734  0.7033  0.0017 -0.4283
  119OSM   H13A12477   3.561   1.196   5.790  0.2256 -1.9018 -3.2675
  119OSM   H13B12478   3.700   1.225   5.709  1.0378 -0.1483  1.0205
  119OSM   H13C12479   3.543   1.282   5.647  1.2986 -1.2492 -0.9887
  119OSM    C1212480   3.677   1.383   5.940  0.8474  0.4143 -0.3414
  119OSM   H12A12481   3.608   1.315   5.988  0.8539  0.0128 -0.8843
  119OSM   H12B12482   3.672   1.478   5.991  1.3929  0.3259 -0.1215
  119OSM    C1112483   3.818   1.324   5.954  0.3703 -0.5291  0.4418
  119OSM   H11A12484   3.823   1.239   5.883  1.1057 -1.2799  1.3612
  119OSM   H11B12485   3.815   1.274   6.053 -0.2334 -1.7205 -0.1493
  119OSM      P12486   4.065   1.375   5.958  0.1477 -0.4287 -0.2107
  119OSM    O1312487   4.077   1.235   5.903 -0.1571 -0.0491  0.3866
  119OSM    O1412488   4.152   1.478   5.904 -0.3825  0.2226  0.7220
  119OSM    O1112489   4.072   1.360   6.117 -0.0500  0.0971 -0.1047
  119OSM    O1212490   3.914   1.424   5.934 -0.3450  0.1987  0.0663
  119OSM    C1S12491   4.088   1.465   6.211 -0.7736 -0.5033  0.0735
  119OSM    H1S12492   4.009   1.540   6.192  2.6540  3.2690 -0.7388
  119OSM    H1T12493   4.186   1.515   6.193  0.6781 -3.0843  0.2941
  119OSM     NF12494   4.078   1.537   6.443 -0.1743 -0.0198  0.0517
  119OSM    HNF12495   4.156   1.554   6.502 -1.5593 -0.3163  2.1067
  119OSM    C2S12496   4.086   1.418   6.357 -0.1210  0.4883 -0.1401
  119OSM    H2S12497   3.995   1.354   6.366 -0.0371  0.6058  2.5718
  119OSM    C3S12498   4.211   1.326   6.383  0.0414  0.1675 -0.6441
  119OSM    H3S12499   4.300   1.388   6.360  1.9484 -2.5447 -1.0907
  119OSM     O312500   4.233   1.216   6.298  0.4188  0.2094 -0.0065
  119OSM    HO312501   4.184   1.232   6.217 -0.1831 -1.5425 -0.0289
  119OSM    C4S12502   4.192   1.270   6.519 -0.7150 -0.5780  0.9159
  119OSM    H4S12503   4.115   1.192   6.517  1.6148 -3.0587 -2.3892
  119OSM    C5S12504   4.289   1.278   6.616 -0.0246  0.2518  0.6698
  119OSM    H5S12505   4.382   1.326   6.582  1.6405 -2.7230  0.6016
  119OSM    C6S12506   4.280   1.194   6.742 -0.1119 -0.0082 -0.3842
  119OSM    H6S12507   4.314   1.246   6.834 -1.8444  1.5839 -0.6091
  119OSM    H6T12508   4.340   1.100   6.739  2.2763  1.4022  0.0381
  119OSM    C7S12509   4.133   1.167   6.777  0.3936  0.7204 -0.0409
  119OSM    H7S12510   4.083   1.094   6.711  1.4683 -1.4055  1.3854
  119OSM    H7T12511   4.074   1.260   6.765 -0.8122  0.1318  1.1630
  119OSM    C8S12512   4.111   1.114   6.922  0.5376  0.1016  0.5086
  119OSM    H8S12513   4.192   1.043   6.949 -0.8260 -0.7788  2.5033
  119OSM    H8T12514   4.019   1.051   6.912  0.3654  0.4830 -0.4732
  119OSM    C9S12515   4.106   1.228   7.029 -0.1953  0.6600 -0.1188
  119OSM    H9S12516   4.006   1.276   7.023 -2.2056 -3.1849 -0.4349
  119OSM    H9T12517   4.185   1.301   7.003  1.9241 -1.7440 -0.8335
  119OSM   C10S12518   4.115   1.177   7.174 -0.3736 -0.3696 -0.1077
  119OSM   H10S12519   4.208   1.118   7.191 -0.0251  1.0187  3.8372
  119OSM   H10T12520   4.029   1.108   7.180 -0.1317 -0.5631  1.4563
  119OSM   C11S12521   4.113   1.277   7.289  0.0431 -0.5469  0.2340
  119OSM   H11S12522   4.010   1.317   7.283  0.4301  0.6590  1.2348
  119OSM   H11T12523   4.184   1.356   7.257 -0.7464  0.2451  0.4155
  119OSM   C12S12524   4.151   1.218   7.423  0.1456  0.1435 -0.7530
  119OSM   H12S12525   4.261   1.209   7.427  0.3247  2.3522  0.7447
  119OSM   H12T12526   4.113   1.114   7.438 -1.5339  1.0012  1.6120
  119OSM   C13S12527   4.095   1.290   7.550  0.0033  0.0651 -0.0867
  119OSM   H13S12528   3.984   1.292   7.550 -0.0025  1.1331 -1.1406
  119OSM   H13T12529   4.135   1.392   7.532 -0.6030 -0.0183 -2.1187
  119OSM   C14S12530   4.155   1.242   7.681  0.5080 -0.0158  0.2234
  119OSM   H14S12531   4.263   1.267   7.682  0.4749  0.2397 -0.8422
  119OSM   H14T12532   4.139   1.132   7.688 -2.0927  0.3389  1.2476
  119OSM   C15S12533   4.088   1.304   7.803  0.3938 -0.7939  0.8819
  119OSM   H15S12534   3.982   1.272   7.810 -0.7405  2.7489  1.5026
  119OSM   H15T12535   4.097   1.414   7.796 -0.1969 -0.7913  0.0243
  119OSM   C16S12536   4.167   1.264   7.940  0.3722 -0.2222 -0.2716
  119OSM   H16S12537   4.193   1.158   7.955  3.5992  0.7941  2.7840
  119OSM   H16T12538   4.111   1.299   8.029 -0.5746  0.6336 -1.1757
  119OSM   C17S12539   4.306   1.322   7.946  0.0945 -0.1021  0.1850
  119OSM   H17S12540   4.309   1.428   7.913  0.0355 -0.1398  0.0586
  119OSM   H17T12541   4.365   1.261   7.875 -0.0902  0.5243 -0.5130
  119OSM   C18S12542   4.378   1.310   8.083 -0.6399  0.0507  0.2092
  119OSM   H18S12543   4.324   1.365   8.163  1.1979  1.4957  0.5349
  119OSM   H18T12544   4.479   1.356   8.072 -1.3679  1.3642 -1.6219
  119OSM   H18U12545   4.393   1.204   8.112  0.2946  0.8351  2.8083
  119OSM    C1F12546   3.977   1.625   6.462  0.8342 -0.5435 -1.1549
  119OSM     OF12547   3.873   1.624   6.396 -0.3582  0.4118  0.5061
  119OSM    C2F12548   4.003   1.732   6.570  0.1569 -0.3179  1.1221
  119OSM    H2F12549   3.912   1.792   6.590 -1.1802 -0.6760 -2.8737
  119OSM    H2G12550   4.072   1.810   6.529 -1.0741  0.4960  0.5321
  119OSM    C3F12551   4.055   1.680   6.704  0.7734  0.1453  0.2024
  119OSM    H3F12552   4.114   1.759   6.756 -1.9638  1.6827  1.2308
  119OSM    H3G12553   4.126   1.595   6.704 -0.5552 -1.0255  1.6330
  119OSM    C4F12554   3.945   1.641   6.805  0.1060  0.2251 -0.0193
  119OSM    H4F12555   3.898   1.549   6.764  1.3019 -0.9652  1.1777
  119OSM    H4G12556   3.878   1.729   6.822  2.2057  1.6298  1.4460
  119OSM    C5F12557   4.005   1.606   6.936  0.0397  0.0926 -0.0131
  119OSM    H5F12558   4.072   1.686   6.974  0.9532 -0.7727  0.2131
  119OSM    H5G12559   4.068   1.518   6.913 -0.7265 -0.5769  0.4048
  119OSM    C6F12560   3.898   1.567   7.039  0.3591 -0.1932  0.2071
  119OSM    H6F12561   3.859   1.468   7.006 -1.4075  0.6674 -0.4040
  119OSM    H6G12562   3.815   1.640   7.029  0.1348 -0.5326 -0.4627
  119OSM    C7F12563   3.944   1.578   7.186  0.2963  0.5024 -0.2069
  119OSM    H7F12564   3.977   1.682   7.208 -1.2733  0.8075  0.8779
  119OSM    H7G12565   4.023   1.500   7.192 -0.8784 -0.7238 -0.2424
  119OSM    C8F12566   3.826   1.550   7.283 -0.0889 -0.2630 -0.0571
  119OSM    H8F12567   3.770   1.458   7.253  0.6556 -0.0814 -2.1657
  119OSM    H8G12568   3.746   1.626   7.275 -0.5813 -0.8681 -1.1442
  119OSM    C9F12569   3.874   1.542   7.425  0.0136  0.1142 -0.0897
  119OSM    H9F12570   3.982   1.542   7.445 -0.1952 -1.0206  1.1192
  119OSM   C10F12571   3.794   1.541   7.538  0.6029 -0.4376 -0.5220
  119OSM   H10F12572   3.839   1.554   7.637  1.9666 -2.3354 -0.8299
  119OSM   C11F12573   3.637   1.550   7.548  0.0235  0.4915 -0.2373
  119OSM   H11F12574   3.595   1.528   7.447  0.0187 -0.4862 -0.0323
  119OSM   H11G12575   3.605   1.647   7.591  2.4793  0.5320  1.7215
  119OSM   C12F12576   3.589   1.440   7.641 -0.7684 -0.0270  0.1493
  119OSM   H12F12577   3.490   1.467   7.685 -0.0517  2.2581  0.4835
  119OSM   H12G12578   3.663   1.432   7.723 -0.3758 -2.8180 -0.3684
  119OSM   C13F12579   3.564   1.298   7.583 -0.2143 -0.5875 -0.7860
  119OSM   H13F12580   3.664   1.279   7.539  0.6663 -0.6693  1.1946
  119OSM   H13G12581   3.482   1.293   7.507 -0.9864 -3.4154  0.0925
  119OSM   C14F12582   3.555   1.192   7.696  0.0298  0.6842 -0.5070
  119OSM   H14F12583   3.572   1.092   7.652  2.8885  1.0581 -0.4496
  119OSM   H14G12584   3.461   1.212   7.752 -0.3385 -1.2086 -0.3918
  119OSM   C15F12585   3.670   1.198   7.808 -0.8573 -0.0649 -0.2593
  119OSM   H15F12586   3.654   1.293   7.864 -1.2468  0.3014 -0.9633
  119OSM   H15G12587   3.769   1.196   7.757 -0.9173  0.1850 -0.3930
  119OSM   C16F12588   3.663   1.078   7.903 -0.5192 -0.0213  0.0706
  119OSM   H16F12589   3.684   0.993   7.834  0.9669  0.7125 -0.4197
  119OSM   H16G12590   3.557   1.068   7.937 -0.5750 -1.6003 -0.4944
  119OSM   C17F12591   3.749   1.098   8.022 -0.6210 -0.0422 -0.4652
  119OSM   H17F12592   3.720   1.191   8.076 -2.1208 -0.3510 -0.6925
  119OSM   H17G12593   3.856   1.112   7.995 -0.4406  0.1852  0.3381
  119OSM   C18F12594   3.746   0.990   8.130  0.1808 -0.0235 -0.4684
  119OSM   H18F12595   3.798   0.900   8.090 -0.2313 -0.4270 -0.0988
  119OSM   H18G12596   3.641   0.959   8.144 -0.4019  2.0807  0.1473
  119OSM   H18H12597   3.798   1.025   8.221  0.3144 -0.1694 -0.4868
  120OSM      N12598   6.031   6.651   6.250 -0.3080 -0.6203 -0.6822
  120OSM    C1512599   5.930   6.740   6.324 -0.0219 -0.5981  1.0867
  120OSM   H15A12600   5.940   6.842   6.288 -1.6317 -0.0556  2.0766
  120OSM   H15B12601   5.940   6.743   6.431  0.4819 -0.0297  1.0282
  120OSM   H15C12602   5.825   6.719   6.313  0.0594 -0.7540  0.6038
  120OSM    C1412603   5.986   6.641   6.106  0.4602 -0.0686  0.1937
  120OSM   H14A12604   5.999   6.743   6.074 -2.4460  0.6543  1.0821
  120OSM   H14B12605   5.889   6.595   6.094  0.2560  0.9676 -3.5724
  120OSM   H14C12606   6.052   6.574   6.053 -1.1451 -1.4274 -0.1638
  120OSM    C1312607   6.170   6.717   6.248  0.0814  0.0534 -0.7106
  120OSM   H13A12608   6.172   6.800   6.179  1.5239 -1.5044 -2.6769
  120OSM   H13B12609   6.240   6.647   6.206  0.6468 -0.6587  1.2982
  120OSM   H13C12610   6.189   6.743   6.351 -3.4694  0.3339  0.0109
  120OSM    C1212611   6.032   6.511   6.323  0.2857  0.2334  0.0518
  120OSM   H12A12612   5.931   6.477   6.337  0.1008  0.4931 -0.5891
  120OSM   H12B12613   6.069   6.525   6.424 -0.3302  0.5050  0.2397
  120OSM    C1112614   6.121   6.403   6.243  0.3281  0.3940 -0.9013
  120OSM   H11A12615   6.087   6.391   6.138 -0.6217 -1.8578 -0.4108
  120OSM   H11B12616   6.105   6.302   6.289  1.4122  0.3137 -0.6885
  120OSM      P12617   6.329   6.428   6.383  0.3417 -0.0831 -0.5036
  120OSM    O1312618   6.456   6.360   6.354 -0.1621  0.1938 -0.4505
  120OSM    O1412619   6.335   6.563   6.443 -0.8058  0.6570 -0.3380
  120OSM    O1112620   6.237   6.332   6.482 -0.4982 -0.0987 -0.2000
  120OSM    O1212621   6.252   6.445   6.250 -0.2885  0.0462  0.7293
  120OSM    C1S12622   6.299   6.224   6.560  0.2696 -0.0160  0.1565
  120OSM    H1S12623   6.393   6.260   6.608 -0.7458  2.9557  0.1077
  120OSM    H1T12624   6.318   6.140   6.490 -3.4021  0.4110 -1.5922
  120OSM     NF12625   6.282   6.068   6.746 -0.1023  0.0009 -0.0037
  120OSM    HNF12626   6.264   5.971   6.729 -1.4426  0.1323  0.4614
  120OSM    C2S12627   6.207   6.162   6.670  0.2117  0.5569  0.0859
  120OSM    H2S12628   6.170   6.244   6.735  0.4648  0.3166  0.5375
  120OSM    C3S12629   6.073   6.111   6.604 -0.0413  0.0431  0.4302
  120OSM    H3S12630   6.088   6.016   6.548 -2.1955 -0.0189 -0.1159
  120OSM     O312631   6.018   6.200   6.498 -1.0214 -0.5409 -0.0439
  120OSM    HO312632   6.098   6.246   6.468 -0.7913 -0.2705  0.9472
  120OSM    C4S12633   5.972   6.078   6.708  0.4771 -0.3919  0.0401
  120OSM    H4S12634   5.957   5.971   6.729  3.6000 -0.9706 -0.1215
  120OSM    C5S12635   5.885   6.169   6.773  0.6122  0.3750  0.7420
  120OSM    H5S12636   5.879   6.275   6.744  0.9282  0.0621 -0.5106
  120OSM    C6S12637   5.772   6.135   6.869  0.4800 -0.2367 -0.2221
  120OSM    H6S12638   5.752   6.025   6.874  0.6087 -0.2184  1.0331
  120OSM    H6T12639   5.675   6.166   6.825  0.5582  2.5799  1.3781
  120OSM    C7S12640   5.804   6.197   7.002 -0.0180 -0.0722  0.1549
  120OSM    H7S12641   5.800   6.307   6.990 -0.0608  0.1919  2.2574
  120OSM    H7T12642   5.907   6.163   7.030  0.3040  0.9326  0.2142
  120OSM    C8S12643   5.708   6.154   7.114 -0.2032  0.7071 -0.2126
  120OSM    H8S12644   5.707   6.043   7.105  0.6528  0.6417  0.3271
  120OSM    H8T12645   5.601   6.177   7.100 -0.0258  0.3837 -2.5291
  120OSM    C9S12646   5.760   6.195   7.248 -0.2280  0.7443  0.3024
  120OSM    H9S12647   5.795   6.300   7.241  1.2197  0.4529  2.3143
  120OSM    H9T12648   5.853   6.134   7.249 -1.1180 -0.7145 -1.1110
  120OSM   C10S12649   5.685   6.155   7.374 -0.0514 -0.4886  0.2833
  120OSM   H10S12650   5.662   6.048   7.358  1.3784 -1.0059  1.5852
  120OSM   H10T12651   5.586   6.205   7.388 -1.4476 -2.9749 -0.1731
  120OSM   C11S12652   5.752   6.185   7.506  0.0321  0.3287  0.3051
  120OSM   H11S12653   5.752   6.293   7.530 -0.0274  0.7579 -1.5231
  120OSM   H11T12654   5.855   6.145   7.494 -0.4862 -0.6462 -1.0870
  120OSM   C12S12655   5.692   6.110   7.618 -0.2152 -0.0266 -0.3143
  120OSM   H12S12656   5.685   6.005   7.581 -1.0290 -1.5121  3.5219
  120OSM   H12T12657   5.587   6.138   7.637  0.2944  2.0757 -0.2940
  120OSM   C13S12658   5.773   6.137   7.746  0.4732 -0.6372 -0.6807
  120OSM   H13S12659   5.746   6.240   7.780 -3.1493 -2.4991  2.9322
  120OSM   H13T12660   5.882   6.126   7.728  1.1005 -0.1801  2.2725
  120OSM   C14S12661   5.737   6.045   7.861  0.5100 -1.2015 -0.5055
  120OSM   H14S12662   5.806   6.063   7.946 -0.5150  0.5413  0.0024
  120OSM   H14T12663   5.762   5.943   7.823  2.0082 -0.3303 -2.0111
  120OSM   C15S12664   5.592   6.050   7.915  0.0252  0.0055  0.2356
  120OSM   H15S12665   5.529   6.021   7.829  0.4984  1.8454 -0.7828
  120OSM   H15T12666   5.566   6.154   7.945  0.6984  0.6587 -1.3566
  120OSM   C16S12667   5.575   5.958   8.033 -1.2023 -0.6234 -0.7101
  120OSM   H16S12668   5.629   5.861   8.025  2.0518  0.9119  0.6460
  120OSM   H16T12669   5.469   5.925   8.028 -0.5068 -3.1164 -0.4627
  120OSM   C17S12670   5.605   6.026   8.167  0.1739 -0.1779  0.2375
  120OSM   H17S12671   5.564   6.129   8.174  0.9731  0.1327  0.4657
  120OSM   H17T12672   5.711   6.020   8.199  0.4718  0.0607 -0.6772
  120OSM   C18S12673   5.530   5.945   8.279  0.6792 -0.1381  0.3820
  120OSM   H18S12674   5.555   5.981   8.381  1.4975  0.3161  0.0311
  120OSM   H18T12675   5.553   5.836   8.279 -2.0023 -0.7772  0.2391
  120OSM   H18U12676   5.420   5.951   8.261  1.0656  2.1577 -1.6364
  120OSM    C1F12677   6.381   6.097   6.836  0.1436 -0.4024 -0.6616
  120OSM     OF12678   6.402   6.214   6.861  0.0248  0.8077  0.2600
  120OSM    C2F12679   6.463   5.977   6.892  0.4992  0.4049  0.2603
  120OSM    H2F12680   6.528   5.938   6.811 -0.0762  1.5329 -0.7741
  120OSM    H2G12681   6.384   5.900   6.907 -0.9112  1.6957 -0.2651
  120OSM    C3F12682   6.544   6.017   7.013  0.4705 -0.6719 -0.4053
  120OSM    H3F12683   6.600   6.113   6.999 -0.5057 -0.4722 -3.8335
  120OSM    H3G12684   6.624   5.940   7.024  0.6373 -0.4061  0.3488
  120OSM    C4F12685   6.467   6.011   7.148  0.4375 -0.0796  0.9011
  120OSM    H4F12686   6.411   5.916   7.163  1.6149 -0.5766  2.5440
  120OSM    H4G12687   6.390   6.089   7.131  0.4430 -0.0015  1.2352
  120OSM    C5F12688   6.568   6.038   7.268  0.0305  0.0116  0.7018
  120OSM    H5F12689   6.611   6.137   7.244  1.3016 -0.9848 -1.4507
  120OSM    H5G12690   6.642   5.955   7.265 -1.4288 -1.3231 -0.5741
  120OSM    C6F12691   6.497   6.034   7.393 -0.4580  0.5443 -0.4281
  120OSM    H6F12692   6.443   5.937   7.398  1.2831 -0.7169 -3.3711
  120OSM    H6G12693   6.417   6.107   7.416  0.5209  1.2845  0.8168
  120OSM    C7F12694   6.608   6.045   7.504 -0.4331 -0.4314  0.3739
  120OSM    H7F12695   6.636   6.152   7.513  0.8618 -0.7582  0.4482
  120OSM    H7G12696   6.702   5.994   7.473  1.7757  3.4234  0.0783
  120OSM    C8F12697   6.577   6.009   7.645  0.3185  0.3234  0.6099
  120OSM    H8F12698   6.504   6.073   7.697  0.4784  1.3601 -0.3975
  120OSM    H8G12699   6.671   6.024   7.703  0.3824 -2.6234  1.4630
  120OSM    C9F12700   6.546   5.859   7.665 -0.9486 -0.3949 -0.1263
  120OSM    H9F12701   6.510   5.807   7.575  0.7311  1.0388 -1.7056
  120OSM   C10F12702   6.564   5.793   7.780  0.7550  0.1629  0.2360
  120OSM   H10F12703   6.526   5.691   7.792 -0.5806  0.6775  0.5312
  120OSM   C11F12704   6.609   5.847   7.914  0.0728  0.0341 -0.9891
  120OSM   H11F12705   6.635   5.955   7.922  3.6412 -0.8352  1.4308
  120OSM   H11G12706   6.707   5.797   7.925 -0.2835 -0.8493 -1.7362
  120OSM   C12F12707   6.515   5.802   8.028  0.3062 -0.4697 -0.0909
  120OSM   H12F12708   6.510   5.691   8.025  0.7183 -0.4813 -0.4730
  120OSM   H12G12709   6.415   5.846   8.012  1.1865  0.5175 -3.7987
  120OSM   C13F12710   6.566   5.832   8.163  0.3490  0.1405  0.3265
  120OSM   H13F12711   6.579   5.939   8.189 -1.7780  0.7365 -0.8163
  120OSM   H13G12712   6.671   5.796   8.167 -0.0480 -0.9744  1.6070
  120OSM   C14F12713   6.479   5.769   8.275 -0.0734  0.2542 -0.5523
  120OSM   H14F12714   6.463   5.661   8.253 -0.2958 -0.2442  1.7536
  120OSM   H14G12715   6.386   5.828   8.266  0.9400  1.7505 -1.7693
  120OSM   C15F12716   6.558   5.792   8.407 -0.2925 -0.3901 -0.2562
  120OSM   H15F12717   6.585   5.899   8.414 -1.1569 -0.2583  2.4321
  120OSM   H15G12718   6.654   5.737   8.400  1.3912  2.2730  0.4086
  120OSM   C16F12719   6.473   5.754   8.536  0.2817  0.1497 -0.0817
  120OSM   H16F12720   6.540   5.758   8.625  0.2307 -1.4687  0.0605
  120OSM   H16G12721   6.448   5.649   8.511 -1.8980  0.7895 -0.8424
  120OSM   C17F12722   6.350   5.841   8.572 -0.5288  0.1356  0.0976
  120OSM   H17F12723   6.274   5.823   8.493 -1.5287 -0.5735  1.1776
  120OSM   H17G12724   6.382   5.946   8.554 -0.5549  0.3766  1.3502
  120OSM   C18F12725   6.291   5.840   8.713 -0.8564 -0.1966 -0.4903
  120OSM   H18F12726   6.212   5.918   8.718 -1.4708 -0.8055 -0.5259
  120OSM   H18G12727   6.364   5.864   8.793 -1.5793 -0.2023  0.1810
  120OSM   H18H12728   6.253   5.738   8.738 -1.6825  0.5101  1.3389
  121OSM      N12729   2.243   1.880   5.880 -0.2174  0.4834  0.3427
  121OSM    C1512730   2.191   2.019   5.901 -0.9605  0.9692 -1.0072
  121OSM   H15A12731   2.197   2.075   5.808 -0.5813  0.2923 -1.3974
  121OSM   H15B12732   2.256   2.077   5.965  0.2880 -0.7169 -0.6697
  121OSM   H15C12733   2.095   2.028   5.949 -1.7301 -0.6644 -2.1309
  121OSM    C1412734   2.344   1.884   5.766 -0.6468 -0.2248 -0.8428
  121OSM   H14A12735   2.422   1.954   5.793  0.4817 -1.5835 -0.4652
  121OSM   H14B12736   2.290   1.906   5.675 -2.8176 -1.3558  0.0973
  121OSM   H14C12737   2.391   1.788   5.752  0.1927 -0.0136  0.3246
  121OSM    C1312738   2.293   1.820   6.006 -0.3494 -0.4331 -0.4653
  121OSM   H13A12739   2.382   1.874   6.037 -0.3972  0.9086 -2.4670
  121OSM   H13B12740   2.324   1.717   5.997  0.3353 -0.7714  3.8117
  121OSM   H13C12741   2.224   1.831   6.088  0.3412 -1.9719  0.3771
  121OSM    C1212742   2.126   1.795   5.842  0.3874  0.2396  0.2678
  121OSM   H12A12743   2.094   1.822   5.742 -1.1519  1.0237  0.9376
  121OSM   H12B12744   2.041   1.811   5.907  1.3289 -0.0659  1.6260
  121OSM    C1112745   2.158   1.643   5.846 -0.1892 -0.2229 -0.2467
  121OSM   H11A12746   2.260   1.613   5.813  0.3562 -1.4413  2.3267
  121OSM   H11B12747   2.092   1.609   5.763  0.6225 -0.5126 -0.7943
  121OSM      P12748   1.971   1.596   6.037 -0.1950  0.1678  0.0097
  121OSM    O1312749   1.914   1.731   6.008  0.4324  0.1877  0.6149
  121OSM    O1412750   1.893   1.467   6.011 -0.5525 -0.1243 -0.4748
  121OSM    O1112751   2.014   1.577   6.193  0.1260 -0.5021 -0.1378
  121OSM    O1212752   2.115   1.585   5.972  0.6420 -0.2136  0.3638
  121OSM    C1S12753   2.150   1.544   6.230  0.0865  0.0407  0.7685
  121OSM    H1S12754   2.214   1.619   6.179 -1.5513  0.4237 -0.8520
  121OSM    H1T12755   2.174   1.442   6.194 -1.0936 -0.1931  0.5733
  121OSM     NF12756   2.322   1.549   6.402  0.5818 -0.1661 -0.3169
  121OSM    HNF12757   2.370   1.465   6.424 -1.0035 -0.7516  1.1430
  121OSM    C2S12758   2.177   1.550   6.380  0.0673  0.1303 -0.1635
  121OSM    H2S12759   2.133   1.646   6.415 -0.2531  0.1330 -0.5776
  121OSM    C3S12760   2.100   1.433   6.446 -0.4834  1.1256  0.5833
  121OSM    H3S12761   2.142   1.333   6.421  0.0333  0.9610  1.9833
  121OSM     O312762   1.962   1.432   6.409 -0.1695 -0.4298  0.2110
  121OSM    HO312763   1.957   1.495   6.337 -0.6736 -1.3577 -0.5946
  121OSM    C4S12764   2.119   1.447   6.601  0.0286 -0.6059  0.7280
  121OSM    H4S12765   2.051   1.512   6.659 -1.0259 -1.3317  0.3308
  121OSM    C5S12766   2.198   1.367   6.678 -0.8496 -0.0384 -0.8058
  121OSM    H5S12767   2.256   1.287   6.629 -1.5700 -2.4167  1.9672
  121OSM    C6S12768   2.214   1.385   6.823  0.3428  0.6408 -0.5449
  121OSM    H6S12769   2.316   1.417   6.855  0.5957 -0.6897  0.0514
  121OSM    H6T12770   2.183   1.294   6.878 -0.2571  1.1597 -0.0063
  121OSM    C7S12771   2.120   1.489   6.894  0.3928 -0.2676  1.3413
  121OSM    H7S12772   2.014   1.456   6.881 -0.5017  2.7238  0.0947
  121OSM    H7T12773   2.133   1.590   6.850  1.1577 -1.0802 -0.3828
  121OSM    C8S12774   2.145   1.496   7.044  0.3340  0.5957 -0.2482
  121OSM    H8S12775   2.253   1.507   7.068 -0.1890  2.6823  1.4652
  121OSM    H8T12776   2.109   1.401   7.089  2.8691 -1.0930 -1.5765
  121OSM    C9S12777   2.082   1.619   7.106  0.2613 -0.0610 -0.0079
  121OSM    H9S12778   1.972   1.621   7.087  0.2523  1.3281  0.0667
  121OSM    H9T12779   2.118   1.713   7.060  2.2897 -2.2419 -3.3033
  121OSM   C10S12780   2.093   1.638   7.260  0.3874  0.0953  0.7447
  121OSM   H10S12781   2.025   1.723   7.282 -0.2567 -0.5875  1.4756
  121OSM   H10T12782   2.194   1.660   7.299  0.5988 -0.1375  0.3316
  121OSM   C11S12783   2.039   1.515   7.344  0.5182  0.3140  0.2741
  121OSM   H11S12784   2.110   1.432   7.327  0.9779  0.2025  2.4029
  121OSM   H11T12785   1.944   1.482   7.299  0.9416 -3.6618  1.9041
  121OSM   C12S12786   2.004   1.540   7.489 -0.9667  1.2587 -0.0587
  121OSM   H12S12787   1.918   1.607   7.508 -2.3334 -0.8753  1.8433
  121OSM   H12T12788   2.090   1.581   7.547  0.8384 -2.2025 -0.0001
  121OSM   C13S12789   1.962   1.411   7.566  0.0668 -0.3875  0.3972
  121OSM   H13S12790   2.041   1.334   7.575  1.6127  1.0493 -0.4300
  121OSM   H13T12791   1.876   1.370   7.508  1.3341  0.6415 -2.3770
  121OSM   C14S12792   1.907   1.440   7.711 -0.5299 -0.0198 -0.5753
  121OSM   H14S12793   1.823   1.513   7.707 -0.4405  0.1223 -0.0270
  121OSM   H14T12794   1.985   1.504   7.758 -0.0426 -0.0856 -1.2808
  121OSM   C15S12795   1.881   1.307   7.789  0.8590  0.3286 -0.5563
  121OSM   H15S12796   1.972   1.244   7.801  1.0863  0.8586  0.6395
  121OSM   H15T12797   1.798   1.262   7.731 -0.8005  0.5279  1.5445
  121OSM   C16S12798   1.819   1.325   7.930  0.2895 -0.4809  0.2482
  121OSM   H16S12799   1.731   1.259   7.947 -1.6278  1.3099 -1.9676
  121OSM   H16T12800   1.773   1.426   7.938  0.7578 -0.3933  3.6391
  121OSM   C17S12801   1.918   1.327   8.044  0.6888 -0.9385  0.0419
  121OSM   H17S12802   1.995   1.405   8.025 -0.1141  0.1765  1.2066
  121OSM   H17T12803   1.976   1.232   8.042  0.2791 -1.2066 -2.1821
  121OSM   C18S12804   1.854   1.356   8.184 -0.7188  0.4003  1.1248
  121OSM   H18S12805   1.777   1.436   8.178 -1.3702 -0.2405  0.7882
  121OSM   H18T12806   1.937   1.389   8.251  0.4951  0.6440 -0.4403
  121OSM   H18U12807   1.806   1.265   8.225 -0.6023  0.8483  2.3083
  121OSM    C1F12808   2.405   1.648   6.387  0.4392  0.9461  0.5106
  121OSM     OF12809   2.374   1.761   6.345  0.1420  0.2709  0.2088
  121OSM    C2F12810   2.546   1.616   6.410  0.5554 -0.0740 -0.2298
  121OSM    H2F12811   2.603   1.642   6.319 -0.9642  0.5346 -1.0289
  121OSM    H2G12812   2.566   1.507   6.424  1.5658  0.1350  0.0646
  121OSM    C3F12813   2.594   1.681   6.534 -0.4825  0.8830  0.5760
  121OSM    H3F12814   2.599   1.791   6.522  2.4935  0.7595  0.0229
  121OSM    H3G12815   2.701   1.656   6.550 -0.0713  1.8495 -0.5075
  121OSM    C4F12816   2.527   1.642   6.670  0.2410  0.5256 -0.9868
  121OSM    H4F12817   2.548   1.534   6.690 -0.3385  0.1334 -2.3628
  121OSM    H4G12818   2.417   1.647   6.660  0.2062 -0.4557 -1.3047
  121OSM    C5F12819   2.573   1.723   6.788  0.5922  0.0869  0.0032
  121OSM    H5F12820   2.589   1.829   6.759  1.7336 -0.0677  0.0115
  121OSM    H5G12821   2.671   1.688   6.827  0.3907 -2.1525 -1.3496
  121OSM    C6F12822   2.479   1.718   6.915  0.0180  0.3881 -0.5654
  121OSM    H6F12823   2.497   1.620   6.965  2.3927  1.7575  1.5103
  121OSM    H6G12824   2.372   1.729   6.888 -0.3409  0.5214  0.8789
  121OSM    C7F12825   2.511   1.818   7.021  0.2186 -0.0256 -0.1916
  121OSM    H7F12826   2.495   1.918   6.976  0.4408 -0.4396 -1.2167
  121OSM    H7G12827   2.617   1.819   7.055  0.0368  1.6702  0.4155
  121OSM    C8F12828   2.423   1.801   7.144  0.3537 -0.0196  0.7028
  121OSM    H8F12829   2.435   1.701   7.192  1.1659  0.1759  0.9295
  121OSM    H8G12830   2.319   1.792   7.107  0.1698  1.8669  0.7023
  121OSM    C9F12831   2.445   1.922   7.233 -0.8646 -0.9085  0.8794
  121OSM    H9F12832   2.437   2.021   7.186 -2.3479 -1.0540  0.7508
  121OSM   C10F12833   2.461   1.916   7.364  0.3046 -0.1152  0.2187
  121OSM   H10F12834   2.489   2.006   7.421  1.6776 -1.9470  2.6716
  121OSM   C11F12835   2.465   1.789   7.433 -0.2752 -0.4462 -0.2769
  121OSM   H11F12836   2.526   1.724   7.368  1.6357  3.1861 -2.4286
  121OSM   H11G12837   2.364   1.744   7.433 -0.8202  0.7459 -0.4405
  121OSM   C12F12838   2.508   1.800   7.586  0.5303  0.3619  0.5090
  121OSM   H12F12839   2.604   1.855   7.603 -0.1704  1.5440  0.7596
  121OSM   H12G12840   2.508   1.695   7.621 -3.1611  0.4802  1.2848
  121OSM   C13F12841   2.403   1.880   7.661 -1.3958  0.5205 -0.4660
  121OSM   H13F12842   2.302   1.837   7.652 -0.7356 -1.3519  0.4809
  121OSM   H13G12843   2.399   1.988   7.635 -3.3327  1.3035  2.5603
  121OSM   C14F12844   2.441   1.878   7.813  0.1085 -0.5976  0.2263
  121OSM   H14F12845   2.348   1.898   7.871  0.2351  0.7934 -0.0283
  121OSM   H14G12846   2.507   1.965   7.831 -1.8903  1.1689 -0.4888
  121OSM   C15F12847   2.503   1.756   7.883  0.3309  0.7925 -0.2806
  121OSM   H15F12848   2.594   1.730   7.825  0.1126  0.4086 -0.4551
  121OSM   H15G12849   2.444   1.663   7.872  1.6404  0.0054 -0.9000
  121OSM   C16F12850   2.545   1.788   8.028  0.2963 -0.5385  0.0148
  121OSM   H16F12851   2.445   1.791   8.077 -2.5586 -2.5182 -4.9839
  121OSM   H16G12852   2.594   1.886   8.045 -0.0039 -0.1733 -1.1871
  121OSM   C17F12853   2.639   1.678   8.072 -0.9750  0.4196  0.2919
  121OSM   H17F12854   2.740   1.678   8.027 -0.7701 -0.8159  0.7152
  121OSM   H17G12855   2.589   1.584   8.041  1.1089 -0.3615 -0.9008
  121OSM   C18F12856   2.656   1.670   8.223 -0.4233  0.4654  0.6653
  121OSM   H18F12857   2.694   1.569   8.249 -0.0818 -0.9368 -4.3595
  121OSM   H18G12858   2.566   1.702   8.280 -0.5127  0.9050  0.2795
  121OSM   H18H12859   2.740   1.737   8.253  0.7233 -0.9694  0.7483
  122OSM      N12860   1.816   4.636   5.815  0.0180  0.0536 -0.3741
  122OSM    C1512861   1.948   4.711   5.826 -0.7186  0.3860 -0.0705
  122OSM   H15A12862   2.012   4.643   5.881  0.7104  1.9141  0.2450
  122OSM   H15B12863   1.940   4.811   5.867  0.9313  1.5163 -2.2703
  122OSM   H15C12864   1.994   4.718   5.729  1.1157 -1.4560  0.5950
  122OSM    C1412865   1.710   4.739   5.773  0.1392  0.0801  0.5641
  122OSM   H14A12866   1.724   4.828   5.833  1.0027  0.9865 -0.9445
  122OSM   H14B12867   1.613   4.696   5.797  0.0591  0.2985  0.6297
  122OSM   H14C12868   1.722   4.764   5.669 -1.2691  0.7237  0.5395
  122OSM    C1312869   1.814   4.528   5.715  0.1015 -0.0800  0.2499
  122OSM   H13A12870   1.809   4.562   5.613 -0.2167  1.0050  0.6167
  122OSM   H13B12871   1.734   4.459   5.739  1.7243 -2.3721 -0.5835
  122OSM   H13C12872   1.905   4.470   5.717  0.8649  1.0401 -0.6681
  122OSM    C1212873   1.792   4.578   5.954 -0.0148  0.1160 -0.2875
  122OSM   H12A12874   1.805   4.663   6.020  0.4562  0.4170 -0.7604
  122OSM   H12B12875   1.875   4.510   5.967 -1.0444 -1.0617  0.4224
  122OSM    C1112876   1.660   4.508   6.002 -0.6207  0.1245  0.6878
  122OSM   H11A12877   1.572   4.571   5.976  1.2596  1.1590 -4.6437
  122OSM   H11B12878   1.654   4.491   6.111 -1.0118  2.0637  0.9957
  122OSM      P12879   1.729   4.255   5.992 -0.0421  0.2530 -0.0090
  122OSM    O1312880   1.678   4.127   5.938  0.1529 -0.1808 -0.0262
  122OSM    O1412881   1.873   4.287   5.975  0.6271  0.4617 -0.4253
  122OSM    O1112882   1.692   4.258   6.147 -0.6696 -0.1288 -0.6192
  122OSM    O1212883   1.652   4.386   5.930  0.6527 -0.3538 -0.1161
  122OSM    C1S12884   1.554   4.246   6.190 -0.5781  0.6640  0.1025
  122OSM    H1S12885   1.515   4.149   6.153  2.5301  0.1851 -2.2966
  122OSM    H1T12886   1.485   4.319   6.141  0.3199  1.5133  0.0614
  122OSM     NF12887   1.402   4.280   6.391 -0.4810  0.2256 -0.0386
  122OSM    HNF12888   1.372   4.370   6.422 -0.7962 -0.0778  0.5594
  122OSM    C2S12889   1.540   4.264   6.353 -0.0049 -0.3994  0.7718
  122OSM    H2S12890   1.587   4.176   6.402  0.1518 -1.0453 -0.4860
  122OSM    C3S12891   1.618   4.388   6.396  1.1825  0.5910  0.2095
  122OSM    H3S12892   1.567   4.478   6.355  0.5156  0.9134  1.6702
  122OSM     O312893   1.756   4.398   6.356 -0.4758 -0.4209 -0.0932
  122OSM    HO312894   1.771   4.327   6.293 -0.4363 -0.3869 -0.1213
  122OSM    C4S12895   1.622   4.386   6.549  0.7012 -0.4210 -0.2998
  122OSM    H4S12896   1.622   4.288   6.599 -0.1326 -0.2223  0.1071
  122OSM    C5S12897   1.604   4.496   6.622  0.0051 -0.2104 -0.0010
  122OSM    H5S12898   1.632   4.590   6.571  1.7551 -0.4600  0.4219
  122OSM    C6S12899   1.587   4.509   6.765  0.0300 -0.1868 -0.2664
  122OSM    H6S12900   1.540   4.608   6.784  2.6016  1.5577 -2.2391
  122OSM    H6T12901   1.684   4.520   6.818  0.0378 -0.9789 -0.1079
  122OSM    C7S12902   1.510   4.394   6.840 -0.2891 -0.4000  0.7504
  122OSM    H7S12903   1.557   4.294   6.826  0.0229 -0.1860  0.2104
  122OSM    H7T12904   1.406   4.387   6.802  0.7889 -4.1498 -2.1213
  122OSM    C8S12905   1.519   4.416   6.989  0.2537  0.0075  0.7197
  122OSM    H8S12906   1.505   4.526   7.002 -2.1962 -0.1895  0.2802
  122OSM    H8T12907   1.620   4.400   7.033  0.3388  0.0217  0.5308
  122OSM    C9S12908   1.412   4.335   7.065  0.5933  0.4642 -0.4100
  122OSM    H9S12909   1.436   4.228   7.080 -2.7450 -0.4763 -0.9428
  122OSM    H9T12910   1.318   4.339   7.006 -0.6206  2.0999  1.4788
  122OSM   C10S12911   1.385   4.396   7.198  0.1845 -1.0776 -0.3294
  122OSM   H10S12912   1.291   4.351   7.237 -0.5710  1.4046  0.9375
  122OSM   H10T12913   1.353   4.502   7.190  1.9255 -0.5707 -1.1563
  122OSM   C11S12914   1.491   4.375   7.302 -0.3224  0.2652  0.1844
  122OSM   H11S12915   1.586   4.433   7.301  1.1613 -2.0559 -0.1425
  122OSM   H11T12916   1.525   4.275   7.268 -0.7131  0.1399  0.1586
  122OSM   C12S12917   1.439   4.369   7.447  0.0240  0.1667 -0.5751
  122OSM   H12S12918   1.353   4.299   7.456 -0.0927  0.4259  0.4371
  122OSM   H12T12919   1.401   4.470   7.475  0.6156 -0.2779  2.1345
  122OSM   C13S12920   1.539   4.324   7.552  0.0172 -0.3271  0.0772
  122OSM   H13S12921   1.636   4.379   7.548 -0.4696  0.5473 -0.0297
  122OSM   H13T12922   1.570   4.220   7.529 -0.1478 -0.2438 -0.5264
  122OSM   C14S12923   1.484   4.342   7.701 -0.6050 -0.1961  0.3183
  122OSM   H14S12924   1.398   4.271   7.698  0.8541 -1.9901 -1.1467
  122OSM   H14T12925   1.474   4.453   7.712  3.1343  0.1237  1.6550
  122OSM   C15S12926   1.580   4.305   7.822  0.4348  0.0496 -0.1801
  122OSM   H15S12927   1.654   4.384   7.849  0.9197 -1.2252  2.5516
  122OSM   H15T12928   1.638   4.214   7.797 -0.9553 -1.0392  0.4826
  122OSM   C16S12929   1.496   4.264   7.944 -0.6155  0.3815  0.3045
  122OSM   H16S12930   1.420   4.183   7.936 -0.8067  0.6485 -0.8256
  122OSM   H16T12931   1.438   4.351   7.983 -1.9076 -0.3609  0.1098
  122OSM   C17S12932   1.589   4.227   8.060  1.3365  0.0392 -0.6414
  122OSM   H17S12933   1.673   4.297   8.081  2.8130 -2.1992  1.3979
  122OSM   H17T12934   1.641   4.132   8.037  0.7989 -0.7819  1.3260
  122OSM   C18S12935   1.506   4.215   8.192 -0.8145 -0.3563  0.0450
  122OSM   H18S12936   1.414   4.155   8.175 -0.7608 -0.2407 -0.7109
  122OSM   H18T12937   1.472   4.316   8.224  0.0551  1.2406 -3.4426
  122OSM   H18U12938   1.575   4.171   8.267 -0.3326 -0.8553 -0.6695
  122OSM    C1F12939   1.318   4.179   6.383  0.2495 -0.2166  0.4814
  122OSM     OF12940   1.353   4.077   6.328 -0.1310 -0.2346  0.5509
  122OSM    C2F12941   1.180   4.203   6.427  0.3345  0.2045 -0.8312
  122OSM    H2F12942   1.122   4.212   6.333 -1.7573  1.2370  0.4975
  122OSM    H2G12943   1.179   4.298   6.484  2.5721  0.0873 -0.5025
  122OSM    C3F12944   1.112   4.082   6.506  0.0076 -0.1902 -0.3733
  122OSM    H3F12945   1.130   3.988   6.449  0.1225  0.5642 -1.5966
  122OSM    H3G12946   1.002   4.075   6.509 -0.2311  2.6286 -0.0468
  122OSM    C4F12947   1.173   4.066   6.651 -0.7000 -0.0920  0.4759
  122OSM    H4F12948   1.279   4.096   6.638 -1.0845  0.9284 -0.5094
  122OSM    H4G12949   1.157   3.969   6.702 -2.4919  0.1520  0.4615
  122OSM    C5F12950   1.120   4.174   6.747  1.2604 -0.2676 -1.3352
  122OSM    H5F12951   1.019   4.202   6.711  0.0855 -2.4851 -0.0286
  122OSM    H5G12952   1.177   4.268   6.737 -0.8706  0.9902 -2.3766
  122OSM    C6F12953   1.128   4.136   6.893  0.0988  0.0467 -0.0319
  122OSM    H6F12954   1.232   4.113   6.924 -0.3108 -0.8730  0.7223
  122OSM    H6G12955   1.073   4.040   6.902  1.3010 -0.5328  1.6615
  122OSM    C7F12956   1.058   4.231   6.994  0.5839  0.0843  0.0781
  122OSM    H7F12957   0.969   4.281   6.950  0.2166  0.0967  0.8134
  122OSM    H7G12958   1.124   4.318   7.014  0.9297 -0.7920  3.3331
  122OSM    C8F12959   1.039   4.172   7.135 -0.1837 -1.2580 -0.4146
  122OSM    H8F12960   1.136   4.145   7.182  0.3328 -0.7411 -1.1513
  122OSM    H8G12961   0.972   4.084   7.145  1.6761 -2.5290  2.1270
  122OSM    C9F12962   0.962   4.277   7.216  0.5024 -0.2330 -0.9414
  122OSM    H9F12963   0.887   4.325   7.152  0.3523 -1.2228 -1.5188
  122OSM   C10F12964   0.982   4.311   7.343  0.3187  0.3264 -0.0966
  122OSM   H10F12965   0.905   4.378   7.384 -0.6026 -1.6660  1.6862
  122OSM   C11F12966   1.084   4.271   7.438 -0.4689 -0.0438  0.4687
  122OSM   H11F12967   1.151   4.360   7.439  2.1982 -1.7325 -3.3580
  122OSM   H11G12968   1.149   4.192   7.395  0.4104 -0.1217  1.8601
  122OSM   C12F12969   1.059   4.231   7.590  0.0643  0.0763 -0.0515
  122OSM   H12F12970   1.151   4.190   7.636 -0.9797 -2.4665 -0.0664
  122OSM   H12G12971   0.975   4.158   7.582 -1.0014  1.4209 -1.7261
  122OSM   C13F12972   1.014   4.360   7.670  0.7855  0.1731 -0.2080
  122OSM   H13F12973   0.909   4.388   7.643 -0.2326 -1.5137  1.7163
  122OSM   H13G12974   1.083   4.442   7.642 -0.3569  1.3206  0.2644
  122OSM   C14F12975   1.038   4.344   7.821  0.2371  0.6485  0.1110
  122OSM   H14F12976   1.148   4.336   7.834  0.2802  1.4031  0.2879
  122OSM   H14G12977   0.984   4.254   7.856 -1.7826  1.0832 -1.6677
  122OSM   C15F12978   0.979   4.463   7.904 -0.0506  0.0371  0.5288
  122OSM   H15F12979   0.870   4.470   7.885  0.3784 -0.8383 -3.0934
  122OSM   H15G12980   1.022   4.563   7.880  0.7498 -0.4900 -0.2847
  122OSM   C16F12981   1.008   4.438   8.050  0.2704  0.0219  0.6229
  122OSM   H16F12982   1.119   4.435   8.061  0.4737 -1.6786 -1.3302
  122OSM   H16G12983   0.979   4.337   8.087  0.3182 -0.0186  0.5519
  122OSM   C17F12984   0.960   4.548   8.151 -0.1440 -0.1495 -0.0681
  122OSM   H17F12985   0.853   4.567   8.130 -0.6559  0.7040  2.9304
  122OSM   H17G12986   1.012   4.641   8.119 -0.2576  0.0307  0.2711
  122OSM   C18F12987   0.990   4.517   8.296  0.6527  0.0858  0.5677
  122OSM   H18F12988   0.910   4.568   8.354 -0.9608 -1.2923 -0.3420
  122OSM   H18G12989   1.093   4.526   8.335  0.8825  1.0831 -0.2143
  122OSM   H18H12990   0.971   4.410   8.318  1.4859 -0.6050 -1.7873
  123OSM      N12991   4.538   5.732   6.339  0.3668 -0.4785  0.9223
  123OSM    C1512992   4.526   5.603   6.258 -0.2461 -0.0802  0.4191
  123OSM   H15A12993   4.424   5.574   6.238 -0.4430  0.8135  0.0789
  123OSM   H15B12994   4.579   5.525   6.310  1.5103 -0.9789 -2.4955
  123OSM   H15C12995   4.582   5.611   6.166 -0.3742 -0.2854  0.3216
  123OSM    C1412996   4.676   5.780   6.319  0.8029  0.1555  0.9089
  123OSM   H14A12997   4.698   5.802   6.216 -2.8192  0.4993  0.0743
  123OSM   H14B12998   4.748   5.702   6.340  0.5184 -0.2268  0.4871
  123OSM   H14C12999   4.694   5.858   6.392  0.3540 -0.6895  1.9520
  123OSM    C1313000   4.449   5.838   6.286  0.0812 -0.0217  0.3663
  123OSM   H13A13001   4.457   5.925   6.348  3.3220  0.7379 -0.9191
  123OSM   H13B13002   4.346   5.806   6.292 -0.0379  0.4028  0.5811
  123OSM   H13C13003   4.472   5.876   6.187  0.8147  1.2102  0.9881
  123OSM    C1213004   4.498   5.705   6.490 -0.4089 -0.5072 -0.5042
  123OSM   H12A13005   4.392   5.686   6.495 -0.5589  0.0508 -1.2890
  123OSM   H12B13006   4.505   5.799   6.542  1.0595 -0.4948 -0.6787
  123OSM    C1113007   4.576   5.601   6.563 -0.5699  0.1620 -0.2294
  123OSM   H11A13008   4.559   5.607   6.672  0.9859  0.2861  0.0340
  123OSM   H11B13009   4.685   5.624   6.555 -0.7669  0.7961 -1.3078
  123OSM      P13010   4.420   5.387   6.526  0.2195 -0.1705 -0.2980
  123OSM    O1313011   4.299   5.474   6.509 -0.3190  0.2302  0.2007
  123OSM    O1413012   4.430   5.272   6.434  0.1636  0.0537 -0.3124
  123OSM    O1113013   4.427   5.351   6.677 -0.0420 -0.0784 -0.1623
  123OSM    O1213014   4.552   5.470   6.507 -0.8935 -0.0224  0.3099
  123OSM    C1S13015   4.539   5.330   6.760  0.2241 -0.1002  0.6010
  123OSM    H1S13016   4.632   5.371   6.715 -0.1035 -0.5411 -0.4948
  123OSM    H1T13017   4.552   5.219   6.752 -0.5081 -0.1401 -0.0938
  123OSM     NF13018   4.650   5.355   6.972 -0.3594  0.3034 -0.3208
  123OSM    HNF13019   4.653   5.284   7.043  2.2317  1.8115  1.2754
  123OSM    C2S13020   4.524   5.381   6.905 -0.2585 -0.6604 -0.0806
  123OSM    H2S13021   4.506   5.490   6.914 -0.3210 -0.7744  1.3861
  123OSM    C3S13022   4.400   5.313   6.972 -0.2417  1.3922  0.0463
  123OSM    H3S13023   4.422   5.204   6.974  0.2204  1.4919  0.4588
  123OSM     O313024   4.279   5.333   6.893 -0.6238  0.6799 -0.0820
  123OSM    HO313025   4.313   5.338   6.803  3.9973 -2.3359  1.1570
  123OSM    C4S13026   4.374   5.358   7.114  0.6515  0.2348 -0.2870
  123OSM    H4S13027   4.376   5.276   7.188  3.1853 -0.1707 -0.7224
  123OSM    C5S13028   4.321   5.476   7.149 -0.4807 -0.4746 -0.2095
  123OSM    H5S13029   4.285   5.538   7.065 -0.5038 -1.4308 -0.9181
  123OSM    C6S13030   4.282   5.534   7.289 -0.1774 -0.0445 -0.2202
  123OSM    H6S13031   4.173   5.556   7.297  0.3234  2.0102  2.3465
  123OSM    H6T13032   4.326   5.635   7.301 -1.3250  0.1651  3.6152
  123OSM    C7S13033   4.306   5.455   7.414 -0.0015 -0.3132 -0.5788
  123OSM    H7S13034   4.414   5.433   7.427  0.3753  0.2071 -2.5149
  123OSM    H7T13035   4.252   5.358   7.412 -1.1340  0.3123 -0.9334
  123OSM    C8S13036   4.249   5.528   7.541  0.5361  0.0136  0.2732
  123OSM    H8S13037   4.142   5.559   7.532  0.3488 -0.5957  0.3391
  123OSM    H8T13038   4.304   5.624   7.554  0.6714  0.0280 -0.3567
  123OSM    C9S13039   4.266   5.448   7.670 -0.0974  0.1607 -0.7657
  123OSM    H9S13040   4.371   5.411   7.668  1.1857  3.4830 -1.3053
  123OSM    H9T13041   4.192   5.365   7.663  0.0731 -0.0189 -0.4510
  123OSM   C10S13042   4.262   5.526   7.801  0.1349 -0.5100 -0.4644
  123OSM   H10S13043   4.154   5.535   7.825  0.1380 -1.8153  0.0902
  123OSM   H10T13044   4.318   5.622   7.805 -0.1769 -0.3724  1.6704
  123OSM   C11S13045   4.321   5.434   7.917 -0.6236 -0.1156 -0.0578
  123OSM   H11S13046   4.423   5.458   7.955  0.2216 -2.5536 -0.6389
  123OSM   H11T13047   4.335   5.331   7.877  3.7477 -0.0458  0.7911
  123OSM   C12S13048   4.229   5.420   8.039  0.1374  0.4426  0.7433
  123OSM   H12S13049   4.132   5.379   8.004 -0.0732  0.5329  1.2142
  123OSM   H12T13050   4.227   5.518   8.090  1.2181  0.1018  1.4863
  123OSM   C13S13051   4.270   5.318   8.138  0.1143 -0.3769 -0.5607
  123OSM   H13S13052   4.365   5.344   8.190  1.7302 -1.6011 -2.7511
  123OSM   H13T13053   4.304   5.227   8.084  1.3904 -0.1077 -0.2534
  123OSM   C14S13054   4.151   5.279   8.231  0.5654 -0.4217  0.4196
  123OSM   H14S13055   4.172   5.186   8.289 -0.7193  0.0356  1.6538
  123OSM   H14T13056   4.061   5.267   8.167  0.4230 -2.6484  0.9419
  123OSM   C15S13057   4.108   5.387   8.332 -0.3732  0.2988 -0.3179
  123OSM   H15S13058   4.104   5.487   8.283  0.0851  1.2185  1.4407
  123OSM   H15T13059   4.184   5.395   8.414  1.3514  3.6076 -2.0328
  123OSM   C16S13060   3.966   5.363   8.378 -0.5728  0.0956  0.5900
  123OSM   H16S13061   3.961   5.270   8.438 -0.6580  0.3239  0.9365
  123OSM   H16T13062   3.894   5.358   8.293 -0.8050 -0.9641  0.8294
  123OSM   C17S13063   3.913   5.469   8.468 -0.0146  0.2268  0.2503
  123OSM   H17S13064   3.920   5.570   8.421 -0.2749  0.6248  1.0438
  123OSM   H17T13065   3.970   5.488   8.561  0.3528 -1.8839  0.5013
  123OSM   C18S13066   3.762   5.459   8.484  0.7419 -0.1869  0.4321
  123OSM   H18S13067   3.714   5.543   8.540 -0.6070 -0.4449 -0.2879
  123OSM   H18T13068   3.740   5.368   8.544 -1.3512 -1.9995 -2.7754
  123OSM   H18U13069   3.711   5.454   8.385  1.4203 -1.5210  0.1413
  123OSM    C1F13070   4.761   5.428   6.954  0.3410  0.0816  0.6496
  123OSM     OF13071   4.765   5.509   6.861 -0.1962 -0.7216 -0.1277
  123OSM    C2F13072   4.875   5.405   7.051  0.4739  0.4450  0.8923
  123OSM    H2F13073   4.971   5.423   6.999  0.3039  0.9138  0.7373
  123OSM    H2G13074   4.872   5.294   7.062  1.7729  0.1241 -1.3879
  123OSM    C3F13075   4.865   5.476   7.185  0.5414  0.0729 -0.4538
  123OSM    H3F13076   4.933   5.423   7.255  0.9986 -0.3041 -1.1673
  123OSM    H3G13077   4.761   5.461   7.221  0.7927  1.9461  1.1352
  123OSM    C4F13078   4.898   5.626   7.176 -0.2537  0.3481 -0.2296
  123OSM    H4F13079   4.806   5.681   7.146 -0.2129 -0.3003 -1.6155
  123OSM    H4G13080   4.967   5.648   7.092 -0.6769  1.0839 -0.3907
  123OSM    C5F13081   4.940   5.671   7.318 -0.5214 -0.2997  0.2218
  123OSM    H5F13082   5.021   5.608   7.361 -1.7712 -1.6530  0.6647
  123OSM    H5G13083   4.850   5.656   7.381 -1.6039  1.4551 -0.8289
  123OSM    C6F13084   4.961   5.821   7.328 -0.3418 -0.2495 -0.6557
  123OSM    H6F13085   4.879   5.876   7.276  1.1691  0.8066 -2.0260
  123OSM    H6G13086   5.063   5.844   7.289 -1.2114  0.2436 -2.7717
  123OSM    C7F13087   4.965   5.873   7.476 -0.0888  0.3541  0.7690
  123OSM    H7F13088   5.028   5.965   7.478  1.0129 -0.3411 -0.3605
  123OSM    H7G13089   5.025   5.804   7.539  0.2100  0.7442  0.9134
  123OSM    C8F13090   4.833   5.911   7.539 -0.1665 -0.1390 -0.2528
  123OSM    H8F13091   4.784   5.975   7.462  0.9409 -0.3693 -1.1677
  123OSM    H8G13092   4.849   5.971   7.631 -0.1215 -0.3986 -0.0904
  123OSM    C9F13093   4.765   5.784   7.580 -0.3358 -0.5879  0.6320
  123OSM    H9F13094   4.687   5.749   7.510  0.6594 -0.6329 -0.4745
  123OSM   C10F13095   4.749   5.726   7.698 -0.3327  0.3106 -0.5505
  123OSM   H10F13096   4.674   5.646   7.710 -0.9046  0.6474 -1.7743
  123OSM   C11F13097   4.802   5.782   7.825 -0.2896 -0.4824  0.0440
  123OSM   H11F13098   4.874   5.865   7.813 -0.2982 -0.1375  2.1382
  123OSM   H11G13099   4.852   5.700   7.880 -0.2276 -0.7879 -0.4570
  123OSM   C12F13100   4.687   5.818   7.928  0.5189 -0.2896  0.3418
  123OSM   H12F13101   4.620   5.730   7.939 -1.7127  1.1804 -0.8874
  123OSM   H12G13102   4.624   5.898   7.885 -0.2976  0.2053  2.3620
  123OSM   C13F13103   4.748   5.859   8.058 -0.4329 -0.2608 -0.6017
  123OSM   H13F13104   4.796   5.958   8.044  1.6545 -1.3412 -1.7282
  123OSM   H13G13105   4.826   5.784   8.085 -2.3069 -1.5460  1.5787
  123OSM   C14F13106   4.640   5.875   8.162 -0.8985  0.1947 -0.1492
  123OSM   H14F13107   4.565   5.947   8.124 -0.1258 -0.2520 -2.6636
  123OSM   H14G13108   4.681   5.928   8.250  0.1671 -0.2922 -0.3337
  123OSM   C15F13109   4.569   5.747   8.213  0.0492  0.6045 -0.3779
  123OSM   H15F13110   4.638   5.660   8.218  0.1846  0.5917 -1.8031
  123OSM   H15G13111   4.500   5.719   8.130  0.9072 -0.7082 -0.6852
  123OSM   C16F13112   4.479   5.777   8.332 -0.1690  0.0088 -0.5231
  123OSM   H16F13113   4.427   5.873   8.310 -1.9472 -0.8025 -0.0216
  123OSM   H16G13114   4.547   5.787   8.419 -0.6471  0.2767 -0.1774
  123OSM   C17F13115   4.378   5.665   8.368 -0.0745 -0.7209 -0.1023
  123OSM   H17F13116   4.423   5.564   8.355 -0.8455 -1.0314 -0.3948
  123OSM   H17G13117   4.288   5.680   8.304  0.5102 -1.2659 -1.0891
  123OSM   C18F13118   4.345   5.690   8.519  0.2998  0.0744 -0.9436
  123OSM   H18F13119   4.310   5.793   8.539  0.5740  0.0543 -0.3524
  123OSM   H18G13120   4.429   5.670   8.589 -1.1621 -0.3728  0.7397
  123OSM   H18H13121   4.267   5.616   8.545  1.1585  0.1870  2.3716
  124OSM      N13122   0.666   1.195   6.328  0.5127  0.2125 -0.0332
  124OSM    C1513123   0.562   1.294   6.386  0.4692  0.2526  0.9906
  124OSM   H15A13124   0.463   1.256   6.405  0.2311  0.8682  1.0030
  124OSM   H15B13125   0.540   1.376   6.319 -0.3299 -0.6578  0.1151
  124OSM   H15C13126   0.600   1.337   6.478  0.3494  0.9354  0.7296
  124OSM    C1413127   0.792   1.274   6.311 -0.4260  0.3371  0.2940
  124OSM   H14A13128   0.826   1.318   6.404  0.8962 -2.6205  1.3245
  124OSM   H14B13129   0.761   1.356   6.248 -1.1971 -1.1927 -1.4064
  124OSM   H14C13130   0.869   1.223   6.256 -1.5638  0.0840 -1.1124
  124OSM    C1313131   0.679   1.078   6.415  0.4176  0.3847 -0.5814
  124OSM   H13A13132   0.687   1.096   6.521  0.4611 -0.5256 -0.4209
  124OSM   H13B13133   0.768   1.024   6.387  0.4129 -0.3303  0.6889
  124OSM   H13C13134   0.597   1.010   6.396 -1.1855  1.9490  0.4376
  124OSM    C1213135   0.619   1.155   6.188 -0.5642  0.0400  0.5333
  124OSM   H12A13136   0.690   1.083   6.148 -0.8040 -0.4543  0.9900
  124OSM   H12B13137   0.630   1.244   6.127  0.5763 -0.5950 -0.2447
  124OSM    C1113138   0.488   1.087   6.169  0.1602 -0.0587  0.3257
  124OSM   H11A13139   0.475   1.067   6.060 -2.1687  1.6059  0.2133
  124OSM   H11B13140   0.408   1.160   6.193 -0.2823 -0.4453  0.0304
  124OSM      P13141   0.328   0.903   6.224  0.6235  0.1096 -0.4543
  124OSM    O1313142   0.311   0.858   6.086  0.1661 -0.0016  0.2899
  124OSM    O1413143   0.300   0.799   6.327  0.1542  0.0721  0.0193
  124OSM    O1113144   0.221   1.020   6.244  0.0339  0.8177 -0.0083
  124OSM    O1213145   0.468   0.972   6.245  0.0969  0.3755  0.7939
  124OSM    C1S13146   0.125   1.006   6.353 -0.1118 -0.1199  0.6068
  124OSM    H1S13147   0.083   0.904   6.361  0.8592 -0.4578  1.5184
  124OSM    H1T13148   0.039   1.070   6.322 -1.4119 -3.2158 -2.7722
  124OSM     NF13149   0.046   1.041   6.588  0.1822  0.0275 -0.2475
  124OSM    HNF13150  -0.007   1.117   6.626 -0.1726 -0.2334 -0.2225
  124OSM    C2S13151   0.155   1.073   6.500  0.1340  0.6746  0.9028
  124OSM    H2S13152   0.248   1.028   6.542  0.4660 -1.2744 -1.6959
  124OSM    C3S13153   0.174   1.221   6.492  0.1308  0.4349  0.1973
  124OSM    H3S13154   0.082   1.268   6.453  0.5218 -0.2436 -1.6192
  124OSM     O313155   0.257   1.252   6.380 -0.4931  0.0839 -0.3911
  124OSM    HO313156   0.253   1.176   6.321  2.5768 -2.2962  2.1707
  124OSM    C4S13157   0.211   1.278   6.626  0.2674 -0.0030 -0.0333
  124OSM    H4S13158   0.317   1.258   6.647  0.2554 -0.1140 -0.0789
  124OSM    C5S13159   0.138   1.347   6.712  0.2521 -0.2015  0.0094
  124OSM    H5S13160   0.036   1.381   6.691 -0.1569 -0.3139  1.6541
  124OSM    C6S13161   0.198   1.395   6.842  0.6901 -0.8031  0.3404
  124OSM    H6S13162   0.194   1.506   6.842  2.3709 -0.7132  0.4013
  124OSM    H6T13163   0.304   1.366   6.858  0.5996 -0.3662  1.8848
  124OSM    C7S13164   0.101   1.351   6.957 -0.0452  0.1515 -0.3986
  124OSM    H7S13165   0.046   1.257   6.938  0.7638  0.0192 -2.2706
  124OSM    H7T13166   0.042   1.441   6.985 -0.1928  0.7157 -2.3767
  124OSM    C8S13167   0.179   1.342   7.092  0.5614 -0.1857 -0.5445
  124OSM    H8S13168   0.249   1.256   7.090  2.3367  1.0913  1.5847
  124OSM    H8T13169   0.105   1.328   7.173 -0.3901 -0.7960 -1.5043
  124OSM    C9S13170   0.271   1.463   7.121  0.0450 -0.6696 -0.1950
  124OSM    H9S13171   0.228   1.563   7.097 -0.5918 -0.9867 -0.4117
  124OSM    H9T13172   0.357   1.454   7.053  0.3952 -2.6257  0.4475
  124OSM   C10S13173   0.308   1.469   7.273  0.8204  0.3027  0.0488
  124OSM   H10S13174   0.414   1.498   7.289  1.2317 -0.7277 -0.7189
  124OSM   H10T13175   0.309   1.362   7.306 -0.3749  0.2787  0.0561
  124OSM   C11S13176   0.203   1.550   7.351 -0.0023 -0.4178  0.0162
  124OSM   H11S13177   0.108   1.494   7.336  0.1610 -0.1768 -2.3345
  124OSM   H11T13178   0.187   1.649   7.303 -2.1818 -0.3371  0.8111
  124OSM   C12S13179   0.240   1.559   7.496 -0.1129  0.0725 -0.6121
  124OSM   H12S13180   0.289   1.461   7.517 -3.0209 -1.3276  0.1017
  124OSM   H12T13181   0.158   1.572   7.569 -0.2489  0.7632 -0.8789
  124OSM   C13S13182   0.344   1.671   7.522 -0.2214  0.2978 -0.5593
  124OSM   H13S13183   0.280   1.757   7.491 -0.6961 -0.0584 -0.5819
  124OSM   H13T13184   0.435   1.659   7.460  1.0187 -0.9100  1.4125
  124OSM   C14S13185   0.414   1.680   7.659  0.4253 -0.3131 -0.2245
  124OSM   H14S13186   0.473   1.773   7.663 -0.9915  0.5902  2.0656
  124OSM   H14T13187   0.477   1.592   7.684  3.3604  1.0727 -2.2263
  124OSM   C15S13188   0.312   1.703   7.769 -0.0002 -0.0383  0.3699
  124OSM   H15S13189   0.240   1.618   7.771  0.3077 -0.2889  1.5222
  124OSM   H15T13190   0.260   1.796   7.736 -0.2824  1.0374  3.4900
  124OSM   C16S13191   0.392   1.732   7.904  0.0579 -0.4475 -0.0892
  124OSM   H16S13192   0.316   1.765   7.978 -1.6376  0.2948 -2.0826
  124OSM   H16T13193   0.455   1.822   7.888 -0.8076  0.1224 -0.3257
  124OSM   C17S13194   0.492   1.621   7.956 -0.1978 -1.0710  0.6801
  124OSM   H17S13195   0.556   1.587   7.872 -1.4784  1.5837 -1.5369
  124OSM   H17T13196   0.441   1.534   8.002 -0.6957 -0.2110  1.8257
  124OSM   C18S13197   0.597   1.678   8.055  0.1175 -0.2682 -0.7602
  124OSM   H18S13198   0.661   1.755   8.008  1.1418  0.8565  2.1960
  124OSM   H18T13199   0.670   1.600   8.088  0.8027  1.0287  0.9199
  124OSM   H18U13200   0.551   1.731   8.141 -0.3404  0.8965 -1.7066
  124OSM    C1F13201   0.013   0.923   6.642 -0.2899 -0.3650  1.3519
  124OSM     OF13202   0.082   0.822   6.618  1.2038 -0.4293 -0.4619
  124OSM    C2F13203  -0.108   0.917   6.731  0.1465 -0.5379 -0.1794
  124OSM    H2F13204  -0.185   0.852   6.684 -0.6754  0.1386  0.2025
  124OSM    H2G13205  -0.150   1.019   6.738  1.8326  0.0873  1.9179
  124OSM    C3F13206  -0.069   0.873   6.879  0.1614 -0.6574  0.0758
  124OSM    H3F13207  -0.032   0.958   6.941  2.3995 -1.4095 -0.1584
  124OSM    H3G13208   0.019   0.806   6.874 -0.9525 -2.0761 -2.1698
  124OSM    C4F13209  -0.174   0.783   6.948 -0.6943 -0.3833  0.1346
  124OSM    H4F13210  -0.210   0.713   6.870 -3.8082  0.6679  0.4862
  124OSM    H4G13211  -0.261   0.851   6.962 -0.9098 -0.5743 -0.2740
  124OSM    C5F13212  -0.123   0.722   7.072 -0.4401  0.8155  0.0597
  124OSM    H5F13213  -0.202   0.673   7.132  1.7231 -0.9253  1.6434
  124OSM    H5G13214  -0.077   0.795   7.141  3.5753 -0.1778 -1.3238
  124OSM    C6F13215  -0.018   0.610   7.052 -0.5177 -0.2952 -0.0713
  124OSM    H6F13216   0.064   0.645   6.986  1.4364  0.1464  2.4378
  124OSM    H6G13217  -0.079   0.532   7.000 -1.5892  0.7398 -0.4087
  124OSM    C7F13218   0.050   0.554   7.177  0.5138  0.7327 -0.2698
  124OSM    H7F13219   0.049   0.443   7.168 -2.1420  0.5384  1.3446
  124OSM    H7G13220  -0.014   0.564   7.268 -1.8881 -2.4125 -1.3993
  124OSM    C8F13221   0.191   0.598   7.207  0.3697 -0.0532  0.5903
  124OSM    H8F13222   0.177   0.704   7.238 -2.0190 -0.4780  1.1598
  124OSM    H8G13223   0.239   0.582   7.108  0.5160  0.1154  0.6329
  124OSM    C9F13224   0.272   0.515   7.303 -0.1979  0.0592  0.6154
  124OSM    H9F13225   0.335   0.445   7.246 -1.3199  0.5071 -1.2421
  124OSM   C10F13226   0.266   0.516   7.438  1.0821 -0.0117 -0.0479
  124OSM   H10F13227   0.326   0.448   7.501  1.2351  0.0368 -0.1424
  124OSM   C11F13228   0.167   0.599   7.515  0.0230 -0.0563 -0.5545
  124OSM   H11F13229   0.102   0.523   7.562  2.4628 -2.0701 -0.1945
  124OSM   H11G13230   0.113   0.673   7.453 -0.5440  1.4961  1.6673
  124OSM   C12F13231   0.245   0.662   7.633 -0.0110  0.1518 -0.7141
  124OSM   H12F13232   0.295   0.750   7.587  2.0737 -1.0357 -0.8302
  124OSM   H12G13233   0.315   0.592   7.683 -0.3838  1.3369  1.5914
  124OSM   C13F13234   0.141   0.709   7.740 -0.2926 -0.6170  0.2200
  124OSM   H13F13235   0.102   0.628   7.804 -0.9435 -0.6806 -0.2463
  124OSM   H13G13236   0.056   0.756   7.686  1.4319 -0.3880 -2.5283
  124OSM   C14F13237   0.203   0.808   7.843  0.2461 -0.1536 -0.0860
  124OSM   H14F13238   0.261   0.892   7.800  0.8959  0.3176  1.6605
  124OSM   H14G13239   0.278   0.756   7.907 -0.4102 -0.3787  0.5191
  124OSM   C15F13240   0.089   0.858   7.936  0.4673  0.0827  1.1617
  124OSM   H15F13241   0.044   0.761   7.965 -1.8134  0.0752 -1.8983
  124OSM   H15G13242   0.017   0.916   7.875  1.2194  1.4118  1.4949
  124OSM   C16F13243   0.130   0.952   8.047 -0.4354  0.2261 -0.9776
  124OSM   H16F13244   0.047   0.984   8.113 -1.3555  0.5272 -2.2660
  124OSM   H16G13245   0.170   1.047   8.006  0.1636  1.7148  2.6628
  124OSM   C17F13246   0.243   0.894   8.137 -0.5877  0.3124  0.4364
  124OSM   H17F13247   0.279   0.972   8.208 -0.6109  1.4414 -0.7610
  124OSM   H17G13248   0.338   0.873   8.083 -0.6159  2.8346 -0.7305
  124OSM   C18F13249   0.196   0.768   8.207  0.6327  0.9144 -0.3345
  124OSM   H18F13250   0.174   0.693   8.128  0.0905  1.3343 -0.5900
  124OSM   H18G13251   0.099   0.786   8.258  1.0480  0.5374  0.6034
  124OSM   H18H13252   0.274   0.733   8.277 -0.5944  0.9364  1.0924
  125OSM      N13253   2.202   0.615   5.784 -0.4267 -0.2265  0.8214
  125OSM    C1513254   2.311   0.713   5.770 -0.5796  0.7844  0.0165
  125OSM   H15A13255   2.393   0.670   5.826 -1.4691 -0.9124  0.0777
  125OSM   H15B13256   2.274   0.808   5.806 -1.2470  1.0792 -1.4008
  125OSM   H15C13257   2.341   0.720   5.667  0.3276 -1.1603  0.0858
  125OSM    C1413258   2.095   0.644   5.682  0.2350  0.1936  0.1520
  125OSM   H14A13259   2.137   0.653   5.583  0.5683 -2.9059 -0.0846
  125OSM   H14B13260   2.039   0.734   5.703 -0.6913 -0.2028 -0.5077
  125OSM   H14C13261   2.020   0.566   5.674  0.1627  0.3001 -0.2611
  125OSM    C1313262   2.259   0.474   5.756 -0.4105  0.5272  0.3134
  125OSM   H13A13263   2.295   0.466   5.655 -0.6103  2.3106  0.0831
  125OSM   H13B13264   2.191   0.391   5.771 -3.3406  2.7140 -0.1277
  125OSM   H13C13265   2.338   0.446   5.825 -0.5875 -0.4891  0.1291
  125OSM    C1213266   2.132   0.615   5.925 -0.5414  0.1583  0.6002
  125OSM   H12A13267   2.206   0.585   5.997 -0.3787  0.7511  0.6901
  125OSM   H12B13268   2.056   0.538   5.927  0.2095 -0.8086 -2.7861
  125OSM    C1113269   2.081   0.757   5.970  0.1361  0.2572 -0.6179
  125OSM   H11A13270   2.009   0.751   6.054  0.2184 -1.3205 -0.6324
  125OSM   H11B13271   2.028   0.804   5.885  0.0019 -0.9734 -1.2336
  125OSM      P13272   2.296   0.825   6.109 -0.2439 -0.2531  0.3472
  125OSM    O1313273   2.368   0.706   6.065 -0.6732 -0.2661 -0.6849
  125OSM    O1413274   2.377   0.949   6.131  0.0828 -0.4160 -0.1883
  125OSM    O1113275   2.202   0.811   6.233  0.6230  0.1708 -0.5349
  125OSM    O1213276   2.180   0.858   6.005 -0.1133  0.1628  0.5488
  125OSM    C1S13277   2.195   0.701   6.330  0.5221  0.4523  0.2593
  125OSM    H1S13278   2.271   0.623   6.310  0.8124  0.5686  0.8827
  125OSM    H1T13279   2.097   0.650   6.317  1.8219 -1.9413 -0.6472
  125OSM     NF13280   2.191   0.635   6.548 -0.1184 -0.6820 -0.4801
  125OSM    HNF13281   2.092   0.634   6.563 -0.0584 -0.1311 -0.0448
  125OSM    C2S13282   2.233   0.751   6.470  0.2615  0.3517 -0.7904
  125OSM    H2S13283   2.343   0.762   6.480  0.4006 -1.8874  0.7958
  125OSM    C3S13284   2.161   0.882   6.503 -0.2660  0.7723 -0.1982
  125OSM    H3S13285   2.057   0.876   6.465 -0.7559  0.5584  1.1121
  125OSM     O313286   2.212   1.000   6.446  0.0436  0.0710 -0.2473
  125OSM    HO313287   2.259   0.956   6.375 -0.4059 -2.6340  0.9959
  125OSM    C4S13288   2.159   0.894   6.658  0.5102 -0.3279 -0.5090
  125OSM    H4S13289   2.063   0.866   6.705 -0.5260  1.0181 -1.7235
  125OSM    C5S13290   2.271   0.918   6.734 -0.3197 -0.4324  0.5685
  125OSM    H5S13291   2.364   0.889   6.684 -1.0250 -4.5817  1.3052
  125OSM    C6S13292   2.284   0.932   6.889  0.4448 -0.0343 -0.1035
  125OSM    H6S13293   2.365   1.004   6.910 -0.4704  1.0503 -0.1585
  125OSM    H6T13294   2.326   0.841   6.937  1.0708  0.7630  0.9018
  125OSM    C7S13295   2.156   0.956   6.972  0.7183  1.0571  0.7925
  125OSM    H7S13296   2.093   0.865   6.964  1.6141  0.4346  0.5382
  125OSM    H7T13297   2.106   1.041   6.920  0.3772  0.5211  0.2298
  125OSM    C8S13298   2.204   0.985   7.112 -0.3428  0.4176 -0.3707
  125OSM    H8S13299   2.258   1.082   7.111 -2.6418  1.8138 -2.6007
  125OSM    H8T13300   2.264   0.899   7.149  0.2198 -0.4437 -3.0444
  125OSM    C9S13301   2.084   1.010   7.207 -0.2567  0.1180  0.1343
  125OSM    H9S13302   2.026   0.915   7.206  2.5442 -1.8343  2.4435
  125OSM    H9T13303   2.024   1.095   7.169 -1.1610 -0.8855 -0.7470
  125OSM   C10S13304   2.130   1.031   7.355 -1.0067  0.9183  0.2327
  125OSM   H10S13305   2.210   1.109   7.359  2.3777 -2.3274  2.0953
  125OSM   H10T13306   2.185   0.939   7.384  0.7399  1.7295 -0.3194
  125OSM   C11S13307   2.019   1.046   7.452 -0.3436  0.4014  0.2347
  125OSM   H11S13308   1.956   1.131   7.417  0.5420  0.7332 -0.5990
  125OSM   H11T13309   2.064   1.070   7.551  0.1014  0.8799 -0.0769
  125OSM   C12S13310   1.921   0.928   7.477 -1.0195  0.5120 -0.8642
  125OSM   H12S13311   1.987   0.840   7.464  1.8931  2.5219 -0.4170
  125OSM   H12T13312   1.841   0.917   7.401 -0.6204  0.3083 -1.2552
  125OSM   C13S13313   1.859   0.929   7.614 -0.4703  0.1960  0.7526
  125OSM   H13S13314   1.824   1.033   7.633  1.6476  0.7037  2.3156
  125OSM   H13T13315   1.943   0.905   7.683  1.5386 -1.2955 -2.0237
  125OSM   C14S13316   1.748   0.822   7.632 -0.8383 -0.8757 -0.3140
  125OSM   H14S13317   1.794   0.727   7.598  2.0639 -0.3045  1.6569
  125OSM   H14T13318   1.656   0.849   7.576 -0.3332 -1.6675 -1.5673
  125OSM   C15S13319   1.708   0.805   7.778 -0.0630  0.6471 -0.4458
  125OSM   H15S13320   1.798   0.780   7.838 -0.8107  0.1633  0.5024
  125OSM   H15T13321   1.632   0.724   7.778  0.1597  0.4388 -0.3388
  125OSM   C16S13322   1.636   0.930   7.847 -0.5582 -0.4199  0.8291
  125OSM   H16S13323   1.533   0.946   7.809  0.1030 -0.6739 -1.1635
  125OSM   H16T13324   1.690   1.022   7.816 -0.6032 -0.1455  1.5393
  125OSM   C17S13325   1.635   0.928   7.992 -0.1337  0.5374  0.1696
  125OSM   H17S13326   1.606   1.031   8.019  0.8274  1.0666 -0.7677
  125OSM   H17T13327   1.733   0.902   8.037  0.2041  0.2047 -0.7302
  125OSM   C18S13328   1.536   0.827   8.042  0.5998  0.1036 -0.1019
  125OSM   H18S13329   1.560   0.790   8.145  0.3880 -1.4352 -0.5707
  125OSM   H18T13330   1.541   0.740   7.973  1.8500 -0.5361  0.7401
  125OSM   H18U13331   1.428   0.852   8.045  0.9093  1.4734  0.9258
  125OSM    C1F13332   2.268   0.532   6.573 -0.1145  0.4768  0.9342
  125OSM     OF13333   2.379   0.528   6.529  0.2918  0.8769 -0.1588
  125OSM    C2F13334   2.212   0.423   6.649 -0.9079 -0.5236 -0.3398
  125OSM    H2F13335   2.211   0.330   6.588 -0.6436 -1.5100  1.1076
  125OSM    H2G13336   2.103   0.439   6.664 -1.1513 -2.0762 -0.2679
  125OSM    C3F13337   2.286   0.410   6.786 -1.1308 -0.2304  0.2113
  125OSM    H3F13338   2.292   0.502   6.849 -1.4626  1.1121 -1.6121
  125OSM    H3G13339   2.386   0.372   6.756 -1.9074 -1.1323 -1.3720
  125OSM    C4F13340   2.217   0.305   6.877  0.2871 -0.2292 -0.7183
  125OSM    H4F13341   2.289   0.291   6.960  0.3599 -0.9700 -0.9010
  125OSM    H4G13342   2.218   0.205   6.829  2.0088  0.0668 -1.3724
  125OSM    C5F13343   2.079   0.356   6.913  0.1817  0.4942  0.0300
  125OSM    H5F13344   2.026   0.283   6.977  0.2137  0.2378 -0.2349
  125OSM    H5G13345   2.002   0.351   6.833 -1.3471 -1.9337  1.5515
  125OSM    C6F13346   2.072   0.497   6.981  0.5506  0.4023 -0.0508
  125OSM    H6F13347   1.965   0.528   6.986  0.6298  0.5622  3.2737
  125OSM    H6G13348   2.116   0.577   6.918  0.8534  1.6998  1.7366
  125OSM    C7F13349   2.154   0.497   7.112 -0.1112 -0.6595 -0.2888
  125OSM    H7F13350   2.263   0.521   7.105 -0.1819  0.0824  0.8143
  125OSM    H7G13351   2.149   0.392   7.147 -0.5825  0.0478  1.8888
  125OSM    C8F13352   2.105   0.604   7.210  0.8240  0.1814 -0.1363
  125OSM    H8F13353   2.080   0.694   7.150  0.2433  0.6478  0.7825
  125OSM    H8G13354   2.190   0.634   7.275  1.7556 -0.1325 -1.1871
  125OSM    C9F13355   1.978   0.567   7.283 -0.0480  0.0403 -0.2624
  125OSM    H9F13356   1.884   0.610   7.245 -1.2306 -2.9962 -1.0685
  125OSM   C10F13357   1.976   0.491   7.394  0.3336 -0.0226 -0.1870
  125OSM   H10F13358   1.876   0.457   7.423  0.0753  0.0402 -0.9737
  125OSM   C11F13359   2.093   0.423   7.454 -0.4035  0.4754  0.2529
  125OSM   H11F13360   2.181   0.401   7.390  1.1450 -1.2469  2.7876
  125OSM   H11G13361   2.066   0.321   7.490 -0.7908  0.3907 -0.2586
  125OSM   C12F13362   2.130   0.519   7.572  0.5093 -0.3723 -0.1482
  125OSM   H12F13363   2.043   0.537   7.638 -0.4753 -1.4916 -1.0880
  125OSM   H12G13364   2.169   0.617   7.538  1.6004 -0.3674  1.0340
  125OSM   C13F13365   2.237   0.454   7.661  0.0742 -0.8619 -0.0736
  125OSM   H13F13366   2.336   0.448   7.610  0.3737  0.3091  0.3395
  125OSM   H13G13367   2.221   0.345   7.681  1.0642 -1.0540 -0.2811
  125OSM   C14F13368   2.257   0.532   7.793  0.0239 -0.0080 -0.2414
  125OSM   H14F13369   2.160   0.558   7.840  2.1026  0.3883  4.3435
  125OSM   H14G13370   2.300   0.633   7.775  0.0057 -0.0210 -0.3609
  125OSM   C15F13371   2.332   0.452   7.898 -0.4410 -0.4347 -0.0720
  125OSM   H15F13372   2.273   0.358   7.903  2.0951 -2.0783  0.2310
  125OSM   H15G13373   2.338   0.489   8.003 -0.1889 -2.9277  0.8577
  125OSM   C16F13374   2.475   0.422   7.852  0.2715 -0.2996  0.3133
  125OSM   H16F13375   2.521   0.518   7.822 -4.3227  1.2648 -2.7894
  125OSM   H16G13376   2.475   0.358   7.761 -1.2258 -0.0540  0.1067
  125OSM   C17F13377   2.546   0.344   7.967 -0.0157  0.5744 -0.0793
  125OSM   H17F13378   2.485   0.255   7.995  1.5827 -0.6952 -0.5278
  125OSM   H17G13379   2.552   0.417   8.051 -1.1347 -0.5920  1.0552
  125OSM   C18F13380   2.685   0.300   7.924  0.8644 -0.1862  0.3012
  125OSM   H18F13381   2.678   0.242   7.829 -0.7830  0.7682 -0.2093
  125OSM   H18G13382   2.730   0.235   8.002  0.0215  1.0180  1.8555
  125OSM   H18H13383   2.751   0.386   7.899  1.3472 -0.2173  1.4280
  126OSM      N13384   5.022   5.366   6.542  0.3406 -0.4898  0.1378
  126OSM    C1513385   4.891   5.370   6.620  0.6405  0.6313 -0.2552
  126OSM   H15A13386   4.808   5.384   6.553 -1.8974 -2.9189  1.8247
  126OSM   H15B13387   4.874   5.453   6.688  0.7830 -1.3648  2.4009
  126OSM   H15C13388   4.866   5.275   6.665 -0.2190  1.3053  0.7422
  126OSM    C1413389   4.999   5.247   6.453 -0.6940  0.2817  0.3487
  126OSM   H14A13390   5.096   5.211   6.423 -0.4708 -0.6691  2.0738
  126OSM   H14B13391   4.952   5.266   6.358 -0.3851 -1.3801 -0.1543
  126OSM   H14C13392   4.946   5.169   6.506  1.0034 -1.5430 -0.5235
  126OSM    C1313393   5.036   5.489   6.460 -0.0072  1.0947  0.3191
  126OSM   H13A13394   5.037   5.579   6.519  0.2277  0.7303  0.8764
  126OSM   H13B13395   4.955   5.513   6.392  0.5756  1.1130 -0.3828
  126OSM   H13C13396   5.121   5.484   6.394  0.1630 -0.0334  0.6023
  126OSM    C1213397   5.141   5.342   6.635 -0.3879  0.3367  0.2647
  126OSM   H12A13398   5.138   5.247   6.687  2.8404 -0.0879 -0.1530
  126OSM   H12B13399   5.133   5.415   6.714  0.7861  1.4179 -0.5716
  126OSM    C1113400   5.277   5.333   6.566  0.4567  0.0354  0.0829
  126OSM   H11A13401   5.357   5.349   6.642 -3.0568 -0.8304  4.3372
  126OSM   H11B13402   5.278   5.410   6.486 -1.1164 -1.2399 -1.2203
  126OSM      P13403   5.332   5.082   6.582 -0.2579  0.0795 -0.1835
  126OSM    O1313404   5.278   4.972   6.507  0.1546 -0.2969  0.0729
  126OSM    O1413405   5.478   5.071   6.605  0.2160 -0.0642  0.2971
  126OSM    O1113406   5.259   5.116   6.718  0.1939  0.4790  0.1094
  126OSM    O1213407   5.305   5.213   6.502  0.0406 -0.0927  0.1456
  126OSM    C1S13408   5.247   5.014   6.820 -0.0094  0.3072 -0.3835
  126OSM    H1S13409   5.320   4.930   6.807  2.0894  2.0707 -0.5388
  126OSM    H1T13410   5.142   4.978   6.820 -0.8117  2.5055 -0.4797
  126OSM     NF13411   5.230   4.965   7.059 -0.5119 -0.5602 -0.3153
  126OSM    HNF13412   5.140   4.997   7.087  0.5874  3.1412 -0.4520
  126OSM    C2S13413   5.277   5.069   6.963  0.3537  0.4999  0.2617
  126OSM    H2S13414   5.384   5.079   6.991 -0.0395  1.3313  1.5350
  126OSM    C3S13415   5.208   5.208   6.987 -0.3449  0.0564 -0.6271
  126OSM    H3S13416   5.100   5.204   6.960 -0.2919  1.1389 -1.0817
  126OSM     O313417   5.273   5.308   6.908 -0.0340  0.4496  0.1981
  126OSM    HO313418   5.323   5.243   6.857 -2.8371 -1.2669 -0.6209
  126OSM    C4S13419   5.231   5.248   7.131 -0.0385 -0.7013 -0.4147
  126OSM    H4S13420   5.136   5.237   7.186  0.7485 -3.4368  0.5138
  126OSM    C5S13421   5.330   5.306   7.207 -0.0771 -0.1435  0.0923
  126OSM    H5S13422   5.421   5.340   7.155 -0.0404  0.5531  0.5891
  126OSM    C6S13423   5.330   5.341   7.353 -0.6683  0.0536 -0.8713
  126OSM    H6S13424   5.339   5.451   7.369 -1.1625 -0.1638  1.2149
  126OSM    H6T13425   5.415   5.287   7.400 -1.5690 -1.5216 -0.9700
  126OSM    C7S13426   5.204   5.321   7.436 -0.4740  0.0068  0.1978
  126OSM    H7S13427   5.183   5.213   7.442  1.4158 -0.4135  0.0832
  126OSM    H7T13428   5.114   5.369   7.393 -1.0968 -1.9563 -0.7707
  126OSM    C8S13429   5.212   5.360   7.580 -0.0053 -0.5557  0.3037
  126OSM    H8S13430   5.250   5.463   7.598  1.3233 -1.1785  1.2325
  126OSM    H8T13431   5.285   5.291   7.627 -0.1415 -1.1963 -0.3997
  126OSM    C9S13432   5.088   5.347   7.665 -0.0574  0.0779  0.5221
  126OSM    H9S13433   5.031   5.256   7.635 -0.3936  1.2545 -2.8397
  126OSM    H9T13434   5.013   5.423   7.633  0.3723  0.5167  0.5394
  126OSM   C10S13435   5.124   5.340   7.812  0.2402  0.0301 -0.1570
  126OSM   H10S13436   5.035   5.364   7.873 -0.0732  0.4531 -0.7695
  126OSM   H10T13437   5.203   5.413   7.841  0.2317  0.3739 -0.9626
  126OSM   C11S13438   5.168   5.200   7.861 -0.1028  1.2649  0.1760
  126OSM   H11S13439   5.266   5.168   7.819 -0.0855  1.7951 -0.2083
  126OSM   H11T13440   5.083   5.138   7.826 -1.5146  2.1064  1.9532
  126OSM   C12S13441   5.188   5.203   8.013  0.2941  1.0434  0.3312
  126OSM   H12S13442   5.100   5.255   8.057 -1.6938 -0.8180 -1.1783
  126OSM   H12T13443   5.273   5.269   8.039  0.8570  0.8374 -0.8883
  126OSM   C13S13444   5.188   5.069   8.066  0.1257  0.1636  0.0214
  126OSM   H13S13445   5.285   5.020   8.040 -1.1180 -2.1022 -0.5750
  126OSM   H13T13446   5.102   5.013   8.024 -0.2732 -0.6642  1.8105
  126OSM   C14S13447   5.183   5.053   8.223 -0.6545 -0.1677 -0.4474
  126OSM   H14S13448   5.125   5.134   8.272  1.3458 -0.4640  2.6994
  126OSM   H14T13449   5.281   5.042   8.273 -0.1475  2.0237 -0.8778
  126OSM   C15S13450   5.103   4.922   8.247 -0.3664  0.3560  0.3259
  126OSM   H15S13451   5.010   4.918   8.185 -0.2496  2.1996 -0.0097
  126OSM   H15T13452   5.067   4.925   8.352 -1.4781  0.1620 -0.0339
  126OSM   C16S13453   5.174   4.791   8.216 -0.0019  0.2270  0.2229
  126OSM   H16S13454   5.282   4.812   8.228  0.0315  1.1409 -1.3984
  126OSM   H16T13455   5.155   4.748   8.115 -0.6075  2.9566 -0.8966
  126OSM   C17S13456   5.138   4.684   8.320  0.4440  0.2875  0.1284
  126OSM   H17S13457   5.027   4.683   8.324  0.4215  0.9895 -0.3257
  126OSM   H17T13458   5.175   4.728   8.415 -1.5383  1.2824  0.5079
  126OSM   C18S13459   5.183   4.540   8.282  0.2600  0.2789 -0.2509
  126OSM   H18S13460   5.131   4.470   8.350 -0.4392  0.4738 -0.5805
  126OSM   H18T13461   5.294   4.544   8.287  0.2760 -0.5338  0.0713
  126OSM   H18U13462   5.147   4.513   8.181  1.2436  0.9521 -0.8067
  126OSM    C1F13463   5.269   4.840   7.072 -0.7018 -0.6405  0.2414
  126OSM     OF13464   5.372   4.811   7.012 -0.2621  0.2082 -0.5256
  126OSM    C2F13465   5.182   4.739   7.137 -0.3359  0.1609 -0.2991
  126OSM    H2F13466   5.142   4.663   7.066  0.8626 -0.3378 -0.4724
  126OSM    H2G13467   5.092   4.790   7.177 -0.8006 -0.8233 -0.0571
  126OSM    C3F13468   5.252   4.664   7.242  0.0432  0.1516  0.1532
  126OSM    H3F13469   5.334   4.592   7.221 -1.8240 -3.2171  3.2143
  126OSM    H3G13470   5.180   4.594   7.289  1.3994 -1.2069  0.3141
  126OSM    C4F13471   5.293   4.758   7.357  0.6101 -0.5593 -0.3634
  126OSM    H4F13472   5.205   4.813   7.397  1.4735  0.1274  0.6468
  126OSM    H4G13473   5.355   4.844   7.322 -2.5007  2.2116  0.3923
  126OSM    C5F13474   5.367   4.690   7.469 -0.0273 -0.0401 -1.2121
  126OSM    H5F13475   5.473   4.670   7.439 -0.1200 -2.1016 -0.3667
  126OSM    H5G13476   5.323   4.589   7.485  0.5374 -0.4787 -2.2818
  126OSM    C6F13477   5.386   4.763   7.599  0.2536  0.1641 -0.2519
  126OSM    H6F13478   5.407   4.869   7.575 -0.3425 -0.3401 -3.4054
  126OSM    H6G13479   5.463   4.710   7.661 -0.5438 -2.3494 -1.2815
  126OSM    C7F13480   5.251   4.754   7.680 -0.9098 -0.1539 -0.5828
  126OSM    H7F13481   5.205   4.656   7.655 -1.5370  0.2491 -1.0781
  126OSM    H7G13482   5.181   4.830   7.637  2.2520  1.8259 -2.6419
  126OSM    C8F13483   5.260   4.778   7.839  0.1472  0.2466  0.3124
  126OSM    H8F13484   5.155   4.799   7.871  0.3757 -0.0628  1.2747
  126OSM    H8G13485   5.331   4.859   7.867  2.1804 -1.9523  1.8765
  126OSM    C9F13486   5.305   4.652   7.909  0.6675 -0.7987  0.1162
  126OSM    H9F13487   5.216   4.593   7.938 -0.2989  1.4575  2.0104
  126OSM   C10F13488   5.425   4.623   7.956 -0.1999  0.3291 -0.0704
  126OSM   H10F13489   5.439   4.524   8.002 -2.2645  0.1582  0.2645
  126OSM   C11F13490   5.552   4.698   7.954 -0.0787  0.6191  0.2908
  126OSM   H11F13491   5.559   4.782   7.882  1.0651  0.9741  0.8007
  126OSM   H11G13492   5.631   4.626   7.923  1.0239  0.6236  2.8368
  126OSM   C12F13493   5.577   4.743   8.101  0.4993 -0.1419 -0.0031
  126OSM   H12F13494   5.590   4.651   8.162 -0.3767  0.3673  0.9726
  126OSM   H12G13495   5.487   4.797   8.136  1.0862 -0.6243  2.3881
  126OSM   C13F13496   5.705   4.828   8.114  0.9803  0.6717 -0.1058
  126OSM   H13F13497   5.678   4.921   8.059 -0.3788  0.5441  0.3198
  126OSM   H13G13498   5.780   4.766   8.060  1.1067  0.1652  0.6307
  126OSM   C14F13499   5.751   4.870   8.255  0.0678  0.6939  0.0267
  126OSM   H14F13500   5.757   4.781   8.321 -1.5593 -0.3534 -1.1576
  126OSM   H14G13501   5.670   4.941   8.283 -2.6817 -1.5608 -1.7667
  126OSM   C15F13502   5.892   4.941   8.247 -0.8854 -0.0264 -0.4468
  126OSM   H15F13503   5.889   5.033   8.185 -0.9290  2.5986  3.1656
  126OSM   H15G13504   5.965   4.866   8.209 -1.6017 -1.4142  0.8107
  126OSM   C16F13505   5.942   4.997   8.383  0.8317 -0.0721 -0.2600
  126OSM   H16F13506   6.042   5.043   8.370  0.8560 -0.0865 -0.1305
  126OSM   H16G13507   5.947   4.916   8.459 -2.7033 -0.7382 -0.5970
  126OSM   C17F13508   5.847   5.102   8.442  0.2371 -0.4768  0.0037
  126OSM   H17F13509   5.750   5.049   8.456  1.3993 -2.7111  0.0375
  126OSM   H17G13510   5.840   5.196   8.384 -2.7047 -0.4841  0.1783
  126OSM   C18F13511   5.884   5.138   8.584 -0.0700 -0.5803 -0.3127
  126OSM   H18F13512   5.906   5.048   8.645 -0.5403 -0.5160 -0.0417
  126OSM   H18G13513   5.809   5.206   8.629 -0.5102 -0.7407 -0.8026
  126OSM   H18H13514   5.977   5.199   8.593  0.4136 -1.4145  0.5335
  127OSM      N13515   4.162   6.211   6.224 -0.3566  0.9470 -0.0368
  127OSM    C1513516   4.260   6.226   6.114  0.3559  0.1166  0.4014
  127OSM   H15A13517   4.223   6.299   6.044 -2.4153 -2.0497 -0.5910
  127OSM   H15B13518   4.278   6.132   6.065 -0.6522  0.2542 -0.2645
  127OSM   H15C13519   4.357   6.254   6.152 -0.1764 -0.8092  2.6425
  127OSM    C1413520   4.146   6.341   6.284 -0.3246  0.3605  0.7755
  127OSM   H14A13521   4.242   6.384   6.310 -0.0521 -0.0991  0.5428
  127OSM   H14B13522   4.076   6.347   6.366  1.1809  1.3241  2.0620
  127OSM   H14C13523   4.106   6.410   6.211  1.1684  0.1479 -0.2919
  127OSM    C1313524   4.031   6.161   6.162 -0.4536 -0.1617 -0.2764
  127OSM   H13A13525   3.985   6.235   6.099 -0.7082  0.4645  0.6401
  127OSM   H13B13526   3.969   6.128   6.244  1.7714 -0.2035  1.4889
  127OSM   H13C13527   4.061   6.084   6.092  0.6978 -0.7015  0.7589
  127OSM    C1213528   4.207   6.111   6.326 -0.2614 -0.3188  0.7735
  127OSM   H12A13529   4.241   6.020   6.280  1.7280  0.3109  0.8939
  127OSM   H12B13530   4.120   6.086   6.384 -0.0135 -1.1126  0.8170
  127OSM    C1113531   4.321   6.151   6.428 -0.5950  0.4984 -0.8977
  127OSM   H11A13532   4.325   6.085   6.517 -0.2026  2.2361  0.4472
  127OSM   H11B13533   4.308   6.257   6.461  1.6503  0.7673 -0.7351
  127OSM      P13534   4.588   6.166   6.417 -0.1176 -0.2548 -0.5758
  127OSM    O1313535   4.686   6.121   6.317  0.4956 -0.1205  0.2468
  127OSM    O1413536   4.583   6.312   6.451  0.6181 -0.9826 -0.4728
  127OSM    O1113537   4.590   6.084   6.549 -1.0339 -0.5269  0.2440
  127OSM    O1213538   4.443   6.129   6.359  0.3048  0.0909  0.0359
  127OSM    C1S13539   4.711   6.031   6.608 -0.2088 -0.7411  0.1314
  127OSM    H1S13540   4.790   6.104   6.582 -1.0706 -0.0285 -0.5578
  127OSM    H1T13541   4.722   5.933   6.557 -3.1694 -1.0742 -0.0339
  127OSM     NF13542   4.806   5.990   6.828 -0.0543 -0.3976 -0.4590
  127OSM    HNF13543   4.851   5.901   6.823 -0.0932 -0.3747 -1.4479
  127OSM    C2S13544   4.680   6.010   6.757  0.0980  0.1813  0.6840
  127OSM    H2S13545   4.640   6.108   6.793  1.6051  0.7423  0.9290
  127OSM    C3S13546   4.576   5.895   6.785 -0.7522  0.2300 -0.2001
  127OSM    H3S13547   4.629   5.800   6.763 -1.8134  0.1380 -2.7152
  127OSM     O313548   4.469   5.909   6.701  0.3533  0.2512  0.2651
  127OSM    HO313549   4.515   5.967   6.639  1.9804 -0.3281  0.8600
  127OSM    C4S13550   4.537   5.896   6.929 -0.2986 -0.0450  0.4406
  127OSM    H4S13551   4.457   5.968   6.950 -0.4811  0.0144 -0.4539
  127OSM    C5S13552   4.598   5.820   7.030  0.9230 -0.1104 -0.1400
  127OSM    H5S13553   4.679   5.752   7.000  1.3338  0.6696 -0.8605
  127OSM    C6S13554   4.569   5.831   7.178  0.3327 -0.2051 -0.2228
  127OSM    H6S13555   4.661   5.852   7.236 -1.3630 -0.0515  2.5694
  127OSM    H6T13556   4.546   5.730   7.218  0.9622 -0.1289  0.3528
  127OSM    C7S13557   4.469   5.945   7.214  0.0270 -0.1428 -0.4278
  127OSM    H7S13558   4.373   5.917   7.165 -0.2141 -1.5638  0.7795
  127OSM    H7T13559   4.519   6.039   7.183  2.1588 -1.6716 -1.9980
  127OSM    C8S13560   4.456   5.947   7.368 -0.2750 -0.8320 -0.5602
  127OSM    H8S13561   4.551   5.985   7.412  0.4935 -2.7701 -0.4510
  127OSM    H8T13562   4.454   5.845   7.413  1.7661 -0.5650  0.2277
  127OSM    C9S13563   4.339   6.020   7.424  0.1574 -0.1310  0.2835
  127OSM    H9S13564   4.251   5.959   7.398 -0.0918 -0.5802  2.0793
  127OSM    H9T13565   4.338   6.121   7.377 -0.4699 -0.7043 -0.9660
  127OSM   C10S13566   4.348   6.022   7.581 -0.0177 -0.3599  0.6924
  127OSM   H10S13567   4.418   6.103   7.611  0.2170 -0.7890  1.3136
  127OSM   H10T13568   4.399   5.926   7.603 -0.2802 -1.0852 -1.5746
  127OSM   C11S13569   4.211   6.024   7.644 -0.4220 -0.3717  0.0871
  127OSM   H11S13570   4.145   5.943   7.607  1.4235 -1.4953 -0.8961
  127OSM   H11T13571   4.155   6.116   7.617  0.6701 -0.3526 -2.4788
  127OSM   C12S13572   4.219   6.040   7.799  0.3215  0.2776  0.0406
  127OSM   H12S13573   4.125   6.082   7.837 -0.4539 -1.1287 -0.2365
  127OSM   H12T13574   4.299   6.115   7.817  2.2388 -1.0929 -2.1050
  127OSM   C13S13575   4.249   5.910   7.876 -0.0151 -0.0227 -0.5181
  127OSM   H13S13576   4.339   5.872   7.824  0.6492  0.6127  0.1335
  127OSM   H13T13577   4.170   5.833   7.864 -0.7468  0.8363 -1.3518
  127OSM   C14S13578   4.266   5.922   8.032 -0.2827 -0.5057 -0.2127
  127OSM   H14S13579   4.350   5.991   8.055 -0.0681 -0.8953  0.1843
  127OSM   H14T13580   4.293   5.820   8.066 -0.6641  0.3434  2.9722
  127OSM   C15S13581   4.142   5.970   8.117  0.0365 -0.5114 -0.0910
  127OSM   H15S13582   4.067   5.889   8.102  0.1519 -0.4944 -0.7964
  127OSM   H15T13583   4.106   6.069   8.082 -2.0505 -1.6129 -1.2692
  127OSM   C16S13584   4.172   5.971   8.269 -0.3579 -0.0328 -0.1308
  127OSM   H16S13585   4.254   6.042   8.295 -0.7906 -0.6432  3.3612
  127OSM   H16T13586   4.209   5.871   8.300  0.7684  0.1617 -0.7922
  127OSM   C17S13587   4.047   6.010   8.356 -0.2686  0.2547 -0.1453
  127OSM   H17S13588   3.969   5.931   8.353  0.2959 -0.4289  1.8039
  127OSM   H17T13589   4.001   6.109   8.335  0.8848  1.0674  1.0245
  127OSM   C18S13590   4.087   6.027   8.500 -0.2555 -0.2036 -0.0468
  127OSM   H18S13591   4.171   6.100   8.503  0.9626 -1.6117  0.8398
  127OSM   H18T13592   4.116   5.930   8.543  0.7200  0.5090  0.9579
  127OSM   H18U13593   4.004   6.062   8.565 -0.3139 -2.2551  1.0414
  127OSM    C1F13594   4.876   6.098   6.841 -0.7813 -0.9938 -0.0800
  127OSM     OF13595   4.831   6.208   6.804  0.0567  0.8107  0.4488
  127OSM    C2F13596   5.012   6.079   6.894 -1.1837 -0.8390  0.8265
  127OSM    H2F13597   5.087   6.064   6.813  0.8356  0.3334  2.3730
  127OSM    H2G13598   5.005   5.989   6.959 -2.4849 -0.6299  1.0111
  127OSM    C3F13599   5.065   6.209   6.960 -0.9074  0.0533 -0.2018
  127OSM    H3F13600   4.998   6.255   7.036  1.1041  0.3521  1.4733
  127OSM    H3G13601   5.092   6.285   6.883 -0.2305  0.7533  0.7110
  127OSM    C4F13602   5.193   6.180   7.047  0.1228 -0.0397 -0.5759
  127OSM    H4F13603   5.278   6.155   6.979  1.0585 -0.0195  0.5595
  127OSM    H4G13604   5.176   6.094   7.115 -0.3705  1.1125  0.8153
  127OSM    C5F13605   5.212   6.301   7.142 -0.0416  0.5007 -0.0243
  127OSM    H5F13606   5.110   6.318   7.183 -0.0630 -2.2690  1.2397
  127OSM    H5G13607   5.242   6.396   7.091  1.9769  0.6347  1.3023
  127OSM    C6F13608   5.316   6.256   7.252  0.1871 -0.3297 -0.0863
  127OSM    H6F13609   5.372   6.351   7.266 -1.2316  0.4238  0.6002
  127OSM    H6G13610   5.393   6.180   7.224 -1.3203 -2.2141  0.6495
  127OSM    C7F13611   5.246   6.234   7.390 -0.2826 -0.9533  0.8706
  127OSM    H7F13612   5.182   6.144   7.382 -0.3659 -0.8940  0.8639
  127OSM    H7G13613   5.167   6.312   7.399 -0.3195  0.1432 -5.0026
  127OSM    C8F13614   5.342   6.244   7.510 -0.1493 -0.1585 -0.2894
  127OSM    H8F13615   5.401   6.338   7.514  2.9548 -2.0001  0.1710
  127OSM    H8G13616   5.411   6.158   7.500 -1.3286 -1.2453  0.6083
  127OSM    C9F13617   5.251   6.223   7.637  0.4636  0.1095 -0.4348
  127OSM    H9F13618   5.185   6.138   7.618  0.2208 -0.1525  1.3729
  127OSM   C10F13619   5.228   6.302   7.745  0.4194  0.2994  0.0159
  127OSM   H10F13620   5.154   6.271   7.819 -0.4997  1.4132 -0.3983
  127OSM   C11F13621   5.302   6.437   7.771 -1.0923  0.2016  0.5767
  127OSM   H11F13622   5.218   6.498   7.811  1.0862  4.1263 -0.3366
  127OSM   H11G13623   5.351   6.486   7.684 -0.7486 -0.7524  0.2125
  127OSM   C12F13624   5.406   6.422   7.892  0.0138 -0.0112 -0.1893
  127OSM   H12F13625   5.458   6.520   7.898  1.2625 -0.6492 -0.1899
  127OSM   H12G13626   5.480   6.341   7.873 -1.0586 -0.8372 -0.9687
  127OSM   C13F13627   5.334   6.388   8.025 -0.2796  0.3051  0.2454
  127OSM   H13F13628   5.317   6.278   8.024  1.9526 -0.1051  0.6660
  127OSM   H13G13629   5.243   6.450   8.035 -1.8649 -1.5140 -1.9382
  127OSM   C14F13630   5.427   6.413   8.146  0.1685  0.2009  0.3334
  127OSM   H14F13631   5.457   6.520   8.153  3.0443 -0.6135  2.1511
  127OSM   H14G13632   5.519   6.355   8.125  0.1701  1.5404 -4.5279
  127OSM   C15F13633   5.357   6.362   8.275 -0.0015 -0.0259 -0.4065
  127OSM   H15F13634   5.336   6.254   8.267  2.3308 -0.6086  0.4117
  127OSM   H15G13635   5.267   6.426   8.280  0.9535  1.3865 -0.5875
  127OSM   C16F13636   5.442   6.389   8.400 -0.0885 -0.3463 -0.3607
  127OSM   H16F13637   5.462   6.499   8.404 -2.3480  0.1548 -1.0698
  127OSM   H16G13638   5.539   6.335   8.398 -0.0864 -0.3981  0.7749
  127OSM   C17F13639   5.381   6.352   8.540 -0.0555 -0.0237 -0.7767
  127OSM   H17F13640   5.368   6.243   8.528  0.8952 -0.0494 -1.7208
  127OSM   H17G13641   5.275   6.379   8.563 -0.1668 -0.3484 -0.9094
  127OSM   C18F13642   5.478   6.400   8.656  0.7104 -0.4433  0.7428
  127OSM   H18F13643   5.580   6.369   8.622  0.2136 -0.2179 -1.0727
  127OSM   H18G13644   5.462   6.339   8.747 -0.3340 -0.9943  0.2037
  127OSM   H18H13645   5.467   6.505   8.690  2.4084 -0.8014  2.6265
  128OSM      N13646   4.129   3.461   5.917  0.1735  0.2361 -0.2642
  128OSM    C1513647   4.087   3.352   5.817 -0.5092 -0.5779 -0.4235
  128OSM   H15A13648   3.981   3.357   5.799 -0.2049  1.1940 -2.0907
  128OSM   H15B13649   4.114   3.258   5.863  1.0788  0.0214 -0.0546
  128OSM   H15C13650   4.147   3.359   5.727  3.1571 -1.1430  1.7718
  128OSM    C1413651   4.264   3.511   5.884 -0.2110 -0.3008 -0.6445
  128OSM   H14A13652   4.343   3.437   5.872  0.9031  0.9838 -1.6210
  128OSM   H14B13653   4.302   3.573   5.964 -0.6169 -1.2570  0.3160
  128OSM   H14C13654   4.264   3.571   5.795  0.0778 -0.6639 -0.8934
  128OSM    C1313655   4.032   3.570   5.907 -0.3358 -1.1632  0.0592
  128OSM   H13A13656   4.054   3.653   5.971  1.3622  0.5640 -2.5747
  128OSM   H13B13657   3.935   3.529   5.935  0.2038 -2.7775 -0.3019
  128OSM   H13C13658   4.029   3.612   5.807 -0.8443 -3.6637 -1.0842
  128OSM    C1213659   4.125   3.396   6.053  0.2014  0.2977 -0.2770
  128OSM   H12A13660   4.177   3.302   6.049  0.0575  0.0948  1.4461
  128OSM   H12B13661   4.024   3.369   6.080  0.8508  0.6550  3.0174
  128OSM    C1113662   4.192   3.483   6.171  0.4388  0.5345 -0.3580
  128OSM   H11A13663   4.138   3.468   6.267  1.8969  1.2165  0.5927
  128OSM   H11B13664   4.173   3.591   6.154 -0.8535  0.8945  2.6385
  128OSM      P13665   4.416   3.339   6.211  0.0163 -0.6028  0.3538
  128OSM    O1313666   4.442   3.261   6.087 -0.6726 -0.3068 -0.0210
  128OSM    O1413667   4.535   3.399   6.278 -0.4977 -0.7223  0.3129
  128OSM    O1113668   4.318   3.261   6.308  0.4272 -0.3858 -0.4907
  128OSM    O1213669   4.331   3.469   6.171 -0.4164 -0.1051  0.1613
  128OSM    C1S13670   4.374   3.177   6.410 -0.4281 -0.0283 -0.0095
  128OSM    H1S13671   4.483   3.160   6.397 -0.4979 -0.1240 -0.4827
  128OSM    H1T13672   4.324   3.078   6.421 -2.1559  0.9369  1.1027
  128OSM     NF13673   4.411   3.143   6.654  0.7449  0.5390 -0.2284
  128OSM    HNF13674   4.350   3.130   6.732 -1.2158  0.9046 -1.6063
  128OSM    C2S13675   4.346   3.230   6.557  0.2681 -0.4905 -0.5707
  128OSM    H2S13676   4.399   3.328   6.560 -1.7645  0.6112  1.4764
  128OSM    C3S13677   4.198   3.262   6.584  0.4429 -0.3017  0.3588
  128OSM    H3S13678   4.135   3.175   6.553 -1.0831  1.4255 -1.6277
  128OSM     O313679   4.143   3.359   6.494 -0.2450 -0.4369 -0.0672
  128OSM    HO313680   4.218   3.375   6.435 -0.7864  2.3186 -0.1820
  128OSM    C4S13681   4.168   3.298   6.727 -0.2707  1.0219 -0.3113
  128OSM    H4S13682   4.147   3.210   6.790 -1.7960  0.0214 -2.0830
  128OSM    C5S13683   4.149   3.426   6.777 -0.5768 -0.0328 -0.4752
  128OSM    H5S13684   4.177   3.506   6.707  3.1417 -1.8312 -1.3035
  128OSM    C6S13685   4.138   3.452   6.921  0.0628  0.0178  0.2291
  128OSM    H6S13686   4.138   3.562   6.934  0.3516 -0.2343  3.0381
  128OSM    H6T13687   4.227   3.407   6.972 -0.8127 -3.0759 -0.7332
  128OSM    C7S13688   4.044   3.371   7.012 -0.1464  0.6024  0.1745
  128OSM    H7S13689   4.028   3.264   6.985 -1.5069  0.4744  1.3313
  128OSM    H7T13690   3.943   3.417   7.002 -0.3125  0.0510 -0.8194
  128OSM    C8S13691   4.072   3.367   7.165  0.5141 -0.0223 -0.3838
  128OSM    H8S13692   4.147   3.289   7.192  0.2958 -0.4572 -1.0042
  128OSM    H8T13693   3.979   3.325   7.210  0.5820 -2.0421 -1.9565
  128OSM    C9S13694   4.124   3.501   7.218  0.6838 -0.8963  0.1285
  128OSM    H9S13695   4.057   3.575   7.169 -0.2622 -0.5184  1.9240
  128OSM    H9T13696   4.228   3.515   7.181  1.6346 -0.5467  2.7451
  128OSM   C10S13697   4.118   3.517   7.364 -0.0696  0.4745 -0.7213
  128OSM   H10S13698   4.009   3.503   7.383 -0.1899 -0.1558 -1.7878
  128OSM   H10T13699   4.135   3.622   7.395 -0.8483  0.0249  1.4539
  128OSM   C11S13700   4.218   3.434   7.450 -0.8350  0.1357  0.3823
  128OSM   H11S13701   4.314   3.452   7.397  0.0140  2.2243  2.4616
  128OSM   H11T13702   4.188   3.328   7.435 -0.9095  0.0217  1.2961
  128OSM   C12S13703   4.222   3.474   7.600  0.6175 -0.1268  0.0250
  128OSM   H12S13704   4.254   3.579   7.610  1.4275 -0.5312  2.5913
  128OSM   H12T13705   4.305   3.409   7.635  0.2167 -1.1659 -0.8966
  128OSM   C13S13706   4.092   3.459   7.682 -0.6704  0.4525  0.1516
  128OSM   H13S13707   4.061   3.353   7.675  0.1299  0.1979  0.3834
  128OSM   H13T13708   4.018   3.526   7.633 -0.5649  2.3555  2.4356
  128OSM   C14S13709   4.112   3.493   7.828  0.4855  0.3555 -0.4621
  128OSM   H14S13710   4.126   3.601   7.847 -0.3650  0.0490  2.5264
  128OSM   H14T13711   4.198   3.434   7.868 -0.3445 -1.3048 -1.0309
  128OSM   C15S13712   3.986   3.458   7.909  0.2621 -0.0132 -0.2535
  128OSM   H15S13713   3.961   3.355   7.877 -1.0157  0.2160 -0.0508
  128OSM   H15T13714   3.903   3.521   7.870 -0.3893 -1.0432 -0.5602
  128OSM   C16S13715   3.996   3.481   8.060  0.1835  0.2076 -0.1070
  128OSM   H16S13716   4.069   3.562   8.083 -0.3649  1.2985 -2.0034
  128OSM   H16T13717   4.041   3.393   8.111  1.5449  1.2850  0.6225
  128OSM   C17S13718   3.864   3.513   8.129  0.1806  0.0991  0.7235
  128OSM   H17S13719   3.793   3.440   8.084  0.1981  1.3124 -1.4161
  128OSM   H17T13720   3.815   3.600   8.081  0.4336  0.0069  0.2989
  128OSM   C18S13721   3.853   3.515   8.282 -0.4882  0.8705  0.6900
  128OSM   H18S13722   3.862   3.409   8.316  0.7666  0.6590 -0.1857
  128OSM   H18T13723   3.766   3.572   8.318 -0.7482  1.9465 -1.5144
  128OSM   H18U13724   3.942   3.574   8.315  0.8133 -0.5510 -0.1192
  128OSM    C1F13725   4.540   3.100   6.651 -1.1162 -0.1876 -1.3536
  128OSM     OF13726   4.618   3.155   6.576  0.0045  0.3307 -0.1561
  128OSM    C2F13727   4.601   2.996   6.746 -0.4387 -0.4971 -0.2616
  128OSM    H2F13728   4.594   2.899   6.693 -3.0585 -0.7135  0.3421
  128OSM    H2G13729   4.535   2.990   6.836 -0.0498 -0.5790  0.0210
  128OSM    C3F13730   4.749   3.023   6.795  0.7229 -0.7795 -0.4112
  128OSM    H3F13731   4.756   3.120   6.847 -2.3382  0.0756 -1.3695
  128OSM    H3G13732   4.818   3.029   6.707 -0.3099 -2.2487 -1.3690
  128OSM    C4F13733   4.804   2.922   6.894  0.3168  0.6980 -0.5872
  128OSM    H4F13734   4.915   2.928   6.900  0.4095 -1.2366  0.2294
  128OSM    H4G13735   4.774   2.819   6.867  0.3113  0.5586 -0.0650
  128OSM    C5F13736   4.745   2.951   7.037 -0.1574  0.3194  0.2727
  128OSM    H5F13737   4.635   2.966   7.036 -0.4531 -1.6009 -0.0857
  128OSM    H5G13738   4.800   3.038   7.080 -0.4201  0.0616  1.1645
  128OSM    C6F13739   4.792   2.841   7.139  0.6492 -1.3315 -0.8528
  128OSM    H6F13740   4.805   2.895   7.235 -1.0190 -0.3760 -1.1258
  128OSM    H6G13741   4.889   2.796   7.107  1.1542  0.9239 -2.7751
  128OSM    C7F13742   4.690   2.730   7.152 -0.0764 -0.3596  0.3859
  128OSM    H7F13743   4.753   2.647   7.191  1.8158  0.7490 -0.1516
  128OSM    H7G13744   4.654   2.706   7.049  0.4699 -1.4906  0.4458
  128OSM    C8F13745   4.570   2.764   7.247  0.5715 -0.2422 -0.3359
  128OSM    H8F13746   4.511   2.849   7.207  2.8022  1.3572 -0.4431
  128OSM    H8G13747   4.616   2.799   7.343  2.0122  1.8162 -1.6865
  128OSM    C9F13748   4.479   2.650   7.268  0.4503 -0.3612 -0.5842
  128OSM    H9F13749   4.467   2.596   7.173  2.4813 -0.0285 -1.0890
  128OSM   C10F13750   4.455   2.585   7.386  0.0874 -0.4973  0.2379
  128OSM   H10F13751   4.393   2.494   7.392 -0.7588 -0.0050 -0.5962
  128OSM   C11F13752   4.498   2.639   7.515 -0.6058  0.1244  0.3184
  128OSM   H11F13753   4.572   2.721   7.511  0.8490 -0.9859  2.6079
  128OSM   H11G13754   4.540   2.555   7.575 -1.0669 -0.3732 -0.0400
  128OSM   C12F13755   4.380   2.693   7.598  0.4254  0.4739  0.0117
  128OSM   H12F13756   4.288   2.634   7.577  0.6296 -0.2836  1.1679
  128OSM   H12G13757   4.349   2.791   7.556  0.2936 -0.3344 -1.9157
  128OSM   C13F13758   4.420   2.676   7.748 -0.4269  0.3258  0.4447
  128OSM   H13F13759   4.498   2.751   7.772 -0.3930  0.4903 -0.1776
  128OSM   H13G13760   4.467   2.577   7.762 -1.4895 -0.1739  0.6285
  128OSM   C14F13761   4.305   2.690   7.842  0.4710 -0.4362  0.3674
  128OSM   H14F13762   4.219   2.629   7.805 -1.3504  0.7056  2.4348
  128OSM   H14G13763   4.269   2.795   7.845 -0.1629 -0.6193  4.4519
  128OSM   C15F13764   4.328   2.650   7.992 -0.1668 -0.1735 -0.1497
  128OSM   H15F13765   4.421   2.704   8.022 -0.5719  0.4434  0.0120
  128OSM   H15G13766   4.327   2.539   7.981  1.7505  0.0036 -3.7204
  128OSM   C16F13767   4.206   2.703   8.069 -0.4865 -0.5905 -0.3764
  128OSM   H16F13768   4.112   2.672   8.018 -1.0107  1.7813 -0.9922
  128OSM   H16G13769   4.211   2.814   8.065  0.4839 -0.4446  2.5140
  128OSM   C17F13770   4.204   2.671   8.219 -0.0045  0.3698  0.2667
  128OSM   H17F13771   4.114   2.717   8.265  0.0382 -0.3374  1.0789
  128OSM   H17G13772   4.295   2.702   8.274  0.4340 -0.4263 -0.0034
  128OSM   C18F13773   4.200   2.518   8.233  0.9357  0.1335  0.0423
  128OSM   H18F13774   4.280   2.465   8.178 -0.2942 -0.9625 -0.7664
  128OSM   H18G13775   4.108   2.477   8.184  1.8008  0.4261 -1.9018
  128OSM   H18H13776   4.198   2.487   8.340 -1.2678  2.4752  0.7874
  129OSM      N13777   2.770   4.329   5.916  0.4614  0.1754  0.0204
  129OSM    C1513778   2.669   4.261   5.825 -0.2035  0.1047  0.3281
  129OSM   H15A13779   2.641   4.165   5.866 -0.5615  0.1986  0.3072
  129OSM   H15B13780   2.717   4.237   5.731  1.4054  2.1485  0.5591
  129OSM   H15C13781   2.584   4.327   5.821 -0.4854 -0.3046 -3.2852
  129OSM    C1413782   2.905   4.271   5.906  0.5138  0.1573 -0.0760
  129OSM   H14A13783   2.912   4.168   5.939  1.1278  0.6274  1.3643
  129OSM   H14B13784   2.978   4.326   5.964  1.3315 -1.8740  0.9281
  129OSM   H14C13785   2.936   4.270   5.803  0.7931  0.6356  0.0012
  129OSM    C1313786   2.787   4.468   5.858 -0.3420  0.4157 -0.1405
  129OSM   H13A13787   2.694   4.522   5.854 -1.4933 -1.4429  0.1678
  129OSM   H13B13788   2.830   4.461   5.759 -1.7496  3.1867 -1.0477
  129OSM   H13C13789   2.859   4.521   5.920 -0.0585 -0.4907  0.3302
  129OSM    C1213790   2.739   4.329   6.066  0.3408 -0.3920 -0.1609
  129OSM   H12A13791   2.829   4.371   6.110  0.1473  0.4987 -0.6036
  129OSM   H12B13792   2.726   4.227   6.100  1.2482 -0.0075  1.4537
  129OSM    C1113793   2.622   4.424   6.115  0.0287 -0.7332 -0.1031
  129OSM   H11A13794   2.643   4.533   6.109 -1.3428 -0.5228 -3.5445
  129OSM   H11B13795   2.622   4.403   6.224 -0.7887  1.9687  0.4881
  129OSM      P13796   2.408   4.274   6.109 -0.4974  0.5091 -0.6993
  129OSM    O1313797   2.284   4.284   6.041  0.4757  0.4124 -0.8140
  129OSM    O1413798   2.480   4.145   6.109 -0.5689  0.2651  0.2297
  129OSM    O1113799   2.386   4.317   6.261 -0.1835  0.7450 -0.4225
  129OSM    O1213800   2.497   4.395   6.056 -0.5821  0.5948  0.1051
  129OSM    C1S13801   2.341   4.453   6.294  0.5620 -0.3576 -0.2045
  129OSM    H1S13802   2.231   4.466   6.287  0.5187  1.0246  1.9366
  129OSM    H1T13803   2.394   4.532   6.237  0.8058 -1.3946 -1.4593
  129OSM     NF13804   2.342   4.635   6.468 -0.3035 -0.2395 -0.0769
  129OSM    HNF13805   2.412   4.704   6.455 -0.5141  0.3333  1.5652
  129OSM    C2S13806   2.383   4.493   6.441  0.3957 -0.1194  0.1075
  129OSM    H2S13807   2.320   4.432   6.510 -0.2150 -1.0573 -1.2341
  129OSM    C3S13808   2.529   4.463   6.467 -0.0077  0.6153  0.5446
  129OSM    H3S13809   2.592   4.515   6.392 -0.1073  1.9389  1.3442
  129OSM     O313810   2.567   4.325   6.477  0.3831  0.6708 -0.3334
  129OSM    HO313811   2.488   4.288   6.437  0.3821  2.0243 -1.6928
  129OSM    C4S13812   2.573   4.517   6.596 -1.3550 -0.9135  0.0137
  129OSM    H4S13813   2.532   4.483   6.693 -1.3276 -1.8486 -0.2860
  129OSM    C5S13814   2.665   4.620   6.608 -0.4306 -0.2667  0.4189
  129OSM    H5S13815   2.713   4.669   6.522  0.5222 -0.7060  0.6837
  129OSM    C6S13816   2.704   4.693   6.737 -0.7281  0.3641  0.4783
  129OSM    H6S13817   2.674   4.800   6.739 -1.3671  0.3275 -2.4082
  129OSM    H6T13818   2.809   4.663   6.758 -1.2480 -1.3572  0.7321
  129OSM    C7S13819   2.651   4.627   6.866  0.2454 -0.2653 -0.9636
  129OSM    H7S13820   2.668   4.517   6.861 -2.4885 -0.7133 -1.4643
  129OSM    H7T13821   2.542   4.644   6.875  0.1848 -0.9043 -0.3664
  129OSM    C8S13822   2.725   4.674   6.986 -0.2370 -0.1382 -0.4309
  129OSM    H8S13823   2.740   4.782   6.964 -0.8161 -0.0019 -0.1714
  129OSM    H8T13824   2.824   4.625   6.984  0.5671  1.4017 -0.0064
  129OSM    C9S13825   2.663   4.642   7.120 -0.2182  0.8527  0.9195
  129OSM    H9S13826   2.660   4.531   7.123 -0.2922  0.8667  1.6246
  129OSM    H9T13827   2.555   4.668   7.120 -0.3809  0.6047 -2.4504
  129OSM   C10S13828   2.735   4.695   7.243  0.2662  0.3892  0.7035
  129OSM   H10S13829   2.719   4.805   7.238  3.6727  0.9333 -2.0774
  129OSM   H10T13830   2.842   4.665   7.239 -0.2042 -1.3215 -0.1135
  129OSM   C11S13831   2.672   4.636   7.373  0.4827  0.3783  0.1664
  129OSM   H11S13832   2.677   4.525   7.374  0.7060  0.3813  1.0377
  129OSM   H11T13833   2.564   4.662   7.380 -0.6080 -3.5150 -0.0358
  129OSM   C12S13834   2.734   4.691   7.503 -0.1789 -0.7546  0.0975
  129OSM   H12S13835   2.663   4.708   7.586  0.6199  1.6260  0.3794
  129OSM   H12T13836   2.768   4.795   7.481  0.4501 -1.1002 -0.6112
  129OSM   C13S13837   2.844   4.610   7.566  0.3227 -0.4269  0.3297
  129OSM   H13S13838   2.888   4.554   7.481 -1.3814 -1.0760 -0.1570
  129OSM   H13T13839   2.801   4.529   7.628  0.2424  1.7595  3.3437
  129OSM   C14S13840   2.949   4.685   7.649 -0.1140  0.3073 -0.1235
  129OSM   H14S13841   3.007   4.748   7.578 -0.3160 -2.5304 -3.0225
  129OSM   H14T13842   3.015   4.610   7.698 -0.9513 -0.1752  0.2992
  129OSM   C15S13843   2.907   4.761   7.780 -0.4565  0.2013  0.1747
  129OSM   H15S13844   2.814   4.707   7.808  1.2761 -2.9135  0.4801
  129OSM   H15T13845   2.897   4.870   7.760 -0.0289  0.1699 -0.2469
  129OSM   C16S13846   3.008   4.737   7.894 -0.3622  0.5162 -0.3402
  129OSM   H16S13847   3.102   4.767   7.843 -0.8050  0.3090 -1.3118
  129OSM   H16T13848   3.023   4.628   7.910 -2.3859  0.3329  0.5975
  129OSM   C17S13849   2.996   4.816   8.018 -1.3131 -0.3666  0.0612
  129OSM   H17S13850   2.910   4.778   8.077 -1.1990  0.1077  0.5364
  129OSM   H17T13851   2.971   4.922   8.000 -2.0061 -0.9300 -2.8224
  129OSM   C18S13852   3.121   4.813   8.107  0.6375  0.4841 -0.6049
  129OSM   H18S13853   3.104   4.882   8.193  0.2816  1.7603 -1.6813
  129OSM   H18T13854   3.207   4.848   8.047  0.8971  1.8555  0.5099
  129OSM   H18U13855   3.128   4.705   8.135  0.6661  0.5079 -0.5218
  129OSM    C1F13856   2.209   4.664   6.473  0.1404 -0.1262 -0.7594
  129OSM     OF13857   2.127   4.577   6.494 -0.6115 -0.0423 -0.1639
  129OSM    C2F13858   2.172   4.806   6.455  0.5562  0.2544 -0.1236
  129OSM    H2F13859   2.122   4.827   6.358  1.7083  0.9411 -0.5928
  129OSM    H2G13860   2.264   4.869   6.462 -0.6123  1.8253  1.7969
  129OSM    C3F13861   2.082   4.849   6.572 -0.4092  0.2679 -0.3760
  129OSM    H3F13862   1.980   4.806   6.574  0.2384 -1.3210  0.8858
  129OSM    H3G13863   2.059   4.957   6.563 -0.2187  0.2530 -1.1028
  129OSM    C4F13864   2.136   4.827   6.711 -0.0198 -0.0796 -0.0614
  129OSM    H4F13865   2.136   4.718   6.731 -0.8182 -0.0137  0.3324
  129OSM    H4G13866   2.065   4.875   6.782 -0.9497 -0.4524 -0.7156
  129OSM    C5F13867   2.275   4.888   6.749 -0.0026 -0.0926  1.0713
  129OSM    H5F13868   2.262   4.991   6.711 -0.9388  0.0129  1.6414
  129OSM    H5G13869   2.355   4.851   6.682 -1.0774  0.3173 -0.4848
  129OSM    C6F13870   2.287   4.895   6.899 -0.8767 -0.2439  0.4663
  129OSM    H6F13871   2.220   4.976   6.934 -0.4143 -0.3448  1.6256
  129OSM    H6G13872   2.387   4.934   6.929 -1.1973  0.4447  0.6476
  129OSM    C7F13873   2.256   4.765   6.968 -0.0206 -0.7126  0.2513
  129OSM    H7F13874   2.323   4.685   6.931  0.7525 -0.2276  0.5653
  129OSM    H7G13875   2.149   4.739   6.953 -0.4259  1.6082 -1.4212
  129OSM    C8F13876   2.283   4.767   7.122 -0.0634 -0.5088  0.4653
  129OSM    H8F13877   2.225   4.858   7.149 -1.4480 -1.3438  0.4194
  129OSM    H8G13878   2.386   4.803   7.142 -0.3910  0.1149  1.0846
  129OSM    C9F13879   2.245   4.660   7.219  0.2377 -0.4313  0.3971
  129OSM    H9F13880   2.268   4.560   7.178  1.3533 -0.7588  1.7390
  129OSM   C10F13881   2.176   4.667   7.331  0.1688  0.1366 -0.5222
  129OSM   H10F13882   2.160   4.585   7.402  0.7743  0.1908 -0.3185
  129OSM   C11F13883   2.127   4.792   7.397  0.2137  0.4824  0.0479
  129OSM   H11F13884   2.016   4.800   7.389  0.2745  0.4653 -0.8950
  129OSM   H11G13885   2.171   4.892   7.377 -0.2265  0.8289  0.7337
  129OSM   C12F13886   2.160   4.780   7.547  0.1615 -0.3617  0.6121
  129OSM   H12F13887   2.264   4.752   7.572 -0.3876 -0.6767  2.7078
  129OSM   H12G13888   2.102   4.696   7.591  1.3202  0.3276  3.7302
  129OSM   C13F13889   2.130   4.913   7.626  0.0646  0.0384  0.6474
  129OSM   H13F13890   2.021   4.925   7.607  0.1188  0.9920  0.9009
  129OSM   H13G13891   2.187   4.997   7.581  0.6438 -0.0437  1.2216
  129OSM   C14F13892   2.143   4.920   7.779  0.7659 -0.8549  0.6024
  129OSM   H14F13893   2.251   4.924   7.804  1.0846 -2.2783 -0.3971
  129OSM   H14G13894   2.109   4.831   7.835  0.7777 -0.1740  1.7060
  129OSM   C15F13895   2.060   5.032   7.839  0.4656  0.6296  0.4342
  129OSM   H15F13896   1.954   5.003   7.849 -0.3011  2.3323 -1.8225
  129OSM   H15G13897   2.064   5.117   7.767 -0.0578 -2.1407 -3.2022
  129OSM   C16F13898   2.107   5.079   7.976 -0.1578  0.3337  0.6489
  129OSM   H16F13899   2.045   5.168   8.000  0.3400  0.9119 -0.1822
  129OSM   H16G13900   2.210   5.121   7.977 -0.6266  1.5302  0.7775
  129OSM   C17F13901   2.100   4.969   8.090  0.1779 -0.9064  0.0660
  129OSM   H17F13902   2.175   4.892   8.063  0.7897 -0.4063  0.3112
  129OSM   H17G13903   1.997   4.928   8.084 -0.3642  0.3632  0.3116
  129OSM   C18F13904   2.106   5.021   8.231  0.0488 -0.3594  0.3795
  129OSM   H18F13905   2.099   5.132   8.235  0.9210 -0.3117  0.9592
  129OSM   H18G13906   2.203   4.991   8.276 -0.7025 -0.4606  2.0248
  129OSM   H18H13907   2.021   4.991   8.296 -0.9877  3.0695  0.8204
  130OSM      N13908   4.173   2.789   5.988  0.4251 -0.4094 -0.5108
  130OSM    C1513909   4.239   2.657   6.031 -0.0771 -0.1356 -0.6764
  130OSM   H15A13910   4.181   2.608   6.108  0.6731  0.5908  0.3803
  130OSM   H15B13911   4.341   2.678   6.060  0.6730 -3.1773 -0.8325
  130OSM   H15C13912   4.247   2.589   5.948 -0.7869 -1.2448  0.1402
  130OSM    C1413913   4.261   2.829   5.879 -0.3201  0.1098  0.3816
  130OSM   H14A13914   4.231   2.926   5.843  0.3054  0.1085 -0.1662
  130OSM   H14B13915   4.256   2.767   5.791  3.0242  2.1519 -1.4661
  130OSM   H14C13916   4.366   2.824   5.902 -0.0450  1.4672 -0.4551
  130OSM    C1313917   4.033   2.774   5.942  0.3955  0.0541 -0.2370
  130OSM   H13A13918   3.981   2.863   5.909 -3.3485 -1.9625 -0.2289
  130OSM   H13B13919   3.970   2.743   6.023 -0.8403  0.4218 -1.0282
  130OSM   H13C13920   4.031   2.696   5.867 -2.0678 -0.2740  0.1072
  130OSM    C1213921   4.181   2.886   6.109 -0.5119 -0.4299 -0.4666
  130OSM   H12A13922   4.278   2.869   6.152 -0.8362 -3.1084 -0.6030
  130OSM   H12B13923   4.105   2.851   6.178 -0.2696 -1.0720 -0.5154
  130OSM    C1113924   4.158   3.038   6.088  0.5704 -0.4122 -0.0388
  130OSM   H11A13925   4.230   3.068   6.009  0.5807  1.0529  0.4909
  130OSM   H11B13926   4.192   3.091   6.179 -0.8264  2.4333 -1.0645
  130OSM      P13927   3.909   3.076   6.153  0.1689 -0.0195  0.2079
  130OSM    O1313928   3.919   3.200   6.234  0.6581  0.3886  0.5450
  130OSM    O1413929   3.784   3.042   6.084  0.5052 -0.1106  0.0054
  130OSM    O1113930   3.937   2.954   6.256 -0.0528  0.8753 -0.0154
  130OSM    O1213931   4.026   3.073   6.047  0.9198  0.4849  0.1263
  130OSM    C1S13932   3.862   2.946   6.378  0.7347  0.7160 -0.2238
  130OSM    H1S13933   3.798   3.035   6.401 -1.0954 -0.7780  0.7694
  130OSM    H1T13934   3.922   2.914   6.466  0.1175 -1.6591 -0.6027
  130OSM     NF13935   3.668   2.846   6.489  0.0841 -0.1301  0.6120
  130OSM    HNF13936   3.676   2.783   6.566  0.6717  0.5401  1.1184
  130OSM    C2S13937   3.755   2.836   6.374 -0.4548  0.1541 -0.2762
  130OSM    H2S13938   3.696   2.848   6.280 -1.0554  2.1255  0.3071
  130OSM    C3S13939   3.834   2.702   6.365  0.7104 -0.3494 -0.2734
  130OSM    H3S13940   3.884   2.696   6.464 -2.0908 -0.6380  1.2457
  130OSM     O313941   3.925   2.700   6.255 -0.4868  0.0440 -0.4873
  130OSM    HO313942   3.929   2.793   6.231 -1.2444 -0.5112 -3.0527
  130OSM    C4S13943   3.737   2.580   6.361 -0.1788 -0.3869  0.0500
  130OSM    H4S13944   3.746   2.519   6.452 -0.6581 -0.2405  0.1939
  130OSM    C5S13945   3.656   2.535   6.265  0.1800  0.4205  0.0914
  130OSM    H5S13946   3.624   2.594   6.178 -0.3981 -1.1908 -0.8400
  130OSM    C6S13947   3.577   2.403   6.282  0.0232  0.5814 -0.0723
  130OSM    H6S13948   3.468   2.421   6.268 -0.0445  0.5362  0.3830
  130OSM    H6T13949   3.581   2.385   6.391 -1.0127  1.5583  0.1560
  130OSM    C7S13950   3.636   2.283   6.215  0.5744  0.0986 -0.6046
  130OSM    H7S13951   3.744   2.275   6.242  0.6746  0.5906 -0.8359
  130OSM    H7T13952   3.623   2.289   6.105  0.5577 -0.4549 -0.6312
  130OSM    C8S13953   3.566   2.151   6.260  0.6962 -0.4189  0.0118
  130OSM    H8S13954   3.561   2.085   6.171  1.8522 -1.6119  0.7789
  130OSM    H8T13955   3.460   2.182   6.271 -0.0906 -2.0345 -2.2229
  130OSM    C9S13956   3.632   2.076   6.376 -0.8120 -0.1484 -0.8221
  130OSM    H9S13957   3.642   2.148   6.460 -3.0014  0.7317 -1.2611
  130OSM    H9T13958   3.731   2.044   6.337 -0.4322 -1.7626  1.2521
  130OSM   C10S13959   3.550   1.960   6.425  1.0240 -0.1415  0.0797
  130OSM   H10S13960   3.510   1.899   6.341  1.1302 -2.6361  1.7187
  130OSM   H10T13961   3.452   1.998   6.462  0.4545 -0.6595 -0.8531
  130OSM   C11S13962   3.619   1.869   6.524 -0.8243 -0.2351  0.2677
  130OSM   H11S13963   3.687   1.933   6.585  1.3237 -0.5845 -1.6276
  130OSM   H11T13964   3.684   1.793   6.475  0.3724 -0.9591  2.7700
  130OSM   C12S13965   3.522   1.794   6.619 -0.3821  0.5490  0.4297
  130OSM   H12S13966   3.477   1.710   6.561 -0.0218  0.6200  0.0449
  130OSM   H12T13967   3.439   1.866   6.635 -0.8914 -0.0412  0.4852
  130OSM   C13S13968   3.578   1.749   6.753  0.1458 -0.0732 -0.6711
  130OSM   H13S13969   3.613   1.829   6.822 -1.1217 -0.5950  0.6247
  130OSM   H13T13970   3.662   1.679   6.732 -0.1910 -0.1824 -1.7542
  130OSM   C14S13971   3.476   1.672   6.832  0.5842 -0.7867  0.2132
  130OSM   H14S13972   3.456   1.582   6.769  0.8481 -0.0086 -1.0133
  130OSM   H14T13973   3.386   1.737   6.839 -0.0536 -1.5252 -0.7843
  130OSM   C15S13974   3.519   1.617   6.965 -0.3555  0.1141 -0.0448
  130OSM   H15S13975   3.545   1.700   7.034  0.5604  0.3756 -0.6829
  130OSM   H15T13976   3.612   1.557   6.959 -0.8796 -1.1078  2.8012
  130OSM   C16S13977   3.408   1.531   7.025 -0.0414 -0.6483  0.0910
  130OSM   H16S13978   3.387   1.444   6.959 -3.1210 -0.6031  0.8268
  130OSM   H16T13979   3.309   1.583   7.023 -0.6533 -1.8170 -1.2479
  130OSM   C17S13980   3.458   1.477   7.165  0.7581 -0.1385  0.1145
  130OSM   H17S13981   3.516   1.554   7.220  1.4761 -2.0658  2.2219
  130OSM   H17T13982   3.527   1.393   7.142 -1.2564 -1.7429 -0.3233
  130OSM   C18S13983   3.346   1.422   7.250 -0.7957  0.3345  0.3450
  130OSM   H18S13984   3.372   1.382   7.351  1.8965  2.9102  0.8073
  130OSM   H18T13985   3.296   1.339   7.196  2.3633 -1.6642  0.2313
  130OSM   H18U13986   3.281   1.510   7.272 -1.1969 -0.2189  1.4742
  130OSM    C1F13987   3.571   2.942   6.497 -0.3102 -0.1796 -0.6242
  130OSM     OF13988   3.556   3.032   6.416  0.0111  0.3165  0.3292
  130OSM    C2F13989   3.485   2.939   6.627  0.2046 -0.2399 -0.0255
  130OSM    H2F13990   3.519   3.025   6.689 -0.5007 -1.7100  2.5600
  130OSM    H2G13991   3.507   2.841   6.674 -1.9151 -0.5205  0.5044
  130OSM    C3F13992   3.331   2.972   6.602  0.2158  0.2026 -0.8476
  130OSM    H3F13993   3.317   3.082   6.608 -0.6793  0.0510  0.2714
  130OSM    H3G13994   3.282   2.936   6.695 -0.9360  2.1240 -0.6663
  130OSM    C4F13995   3.274   2.913   6.470 -0.1341  0.1662  0.0665
  130OSM    H4F13996   3.306   2.977   6.386  1.2746 -0.4718  0.0793
  130OSM    H4G13997   3.164   2.928   6.478 -0.2643  1.0984 -2.6984
  130OSM    C5F13998   3.307   2.764   6.442 -0.1878 -0.3869 -0.3688
  130OSM    H5F13999   3.416   2.740   6.437  0.3929  2.0462 -0.8710
  130OSM    H5G14000   3.252   2.741   6.348 -0.0316 -0.0947 -0.5339
  130OSM    C6F14001   3.238   2.675   6.554 -0.8362 -0.0778 -0.4747
  130OSM    H6F14002   3.129   2.690   6.542 -1.0171 -1.4165 -0.6667
  130OSM    H6G14003   3.257   2.706   6.659  0.2699 -1.3423 -0.2664
  130OSM    C7F14004   3.264   2.528   6.523  0.5828 -0.3054 -0.0657
  130OSM    H7F14005   3.369   2.500   6.546  0.7526  1.4250  1.4447
  130OSM    H7G14006   3.245   2.504   6.416 -0.0294  0.2625 -0.0870
  130OSM    C8F14007   3.175   2.431   6.609 -0.2876  0.4568 -0.5359
  130OSM    H8F14008   3.067   2.453   6.591 -0.2257  0.4774 -0.8804
  130OSM    H8G14009   3.204   2.450   6.714  2.9869 -3.1093 -0.5764
  130OSM    C9F14010   3.192   2.292   6.564  0.0084 -0.3609 -0.2769
  130OSM    H9F14011   3.156   2.273   6.462 -0.3909  0.2130 -0.2491
  130OSM   C10F14012   3.222   2.192   6.644 -0.2329  0.4802 -0.3198
  130OSM   H10F14013   3.232   2.090   6.604 -1.7306  0.4469 -0.6984
  130OSM   C11F14014   3.242   2.194   6.791  0.2310  1.0197 -0.0835
  130OSM   H11F14015   3.183   2.107   6.829 -0.0069  0.9779 -0.5431
  130OSM   H11G14016   3.212   2.286   6.845  0.7549  0.6378  0.8852
  130OSM   C12F14017   3.383   2.158   6.840 -0.1123  0.1775 -0.0882
  130OSM   H12F14018   3.449   2.241   6.809 -0.5924  1.2598  1.6577
  130OSM   H12G14019   3.426   2.070   6.788  0.3040  0.0455  0.4728
  130OSM   C13F14020   3.389   2.153   6.987 -0.0867 -0.4581 -0.4490
  130OSM   H13F14021   3.338   2.242   7.031  0.8824 -0.6839  1.2176
  130OSM   H13G14022   3.499   2.156   7.002  0.1370 -2.9011 -1.2166
  130OSM   C14F14023   3.343   2.022   7.050  0.1166 -0.6643 -0.1189
  130OSM   H14F14024   3.391   1.930   7.010 -1.6106 -1.3622 -0.6869
  130OSM   H14G14025   3.238   2.020   7.011  0.3449 -1.7213 -0.7261
  130OSM   C15F14026   3.345   2.011   7.200  0.2105 -1.1728  0.4910
  130OSM   H15F14027   3.316   2.111   7.240  0.1874 -0.3332 -1.4788
  130OSM   H15G14028   3.448   1.981   7.227  0.5381 -0.5069  0.0323
  130OSM   C16F14029   3.247   1.902   7.248 -0.1113 -0.5005  0.0259
  130OSM   H16F14030   3.271   1.804   7.202  1.1283 -0.2290  0.0461
  130OSM   H16G14031   3.148   1.929   7.207 -0.8181 -1.7082  0.8740
  130OSM   C17F14032   3.244   1.911   7.402  0.1019  0.1287  0.0646
  130OSM   H17F14033   3.156   1.853   7.437 -1.0305  1.7380 -0.0474
  130OSM   H17G14034   3.225   2.014   7.438  0.1685 -0.3859  1.6515
  130OSM   C18F14035   3.368   1.860   7.469  0.1489 -0.2122 -0.2060
  130OSM   H18F14036   3.445   1.941   7.475 -0.6956  0.6249 -0.3721
  130OSM   H18G14037   3.404   1.775   7.409 -0.5939 -0.5042 -0.2376
  130OSM   H18H14038   3.338   1.829   7.571 -0.0786  0.0215 -0.1997
  131OSM      N14039   3.512   5.922   6.323  0.2277  0.6213  0.0869
  131OSM    C1514040   3.416   5.838   6.244 -0.3200 -0.7350 -0.0244
  131OSM   H15A14041   3.312   5.848   6.272 -1.2132 -1.7432 -2.6590
  131OSM   H15B14042   3.430   5.732   6.231 -1.8938 -0.9515 -0.1605
  131OSM   H15C14043   3.411   5.877   6.143 -1.5982  1.8973  0.9401
  131OSM    C1414044   3.533   5.862   6.458 -0.0663 -0.0665  0.6710
  131OSM   H14A14045   3.550   5.756   6.449  1.8379  0.3453 -1.3753
  131OSM   H14B14046   3.445   5.878   6.520  1.1303 -1.5199  2.8692
  131OSM   H14C14047   3.621   5.894   6.512 -1.2906  0.9763  2.1490
  131OSM    C1314048   3.633   5.920   6.247 -0.0461 -0.1657 -0.4049
  131OSM   H13A14049   3.640   5.829   6.189 -3.4340  1.1918 -3.2849
  131OSM   H13B14050   3.718   5.933   6.313  0.0590 -0.5079 -0.4728
  131OSM   H13C14051   3.635   5.999   6.173 -2.3167 -0.5943 -0.9787
  131OSM    C1214052   3.457   6.062   6.343 -0.0726 -0.0443 -0.6304
  131OSM   H12A14053   3.511   6.118   6.418  0.8868 -0.4839 -0.9782
  131OSM   H12B14054   3.358   6.062   6.387  0.4258 -1.6254  0.5807
  131OSM    C1114055   3.430   6.144   6.215  0.6455  0.0818  0.3218
  131OSM   H11A14056   3.370   6.236   6.232  0.5771 -0.1135  1.1596
  131OSM   H11B14057   3.372   6.083   6.142 -0.2470  1.9965 -0.6681
  131OSM      P14058   3.637   6.315   6.178 -0.1359 -0.0626  0.3960
  131OSM    O1314059   3.770   6.303   6.113 -0.0958  0.1558 -0.8443
  131OSM    O1414060   3.546   6.421   6.126 -0.0519 -0.3119 -0.9033
  131OSM    O1114061   3.650   6.321   6.333  0.8239  0.4903  0.1730
  131OSM    O1214062   3.553   6.181   6.152  0.2089  0.0026  0.2084
  131OSM    C1S14063   3.762   6.283   6.410 -0.1854 -0.1324 -0.3350
  131OSM    H1S14064   3.856   6.329   6.373  1.3275 -1.5284  1.5464
  131OSM    H1T14065   3.778   6.173   6.400 -0.5023 -0.2916  0.7615
  131OSM     NF14066   3.862   6.312   6.628  0.1616  0.2885 -0.3607
  131OSM    HNF14067   3.855   6.228   6.682  1.7049  0.7046  0.5590
  131OSM    C2S14068   3.745   6.341   6.554  0.2544  0.0148  0.3473
  131OSM    H2S14069   3.737   6.451   6.538  2.4573 -0.0415 -1.8137
  131OSM    C3S14070   3.616   6.291   6.617  0.4046 -0.5443 -0.5007
  131OSM    H3S14071   3.628   6.181   6.626 -0.2291 -0.6175 -0.4679
  131OSM     O314072   3.498   6.304   6.540  0.5405  0.2051  0.1641
  131OSM    HO314073   3.533   6.326   6.453  2.6112 -2.0363  0.3306
  131OSM    C4S14074   3.591   6.348   6.755 -0.4431  0.1414 -0.3319
  131OSM    H4S14075   3.670   6.304   6.817  2.1453  1.8577 -2.1810
  131OSM    C5S14076   3.509   6.444   6.809  0.3993  0.7350 -0.2846
  131OSM    H5S14077   3.429   6.481   6.743  0.7709 -0.9967 -1.7724
  131OSM    C6S14078   3.511   6.494   6.952  0.5635  0.1767  0.5243
  131OSM    H6S14079   3.508   6.605   6.949  0.8849  0.1622 -1.4290
  131OSM    H6T14080   3.614   6.468   6.986  0.0524 -0.9829  1.2430
  131OSM    C7S14081   3.403   6.439   7.041  0.5302 -0.5428  0.1078
  131OSM    H7S14082   3.409   6.328   7.044  0.0847 -0.5836 -0.4321
  131OSM    H7T14083   3.301   6.464   7.005  0.6867 -2.7719 -2.1594
  131OSM    C8S14084   3.424   6.490   7.190 -0.0569  0.6103  0.3683
  131OSM    H8S14085   3.329   6.466   7.243 -0.5236 -0.6123 -0.9596
  131OSM    H8T14086   3.447   6.597   7.208  2.5402 -0.2497  2.8843
  131OSM    C9S14087   3.534   6.415   7.261  0.4858 -0.4372  0.1711
  131OSM    H9S14088   3.633   6.434   7.214  0.3057 -0.1792 -0.1096
  131OSM    H9T14089   3.516   6.305   7.265 -1.9877 -0.0779  1.8254
  131OSM   C10S14090   3.553   6.467   7.400  0.0486  0.0279 -0.1646
  131OSM   H10S14091   3.569   6.576   7.395 -3.3150  0.6342  0.3083
  131OSM   H10T14092   3.647   6.415   7.432  0.1296  0.5273  0.4173
  131OSM   C11S14093   3.441   6.430   7.495  0.5085  0.3864 -0.1144
  131OSM   H11S14094   3.407   6.326   7.475 -1.9543  1.2139 -0.6073
  131OSM   H11T14095   3.354   6.498   7.485 -0.4799 -1.0321 -1.4728
  131OSM   C12S14096   3.489   6.445   7.641  0.5677 -0.7310 -0.3765
  131OSM   H12S14097   3.542   6.364   7.695  0.6478  0.6631  1.7932
  131OSM   H12T14098   3.396   6.460   7.701  0.5966  0.0567 -0.5185
  131OSM   C13S14099   3.555   6.580   7.677 -0.2971 -0.4484 -0.7919
  131OSM   H13S14100   3.650   6.590   7.619 -0.8119  1.9717 -1.3086
  131OSM   H13T14101   3.580   6.582   7.785 -0.0473  0.6175 -0.8575
  131OSM   C14S14102   3.473   6.712   7.648 -0.3558  0.3995 -0.3011
  131OSM   H14S14103   3.373   6.685   7.687  0.6537 -3.2744  0.1185
  131OSM   H14T14104   3.468   6.728   7.538 -0.4835 -0.3305 -0.4048
  131OSM   C15S14105   3.530   6.831   7.728 -0.1960  0.0569  0.1354
  131OSM   H15S14106   3.555   6.792   7.829 -3.3466 -0.1585  0.9120
  131OSM   H15T14107   3.448   6.906   7.738 -0.7650 -0.5403 -0.0293
  131OSM   C16S14108   3.652   6.904   7.660  0.4132 -0.3969 -0.0487
  131OSM   H16S14109   3.625   6.933   7.556 -1.4720  0.1162  0.5330
  131OSM   H16T14110   3.734   6.829   7.654  1.3176  0.6970 -2.9689
  131OSM   C17S14111   3.708   7.017   7.748  0.6245 -0.1908  0.4266
  131OSM   H17S14112   3.742   6.971   7.844 -3.0390 -0.0026  1.9680
  131OSM   H17T14113   3.620   7.078   7.776  1.7953  1.1237  1.4103
  131OSM   C18S14114   3.817   7.103   7.687  0.0888 -0.0791 -0.4731
  131OSM   H18S14115   3.793   7.143   7.586  0.8936  2.2486  0.2037
  131OSM   H18T14116   3.916   7.054   7.679 -0.4663 -1.0225 -1.9566
  131OSM   H18U14117   3.837   7.189   7.755  2.0549  1.0819 -2.4049
  131OSM    C1F14118   3.977   6.373   6.606  0.1158  0.7303  0.2389
  131OSM     OF14119   3.979   6.463   6.526  0.1366  0.1408  0.7802
  131OSM    C2F14120   4.094   6.321   6.675 -0.0127  0.5821 -0.8577
  131OSM    H2F14121   4.139   6.231   6.630 -0.0886 -0.4595  1.0408
  131OSM    H2G14122   4.056   6.288   6.774 -3.0111  0.9131 -1.7981
  131OSM    C3F14123   4.206   6.425   6.681  0.2926  0.8595  1.1653
  131OSM    H3F14124   4.179   6.525   6.722  1.9403  1.7774  0.1053
  131OSM    H3G14125   4.234   6.448   6.576 -0.4649  0.2803  0.8242
  131OSM    C4F14126   4.336   6.375   6.750 -0.1261 -0.4985  0.5934
  131OSM    H4F14127   4.422   6.431   6.707 -0.7310  0.8927  1.1529
  131OSM    H4G14128   4.361   6.268   6.731  1.5785 -0.0973  0.4768
  131OSM    C5F14129   4.324   6.400   6.900  0.0412  0.2095  0.4786
  131OSM    H5F14130   4.221   6.372   6.932  0.2792 -1.7535 -0.3883
  131OSM    H5G14131   4.344   6.508   6.917 -0.3926  0.3233  0.2904
  131OSM    C6F14132   4.406   6.316   6.993  0.0016 -0.2284 -0.1024
  131OSM    H6F14133   4.513   6.318   6.964  1.1708 -3.4868  3.2408
  131OSM    H6G14134   4.364   6.213   6.982 -0.9445 -0.4641  4.2185
  131OSM    C7F14135   4.404   6.349   7.140  0.3572 -0.0941 -0.5094
  131OSM    H7F14136   4.329   6.281   7.187 -0.8842 -0.8573 -3.3687
  131OSM    H7G14137   4.356   6.449   7.146 -2.6212 -1.3849 -0.9656
  131OSM    C8F14138   4.541   6.353   7.208  0.0285  0.3965  0.1793
  131OSM    H8F14139   4.609   6.419   7.149 -0.4939 -0.0400 -0.9286
  131OSM    H8G14140   4.577   6.248   7.203  2.0813  1.0589 -4.2594
  131OSM    C9F14141   4.532   6.415   7.345  0.1512  0.6962  0.2579
  131OSM    H9F14142   4.451   6.490   7.345 -2.6861 -2.1022 -0.8313
  131OSM   C10F14143   4.596   6.385   7.455 -0.3547 -0.0000  0.1238
  131OSM   H10F14144   4.582   6.444   7.546  2.0068  0.3540  0.2947
  131OSM   C11F14145   4.702   6.273   7.459 -0.3673  0.0456  0.7876
  131OSM   H11F14146   4.697   6.215   7.365  0.1114 -0.0126  0.7956
  131OSM   H11G14147   4.666   6.190   7.524  2.5585 -0.7646  1.4950
  131OSM   C12F14148   4.842   6.296   7.521 -0.8224 -0.3156 -0.5791
  131OSM   H12F14149   4.895   6.366   7.453 -0.7443 -0.1407 -0.3407
  131OSM   H12G14150   4.905   6.205   7.510  1.2366  1.0078 -0.3770
  131OSM   C13F14151   4.850   6.340   7.671 -0.0386  0.4098  0.5223
  131OSM   H13F14152   4.802   6.440   7.685 -0.6487  0.4016 -1.2696
  131OSM   H13G14153   4.957   6.342   7.702  0.2350 -0.0770 -0.3506
  131OSM   C14F14154   4.780   6.238   7.760 -0.4248 -0.2117  0.6530
  131OSM   H14F14155   4.841   6.145   7.754 -2.1463 -1.3318 -0.3643
  131OSM   H14G14156   4.680   6.207   7.724 -0.0803 -0.5954  0.0155
  131OSM   C15F14157   4.747   6.283   7.910  0.0680  0.3114  0.4748
  131OSM   H15F14158   4.678   6.212   7.958  0.4457  0.9924  2.0936
  131OSM   H15G14159   4.682   6.373   7.901 -0.6670 -0.2002  0.6587
  131OSM   C16F14160   4.874   6.312   7.994 -0.3883  0.2030  0.0318
  131OSM   H16F14161   4.941   6.381   7.937  0.1258  0.0314  0.4180
  131OSM   H16G14162   4.932   6.217   7.996 -3.8373 -2.0646 -0.4375
  131OSM   C17F14163   4.836   6.352   8.143  0.1803  0.0223  0.3139
  131OSM   H17F14164   4.833   6.253   8.195  0.9817  1.1533  2.6351
  131OSM   H17G14165   4.744   6.414   8.139  1.1290  1.4051 -1.1910
  131OSM   C18F14166   4.948   6.432   8.217 -0.6174 -0.4746  0.1383
  131OSM   H18F14167   4.935   6.455   8.325  3.6662  2.3384  0.3075
  131OSM   H18G14168   4.963   6.530   8.168 -1.4035  0.1612  1.1304
  131OSM   H18H14169   5.043   6.376   8.202 -0.7888 -0.3136 -1.7520
  132OSM      N14170   5.884   2.668   5.941  0.1165 -0.1576 -0.0242
  132OSM    C1514171   5.809   2.543   5.931 -0.0044  0.3184 -0.2257
  132OSM   H15A14172   5.790   2.515   6.034 -1.3579  0.2095 -0.4929
  132OSM   H15B14173   5.858   2.461   5.880  2.0258 -0.2096  2.3680
  132OSM   H15C14174   5.713   2.561   5.885 -0.1290 -2.0672 -1.0309
  132OSM    C1414175   6.008   2.654   6.008  0.2388 -0.3402 -0.0922
  132OSM   H14A14176   5.994   2.651   6.115 -1.3707 -0.4812 -0.2849
  132OSM   H14B14177   6.083   2.729   5.988 -0.2351 -0.4844 -2.8577
  132OSM   H14C14178   6.056   2.562   5.977  1.4335 -0.2914  1.4475
  132OSM    C1314179   5.920   2.719   5.808 -0.1220  0.2696  0.5980
  132OSM   H13A14180   5.840   2.745   5.741  0.8522  1.5455 -0.1090
  132OSM   H13B14181   5.988   2.652   5.757 -1.1208  0.1086 -0.5435
  132OSM   H13C14182   5.970   2.813   5.829 -0.2150  0.0254  2.0402
  132OSM    C1214183   5.798   2.774   6.015 -0.7726 -0.1963  0.4363
  132OSM   H12A14184   5.718   2.797   5.947 -1.6827 -3.8049  0.0894
  132OSM   H12B14185   5.867   2.856   6.029 -0.3676 -0.7498  1.9819
  132OSM    C1114186   5.741   2.742   6.152 -0.2120 -0.1159 -0.1113
  132OSM   H11A14187   5.677   2.653   6.135 -1.2454  0.5587  0.1464
  132OSM   H11B14188   5.681   2.829   6.185  1.2672  0.3788  1.4186
  132OSM      P14189   5.835   2.763   6.393 -0.2618 -0.0041 -0.0685
  132OSM    O1314190   5.926   2.681   6.480  0.8357 -0.0974  0.0168
  132OSM    O1414191   5.868   2.911   6.372  0.2079  0.7061 -0.3313
  132OSM    O1114192   5.687   2.742   6.445  0.4006 -0.0337  0.4479
  132OSM    O1214193   5.844   2.710   6.246  0.0937  0.0747 -0.0700
  132OSM    C1S14194   5.659   2.683   6.573 -0.0319 -0.3876 -0.5132
  132OSM    H1S14195   5.722   2.596   6.598 -0.5831 -1.2630 -2.0249
  132OSM    H1T14196   5.553   2.647   6.572 -0.1526 -0.0451 -1.3286
  132OSM     NF14197   5.632   2.719   6.811 -0.3024 -0.2263 -0.6358
  132OSM    HNF14198   5.542   2.736   6.849 -0.0600 -0.2045 -0.0536
  132OSM    C2S14199   5.667   2.792   6.690 -0.2291  0.4483 -0.2945
  132OSM    H2S14200   5.774   2.821   6.703 -0.1877 -0.0407  0.5402
  132OSM    C3S14201   5.580   2.921   6.667  0.1139  0.3220 -0.1800
  132OSM    H3S14202   5.474   2.898   6.693 -0.2550  1.5947 -0.4874
  132OSM     O314203   5.580   2.969   6.536 -0.3672  0.3087  0.5926
  132OSM    HO314204   5.627   2.901   6.487  0.0282  1.0757 -0.1329
  132OSM    C4S14205   5.630   3.037   6.750  0.7059 -0.4290  0.2923
  132OSM    H4S14206   5.739   3.051   6.749  0.9504 -2.1190  0.2419
  132OSM    C5S14207   5.543   3.116   6.808  0.6644  0.1695 -0.4792
  132OSM    H5S14208   5.436   3.090   6.803  0.5654  0.7182 -1.4070
  132OSM    C6S14209   5.587   3.236   6.885 -0.1644 -0.0655 -0.7753
  132OSM    H6S14210   5.542   3.327   6.839  1.2457  0.5853 -0.9025
  132OSM    H6T14211   5.697   3.239   6.898 -0.2407 -0.6357  0.0222
  132OSM    C7S14212   5.536   3.261   7.032 -0.1015 -0.6759  0.2549
  132OSM    H7S14213   5.428   3.290   7.035 -0.5514 -1.9235 -1.6930
  132OSM    H7T14214   5.577   3.356   7.073 -2.9352  1.2140 -0.9431
  132OSM    C8S14215   5.559   3.141   7.119 -0.3039 -0.7132 -0.0871
  132OSM    H8S14216   5.665   3.107   7.124 -0.1159  0.0826  3.4078
  132OSM    H8T14217   5.498   3.061   7.072 -2.4507  1.9450 -2.1500
  132OSM    C9S14218   5.520   3.161   7.267  0.6825  0.5909 -0.2581
  132OSM    H9S14219   5.411   3.180   7.265  0.2937 -1.4358 -1.1106
  132OSM    H9T14220   5.574   3.253   7.298 -1.2694  3.1301 -3.6981
  132OSM   C10S14221   5.547   3.044   7.355  0.5775  0.3054 -0.6110
  132OSM   H10S14222   5.656   3.036   7.377  0.2811  0.0258  0.9340
  132OSM   H10T14223   5.504   2.959   7.298 -3.1225 -0.0056  2.2626
  132OSM   C11S14224   5.475   3.047   7.491 -0.5946 -0.5522  0.1767
  132OSM   H11S14225   5.366   3.061   7.476 -0.4901 -0.2210 -0.2740
  132OSM   H11T14226   5.515   3.134   7.546 -1.0348  0.8953 -1.7109
  132OSM   C12S14227   5.514   2.924   7.581  0.0854  1.0402 -0.0742
  132OSM   H12S14228   5.614   2.879   7.562 -0.1345  1.0637 -1.3480
  132OSM   H12T14229   5.443   2.842   7.560  3.3984 -2.5058  1.4019
  132OSM   C13S14230   5.504   2.966   7.730 -0.1240 -1.2085  0.3901
  132OSM   H13S14231   5.400   2.997   7.750 -1.4511 -3.4004 -2.3658
  132OSM   H13T14232   5.573   3.051   7.750 -0.1327 -1.2595  0.6426
  132OSM   C14S14233   5.576   2.864   7.821  0.0777 -0.2659 -0.1470
  132OSM   H14S14234   5.679   2.860   7.780 -0.1237 -1.2761 -0.5918
  132OSM   H14T14235   5.528   2.764   7.819 -1.7684  0.5485  1.2071
  132OSM   C15S14236   5.589   2.896   7.970  0.4695  0.1324  0.2053
  132OSM   H15S14237   5.660   2.982   7.979 -0.1001  0.7205 -0.8039
  132OSM   H15T14238   5.647   2.819   8.025  3.6959  0.6447 -2.1810
  132OSM   C16S14239   5.454   2.927   8.041  0.1614 -0.1110 -0.6777
  132OSM   H16S14240   5.406   3.004   7.978 -1.1766  0.1355  0.6038
  132OSM   H16T14241   5.479   2.964   8.143 -4.2940 -1.8663  1.3015
  132OSM   C17S14242   5.352   2.808   8.053  0.2015  0.3507  0.3958
  132OSM   H17S14243   5.404   2.713   8.077 -0.0873 -0.2192 -1.1085
  132OSM   H17T14244   5.312   2.802   7.949  1.4214  1.2333 -0.1577
  132OSM   C18S14245   5.237   2.812   8.156 -0.3013 -0.9577  0.0230
  132OSM   H18S14246   5.272   2.871   8.244  0.7887  0.7075 -1.4763
  132OSM   H18T14247   5.187   2.719   8.191 -0.8203 -1.0858 -1.0250
  132OSM   H18U14248   5.148   2.869   8.121 -0.3847  0.2989  2.0576
  132OSM    C1F14249   5.710   2.634   6.880 -0.2750  0.7047 -0.0895
  132OSM     OF14250   5.825   2.609   6.834  0.2332  0.5206 -0.0900
  132OSM    C2F14251   5.652   2.566   7.000  0.2208 -0.3529  0.1866
  132OSM    H2F14252   5.572   2.496   6.967  0.0482  0.4360 -1.1831
  132OSM    H2G14253   5.594   2.636   7.064  1.1591  2.0875 -1.4662
  132OSM    C3F14254   5.774   2.490   7.068 -0.6518 -0.4951  0.0149
  132OSM    H3F14255   5.855   2.562   7.093 -0.0449 -1.2462  0.2743
  132OSM    H3G14256   5.822   2.417   6.998  0.0762  1.0880 -1.2154
  132OSM    C4F14257   5.746   2.402   7.198 -0.1142 -0.8577  0.9604
  132OSM    H4F14258   5.827   2.339   7.240 -1.9334 -3.8528  0.2585
  132OSM    H4G14259   5.664   2.328   7.182 -0.4112 -0.6863  1.6398
  132OSM    C5F14260   5.691   2.485   7.317 -0.0623  1.2185  0.4044
  132OSM    H5F14261   5.590   2.520   7.284 -2.6764 -3.2929  2.5833
  132OSM    H5G14262   5.758   2.569   7.343  1.0834  1.2658 -2.3124
  132OSM    C6F14263   5.667   2.403   7.445  0.0876  0.0584  0.1228
  132OSM    H6F14264   5.748   2.327   7.449  2.2536  2.1049 -1.7600
  132OSM    H6G14265   5.572   2.346   7.435  1.5693 -2.0036 -5.3927
  132OSM    C7F14266   5.670   2.485   7.575  0.3916  0.7645 -0.2642
  132OSM    H7F14267   5.613   2.432   7.654 -0.9303  1.5154 -0.6992
  132OSM    H7G14268   5.623   2.583   7.554 -0.6287  0.2140 -0.6301
  132OSM    C8F14269   5.811   2.524   7.625  0.9410  0.3718 -0.7622
  132OSM    H8F14270   5.878   2.576   7.553 -1.4648  2.1463 -1.8346
  132OSM    H8G14271   5.855   2.426   7.655 -2.3801 -1.1420 -0.4468
  132OSM    C9F14272   5.816   2.620   7.738  0.2688  0.3624  0.4054
  132OSM    H9F14273   5.816   2.728   7.716  0.0201  0.1315 -0.8303
  132OSM   C10F14274   5.810   2.574   7.865 -0.5199 -0.8543 -0.1096
  132OSM   H10F14275   5.823   2.656   7.937  2.5193 -0.2989 -1.1678
  132OSM   C11F14276   5.810   2.438   7.920  0.3237  0.7745 -1.2365
  132OSM   H11F14277   5.875   2.430   8.009 -2.1818 -0.8315  0.5975
  132OSM   H11G14278   5.836   2.358   7.847  0.5166 -0.0112 -0.3175
  132OSM   C12F14279   5.673   2.408   7.979 -0.4430  0.0778  0.1310
  132OSM   H12F14280   5.675   2.305   8.021 -1.4812  1.2317  3.3099
  132OSM   H12G14281   5.600   2.413   7.896 -0.0796  0.0377 -0.1958
  132OSM   C13F14282   5.627   2.506   8.093 -0.1170 -1.0457  0.6085
  132OSM   H13F14283   5.598   2.605   8.053  1.5723 -0.7531  0.0441
  132OSM   H13G14284   5.710   2.516   8.166 -0.8336  0.1076  1.2971
  132OSM   C14F14285   5.504   2.454   8.171  0.8680  0.2138 -0.1871
  132OSM   H14F14286   5.526   2.348   8.197 -0.2547  0.2587  1.0521
  132OSM   H14G14287   5.414   2.446   8.106 -1.0230  0.6979  2.2193
  132OSM   C15F14288   5.477   2.533   8.303 -0.1963  0.2416 -0.5220
  132OSM   H15F14289   5.462   2.643   8.295 -0.8250  0.4518  2.4921
  132OSM   H15G14290   5.565   2.528   8.370  0.7557  3.4198 -1.3490
  132OSM   C16F14291   5.359   2.474   8.373 -0.0634 -0.2720  0.0473
  132OSM   H16F14292   5.380   2.370   8.405 -1.4576 -0.3187  0.8635
  132OSM   H16G14293   5.260   2.477   8.323  0.7413 -1.9578 -1.7709
  132OSM   C17F14294   5.327   2.539   8.513 -0.7101 -0.4320  0.1458
  132OSM   H17F14295   5.291   2.642   8.492  1.2554  1.1889  3.7414
  132OSM   H17G14296   5.421   2.550   8.570 -1.8380 -0.9717  2.2148
  132OSM   C18F14297   5.231   2.459   8.603 -0.6348  0.2288 -0.2921
  132OSM   H18F14298   5.279   2.364   8.637  0.4723  0.1142 -2.0592
  132OSM   H18G14299   5.143   2.420   8.548  0.3565 -2.0633 -0.3743
  132OSM   H18H14300   5.199   2.521   8.690 -0.3509  0.5800 -0.4359
  133SAPE     N14301   0.205   3.451  10.778 -0.3369  0.4239  0.5300
  133SAPE   HN114302   0.148   3.537  10.795 -1.3534  0.3175 -1.9769
  133SAPE   HN214303   0.302   3.486  10.768 -0.1553 -0.6070 -1.9830
  133SAPE   HN314304   0.173   3.415  10.686 -0.4171 -1.4117  1.2375
  133SAPE   C1214305   0.187   3.356  10.887 -0.1759  0.1961 -0.2528
  133SAPE  H12A14306   0.197   3.406  10.986 -1.2042  1.1462 -0.6122
  133SAPE  H12B14307   0.264   3.276  10.882  2.2993  2.2150  2.1917
  133SAPE   C1114308   0.058   3.291  10.860 -0.0482 -0.2155  0.1171
  133SAPE  H11A14309  -0.020   3.364  10.828  0.5046  0.1306 -0.4916
  133SAPE  H11B14310   0.035   3.233  10.951 -0.2992 -4.2283 -2.2761
  133SAPE     P14311  -0.058   3.141  10.673 -0.0836 -0.2649  0.0754
  133SAPE   O1314312  -0.155   3.093  10.773  0.3730  0.0526  0.3268
  133SAPE   O1414313  -0.104   3.250  10.581  0.4084 -0.0378  0.0593
  133SAPE   O1214314   0.070   3.201  10.743 -0.1329 -0.4684  0.0860
  133SAPE   O1114315  -0.011   3.018  10.591  0.1286 -0.0349 -0.1418
  133SAPE    C114316   0.124   2.996  10.552 -0.4129 -0.0394 -0.1494
  133SAPE    HA14317   0.186   3.088  10.554  0.6972 -0.7805  0.2225
  133SAPE    HB14318   0.165   2.933  10.633 -1.3572  0.3606  0.6600
  133SAPE    C214319   0.127   2.947  10.405  0.4232  0.4292 -0.0443
  133SAPE    HS14320   0.036   2.888  10.383 -0.8201  3.1836 -3.1064
  133SAPE   O2114321   0.252   2.877  10.389  0.0887  0.2902 -0.1270
  133SAPE   C2114322   0.248   2.762  10.321  0.2109  0.2471 -0.5432
  133SAPE   O2214323   0.148   2.710  10.278 -0.2549 -0.2339  0.6770
  133SAPE   C2214324   0.384   2.710  10.312 -0.0946 -0.0499  0.3841
  133SAPE   H2R14325   0.454   2.787  10.352 -0.3438 -0.3147  1.3459
  133SAPE   H2S14326   0.409   2.626  10.380 -0.1234 -1.2998 -1.0935
  133SAPE    C314327   0.121   3.071  10.314  0.0285  0.4416  0.6308
  133SAPE    HX14328   0.216   3.128  10.326  0.1188  0.6138 -0.7297
  133SAPE    HY14329   0.040   3.139  10.347 -1.0863 -0.2628 -0.5630
  133SAPE   O3114330   0.084   3.032  10.177 -0.5548 -0.5473 -0.0610
  133SAPE   C3114331   0.181   2.992  10.109  0.0820  0.1621 -0.1431
  133SAPE   O3214332   0.303   3.006  10.121 -0.2182  0.4417 -0.7690
  133SAPE   C3214333   0.133   2.946   9.973  0.2498 -0.4850 -0.2129
  133SAPE   H2X14334   0.022   2.945   9.979  0.3032  0.0819  1.2296
  133SAPE   H2Y14335   0.165   2.840   9.959  0.3140 -0.7659  1.7643
  133SAPE   C2314336   0.433   2.655  10.174 -0.0013 -0.4854 -0.4519
  133SAPE   H3R14337   0.537   2.689  10.158 -0.0967  0.0352 -0.0289
  133SAPE   H3S14338   0.379   2.707  10.092  1.2189  1.1258 -0.2842
  133SAPE   C2414339   0.424   2.501  10.159 -0.0028 -0.5284  0.8214
  133SAPE   H4R14340   0.503   2.457  10.223  0.5326 -0.0591  0.4948
  133SAPE   H4S14341   0.460   2.470  10.059 -1.3230  2.1192 -0.5855
  133SAPE   C2514342   0.298   2.441  10.198  0.2651 -0.2428 -0.2671
  133SAPE   H5R14343   0.283   2.417  10.304  0.3669  2.4245  0.3948
  133SAPE   C2614344   0.189   2.420  10.118 -0.3546  0.6066 -0.2243
  133SAPE   H6R14345   0.099   2.382  10.168  0.6320 -1.6751 -0.0563
  133SAPE   C2714346   0.182   2.460   9.975 -0.6146 -0.2103 -0.2180
  133SAPE   H7R14347   0.285   2.480   9.939 -0.8063 -0.1291 -0.7357
  133SAPE   H7S14348   0.128   2.557   9.970 -3.1338 -1.5547 -0.8258
  133SAPE   C2814349   0.105   2.370   9.892  0.5403  0.4280  0.0487
  133SAPE   H8R14350   0.079   2.284   9.957  0.1468  1.6818  1.6280
  133SAPE   C2914351   0.097   2.360   9.764  0.0171 -0.3088  0.9864
  133SAPE   H9R14352   0.016   2.306   9.714 -0.1915  0.9101 -0.0417
  133SAPE  C21014353   0.162   2.455   9.666 -0.0108 -0.3968  0.1167
  133SAPE  H10R14354   0.219   2.534   9.719 -1.4720 -0.1014  1.2943
  133SAPE  H10S14355   0.082   2.514   9.616 -1.2580  0.1290  2.5913
  133SAPE  C21114356   0.258   2.384   9.568  0.1862 -0.2351 -0.4126
  133SAPE  H11R14357   0.320   2.310   9.621 -1.5468  0.0736  2.2253
  133SAPE  C21214358   0.270   2.389   9.433  0.3563 -0.3171  0.0158
  133SAPE  H12R14359   0.346   2.328   9.383  0.2028 -0.7584  0.3105
  133SAPE  C21314360   0.183   2.468   9.339  0.3341  0.3126  0.2571
  133SAPE  H13R14361   0.181   2.568   9.389 -0.2647  0.2458  0.3709
  133SAPE  H13S14362   0.079   2.430   9.329  1.3821 -2.9598  0.4875
  133SAPE  C21414363   0.253   2.479   9.201 -0.0567  0.3638  0.1020
  133SAPE  H14R14364   0.244   2.389   9.140 -0.2189  0.2714  0.2596
  133SAPE  C21514365   0.314   2.590   9.153  0.3292 -0.3022 -0.8938
  133SAPE  H15R14366   0.349   2.590   9.049 -0.7151 -0.8440 -1.2627
  133SAPE  C21614367   0.318   2.721   9.224 -0.2485  0.4970 -0.7434
  133SAPE  H16R14368   0.335   2.714   9.334 -1.0474  2.2914 -0.4802
  133SAPE  H16S14369   0.227   2.783   9.210 -0.1811  0.2957 -2.2469
  133SAPE  C21714370   0.416   2.815   9.156  0.0159 -0.3722  0.2377
  133SAPE  H17R14371   0.408   2.920   9.193 -0.5609  0.2117 -1.4766
  133SAPE  H17S14372   0.394   2.822   9.048 -0.5061  0.1839  0.3715
  133SAPE  C21814373   0.563   2.767   9.181  0.4199  0.1101  0.3658
  133SAPE  H18R14374   0.590   2.678   9.121 -1.9268 -0.2922 -0.2163
  133SAPE  H18S14375   0.578   2.758   9.291 -0.9588 -0.3810  0.5380
  133SAPE  C21914376   0.670   2.871   9.144 -0.0318 -0.1248  0.4867
  133SAPE  H19R14377   0.776   2.837   9.146  1.0679  2.9079 -0.1897
  133SAPE  H19S14378   0.657   2.955   9.216 -1.7316  1.2063 -1.2533
  133SAPE  C22014379   0.656   2.931   9.003  0.2276 -0.1752  0.5272
  133SAPE  H20R14380   0.684   2.862   8.922 -1.0759  1.1605 -1.1503
  133SAPE  H20S14381   0.727   3.016   8.990  0.8218 -0.5318  1.3567
  133SAPE  H20T14382   0.551   2.966   8.992  0.1377 -1.1020 -2.0803
  133SAPE   C3314383   0.184   3.028   9.859  0.1752  0.4282  0.5507
  133SAPE   H3X14384   0.295   3.028   9.865  0.3196 -0.6674 -1.3367
  133SAPE   H3Y14385   0.146   3.131   9.878  1.3772  0.8735  0.6354
  133SAPE   C3414386   0.131   2.975   9.720 -0.2115 -0.1007 -0.8508
  133SAPE   H4X14387   0.021   2.969   9.731 -0.0620 -0.4221  0.5641
  133SAPE   H4Y14388   0.157   2.870   9.696  0.3544 -0.4558  1.1700
  133SAPE   C3514389   0.164   3.078   9.616  0.0308 -0.1579  0.2559
  133SAPE   H5X14390   0.272   3.081   9.591 -0.1902 -0.4313 -0.7928
  133SAPE   H5Y14391   0.136   3.185   9.626  1.5406  0.3252 -0.3838
  133SAPE   C3614392   0.095   3.034   9.484  0.1615  0.1937  0.2166
  133SAPE   H6X14393  -0.015   3.043   9.493  0.1887 -0.2458  1.1714
  133SAPE   H6Y14394   0.123   2.927   9.472 -0.1694  0.3116 -1.9505
  133SAPE   C3714395   0.163   3.096   9.361  0.3224  0.5908 -0.4173
  133SAPE   H7X14396   0.124   3.032   9.279 -0.8764 -0.5095  0.9507
  133SAPE   H7Y14397   0.273   3.088   9.373  0.3030 -0.9406 -1.0000
  133SAPE   C3814398   0.108   3.230   9.326 -0.3491  0.2759  0.4606
  133SAPE   H8X14399   0.169   3.283   9.249 -0.8658  1.4190  0.8075
  133SAPE   H8Y14400   0.122   3.308   9.404 -0.0467  2.9516 -2.0691
  133SAPE   C3914401  -0.039   3.217   9.278  0.5874  0.0290  0.0788
  133SAPE   H9X14402  -0.103   3.215   9.369 -0.4786 -0.5105 -0.6667
  133SAPE   H9Y14403  -0.058   3.118   9.232  0.3521 -0.0333  0.3055
  133SAPE  C31014404  -0.078   3.337   9.189 -0.2733 -0.5016  0.1998
  133SAPE  H10X14405  -0.001   3.417   9.189  1.0570 -1.7432 -0.4854
  133SAPE  H10Y14406  -0.176   3.367   9.231  0.0400 -3.1293  3.2066
  133SAPE  C31114407  -0.104   3.297   9.038 -0.5567  0.6148  1.2098
  133SAPE  H11X14408  -0.199   3.243   9.019 -0.7311  1.4807 -0.5291
  133SAPE  H11Y14409  -0.015   3.237   9.011 -1.0925 -0.3575  1.5737
  133SAPE  C31214410  -0.112   3.417   8.929 -0.5773 -0.0888 -0.3016
  133SAPE  H12X14411  -0.198   3.484   8.953  1.6193  2.2928  1.5634
  133SAPE  H12Y14412  -0.128   3.358   8.837  0.3468 -1.8440  0.6139
  133SAPE  C31314413   0.013   3.505   8.913  0.2162  0.0340  0.1073
  133SAPE  H13X14414   0.093   3.428   8.904 -1.0970 -1.5298  1.1294
  133SAPE  H13Y14415   0.046   3.551   9.009 -0.1679 -1.9406  1.2403
  133SAPE  C31414416   0.003   3.614   8.801  0.0728  0.0316  0.1058
  133SAPE  H14X14417   0.075   3.690   8.838 -1.3583  0.0030  3.2193
  133SAPE  H14Y14418  -0.098   3.659   8.793  0.1322 -0.0807 -1.6349
  133SAPE  C31514419   0.048   3.557   8.661  0.1245  0.4721  0.0462
  133SAPE  H15X14420  -0.036   3.513   8.602 -1.5760  1.8266  1.3484
  133SAPE  H15Y14421   0.116   3.470   8.674 -1.5632 -1.0559 -0.8798
  133SAPE  C31614422   0.112   3.661   8.575  0.6371 -0.3017  0.6443
  133SAPE  H16X14423   0.035   3.737   8.553  0.2202  0.3638  3.8050
  133SAPE  H16Y14424   0.139   3.607   8.482  0.6076  0.0247  0.4481
  133SAPE  C31714425   0.233   3.740   8.628 -0.5572  0.2284  0.3153
  133SAPE  H17X14426   0.302   3.668   8.676  1.2280 -0.4910 -3.0542
  133SAPE  H17Y14427   0.213   3.815   8.708 -1.2755  0.9789 -0.5422
  133SAPE  C31814428   0.330   3.801   8.515 -0.3459 -0.1731  1.1049
  133SAPE  H18X14429   0.410   3.854   8.572 -0.0201 -1.6217  2.0412
  133SAPE  H18Y14430   0.280   3.884   8.459 -0.0797 -1.1978 -0.7361
  133SAPE  H18Z14431   0.379   3.720   8.456  0.4704  0.6626  0.5997
  134SAPE     N14432   4.129   2.640  10.955 -0.0518  0.1842 -0.2592
  134SAPE   HN114433   4.111   2.692  11.044  0.4502 -2.5676  1.5926
  134SAPE   HN214434   4.208   2.684  10.903 -0.2923 -0.4433 -1.1744
  134SAPE   HN314435   4.044   2.666  10.902  0.5944  1.5395 -0.6621
  134SAPE   C1214436   4.129   2.489  10.947  0.0714  0.2400 -0.1841
  134SAPE  H12A14437   4.042   2.450  11.004  1.7102 -2.9099  0.3549
  134SAPE  H12B14438   4.219   2.451  11.001  0.4610 -1.5949 -2.0143
  134SAPE   C1114439   4.106   2.440  10.808 -0.9893  0.9863  0.9676
  134SAPE  H11A14440   4.130   2.331  10.806  1.7698  1.5233  0.1312
  134SAPE  H11B14441   4.178   2.473  10.730  0.0885 -1.5822  0.7524
  134SAPE     P14442   3.910   2.577  10.698  0.4512 -0.1023  0.3625
  134SAPE   O1314443   3.767   2.545  10.667 -0.6198  0.4248  0.2368
  134SAPE   O1414444   3.919   2.693  10.783  0.0775 -0.5091 -0.0817
  134SAPE   O1214445   3.970   2.450  10.768 -0.1048  0.9095 -0.5366
  134SAPE   O1114446   3.993   2.589  10.564  0.5007 -0.2197 -0.1033
  134SAPE    C114447   3.984   2.499  10.457  0.6090 -0.2414  0.8419
  134SAPE    HA14448   3.891   2.439  10.462 -0.8411  1.6653 -1.2908
  134SAPE    HB14449   3.976   2.559  10.363 -2.3004 -2.5255 -0.5382
  134SAPE    C214450   4.111   2.404  10.440  0.2029 -0.0668  0.1281
  134SAPE    HS14451   4.093   2.323  10.514 -0.9024  0.4496  0.4370
  134SAPE   O2114452   4.237   2.477  10.474  0.4097 -0.6525  0.1546
  134SAPE   C2114453   4.334   2.396  10.507  0.6103  0.3446  0.4049
  134SAPE   O2214454   4.320   2.278  10.529 -0.2491  0.5230  0.3613
  134SAPE   C2214455   4.457   2.479  10.543  0.5305 -0.3648  0.4905
  134SAPE   H2R14456   4.517   2.499  10.452  0.8988 -2.7422  0.1347
  134SAPE   H2S14457   4.415   2.578  10.570  1.0972  0.7237 -2.2371
  134SAPE    C314458   4.111   2.326  10.304  0.1772  0.0744  0.7566
  134SAPE    HX14459   4.011   2.277  10.307 -0.6350  1.7230  1.8398
  134SAPE    HY14460   4.191   2.248  10.304 -2.6714 -3.0841  0.1140
  134SAPE   O3114461   4.126   2.417  10.189  0.4149  0.1117 -0.3125
  134SAPE   C3114462   4.249   2.438  10.150  0.2911  0.1628 -0.1000
  134SAPE   O3214463   4.348   2.391  10.204  0.1960 -0.0273 -0.1988
  134SAPE   C3214464   4.232   2.528  10.031 -0.1689  0.1667  0.2626
  134SAPE   H2X14465   4.137   2.501   9.981 -0.5083 -0.7856  1.3681
  134SAPE   H2Y14466   4.322   2.518   9.967 -0.8311 -0.1957 -0.6343
  134SAPE   C2314467   4.569   2.418  10.634 -0.3472 -0.1424  0.1288
  134SAPE   H3R14468   4.666   2.458  10.599 -0.3728  0.8898  1.1554
  134SAPE   H3S14469   4.591   2.311  10.615 -0.8082 -0.1751 -0.2385
  134SAPE   C2414470   4.549   2.445  10.786 -0.8382  0.1382 -0.6023
  134SAPE   H4R14471   4.442   2.441  10.812 -0.6054 -0.9019  0.2732
  134SAPE   H4S14472   4.579   2.551  10.804  0.7243 -0.1575 -1.2955
  134SAPE   C2514473   4.643   2.378  10.881  0.2163 -0.2179 -0.1823
  134SAPE   H5R14474   4.737   2.349  10.834  0.8906  1.6868 -0.1046
  134SAPE   C2614475   4.616   2.350  11.011 -0.6947 -0.2530  0.6618
  134SAPE   H6R14476   4.687   2.287  11.066  0.6023  2.7007  2.6010
  134SAPE   C2714477   4.491   2.373  11.083  0.7001 -0.0029  0.0678
  134SAPE   H7R14478   4.443   2.458  11.030  1.1304 -0.5527 -1.2610
  134SAPE   H7S14479   4.514   2.407  11.186 -0.8765 -1.0330  0.8098
  134SAPE   C2814480   4.409   2.250  11.086  0.2429  0.5310 -0.5986
  134SAPE   H8R14481   4.427   2.183  11.000  0.1600  0.4884 -0.5833
  134SAPE   C2914482   4.339   2.206  11.194 -0.8824  0.2838  0.6380
  134SAPE   H9R14483   4.298   2.105  11.179 -1.2692  0.8049 -2.4979
  134SAPE  C21014484   4.314   2.265  11.330 -0.1301 -0.5607 -0.1414
  134SAPE  H10R14485   4.211   2.242  11.364 -0.8659 -1.2198 -2.6567
  134SAPE  H10S14486   4.334   2.372  11.310 -0.0387 -0.7170 -0.9092
  134SAPE  C21114487   4.409   2.215  11.436 -0.8554 -0.0531  0.3878
  134SAPE  H11R14488   4.476   2.136  11.400 -2.9822 -0.7609 -2.3344
  134SAPE  C21214489   4.414   2.244  11.566 -0.5690 -0.5592 -0.6657
  134SAPE  H12R14490   4.495   2.211  11.633 -1.6448 -0.1903  0.8635
  134SAPE  C21314491   4.315   2.340  11.627  0.8891 -0.2825 -0.1677
  134SAPE  H13R14492   4.257   2.398  11.552 -0.3029  0.2376  1.1039
  134SAPE  H13S14493   4.360   2.426  11.681 -1.1336  0.6220  0.1671
  134SAPE  C21414494   4.224   2.269  11.721 -0.0005 -0.2475  0.0269
  134SAPE  H14R14495   4.236   2.161  11.735  1.0391 -0.3159 -1.1734
  134SAPE  C21514496   4.109   2.329  11.759  0.1810 -0.3320 -0.0153
  134SAPE  H15R14497   4.027   2.272  11.806 -1.4709  0.7136 -1.5076
  134SAPE  C21614498   4.070   2.476  11.737 -0.6880 -0.2618 -0.6164
  134SAPE  H16R14499   3.961   2.485  11.718 -0.8951 -0.0625  0.5816
  134SAPE  H16S14500   4.128   2.528  11.658 -1.1382  1.2311 -0.0074
  134SAPE  C21714501   4.110   2.570  11.855  0.9039  0.2303  0.4479
  134SAPE  H17R14502   4.099   2.677  11.827  1.0744 -0.1808 -1.3100
  134SAPE  H17S14503   4.218   2.554  11.875  0.2286 -2.2948  2.4714
  134SAPE  C21814504   4.041   2.545  11.992 -0.1464 -0.0804 -0.9775
  134SAPE  H18R14505   4.091   2.609  12.067  0.9323 -0.6000 -1.2416
  134SAPE  H18S14506   4.066   2.439  12.014 -1.6769 -1.0528 -3.4381
  134SAPE  C21914507   3.892   2.568  11.994  0.1902  0.8037  0.6782
  134SAPE  H19R14508   3.848   2.506  11.914  0.5293  0.9069  0.4116
  134SAPE  H19S14509   3.867   2.676  11.981 -2.2005  0.3496  1.0657
  134SAPE  C22014510   3.836   2.527  12.129 -0.4972  0.3925 -0.4412
  134SAPE  H20R14511   3.887   2.433  12.162  0.5958  1.2932  0.5309
  134SAPE  H20S14512   3.727   2.507  12.125 -0.2149 -1.4403  0.0467
  134SAPE  H20T14513   3.861   2.601  12.208 -1.2665 -1.1528  1.3219
  134SAPE   C3314514   4.220   2.678  10.072  0.2882  0.7106  0.3988
  134SAPE   H3X14515   4.320   2.717  10.100  0.2007  3.0492 -2.0942
  134SAPE   H3Y14516   4.156   2.691  10.162  2.1839 -1.1745  2.1204
  134SAPE   C3414517   4.157   2.761   9.953 -0.1163  0.0190 -0.2192
  134SAPE   H4X14518   4.125   2.859   9.995 -2.8327  0.3558 -2.7504
  134SAPE   H4Y14519   4.070   2.705   9.913 -1.5942  1.9284  0.1849
  134SAPE   C3514520   4.259   2.787   9.839 -0.0304 -0.0302  1.0154
  134SAPE   H5X14521   4.279   2.701   9.772 -2.9808 -0.0461 -0.0029
  134SAPE   H5Y14522   4.354   2.815   9.890  0.0843  1.9386 -0.1803
  134SAPE   C3614523   4.221   2.914   9.761  0.1230 -0.4882 -0.0632
  134SAPE   H6X14524   4.212   3.005   9.825  1.0193 -0.0573 -0.5362
  134SAPE   H6Y14525   4.118   2.899   9.721  0.1625 -0.0579 -0.3416
  134SAPE   C3714526   4.319   2.963   9.645  0.5523 -0.2376 -0.1095
  134SAPE   H7X14527   4.420   2.967   9.691  1.0203 -2.1735 -0.8553
  134SAPE   H7Y14528   4.280   3.060   9.607  1.8744  0.1402 -0.5730
  134SAPE   C3814529   4.331   2.867   9.528 -0.8539 -0.0786 -0.2221
  134SAPE   H8X14530   4.231   2.846   9.486 -0.5803 -1.4669 -0.2226
  134SAPE   H8Y14531   4.374   2.773   9.568 -3.6564 -1.0625  0.6937
  134SAPE   C3914532   4.433   2.915   9.423  0.6634  0.6008 -0.0307
  134SAPE   H9X14533   4.526   2.944   9.477  1.5198  0.8571 -1.5664
  134SAPE   H9Y14534   4.409   3.007   9.365  0.8044  1.3994  1.1533
  134SAPE  C31014535   4.456   2.800   9.323  0.2523 -0.4975 -0.6780
  134SAPE  H10X14536   4.363   2.741   9.308 -0.5571  0.2311  1.1535
  134SAPE  H10Y14537   4.533   2.734   9.369  2.6243  1.2415 -1.9179
  134SAPE  C31114538   4.500   2.846   9.185  0.0927 -0.1270 -0.4328
  134SAPE  H11X14539   4.594   2.795   9.153  0.4212 -1.1648  1.9685
  134SAPE  H11Y14540   4.523   2.955   9.194  2.4965 -0.7572  3.3494
  134SAPE  C31214541   4.396   2.824   9.067 -0.9946  0.0827 -0.2736
  134SAPE  H12X14542   4.371   2.716   9.059 -3.8643  0.5504  1.2066
  134SAPE  H12Y14543   4.455   2.866   8.982  0.2015  0.8203  0.8924
  134SAPE  C31314544   4.260   2.896   9.079 -0.0746  0.0310 -0.3562
  134SAPE  H13X14545   4.216   2.847   9.168  2.9654 -2.8702 -0.2514
  134SAPE  H13Y14546   4.186   2.869   9.001 -1.9936 -2.2329  2.0798
  134SAPE  C31414547   4.259   3.053   9.083 -0.3913 -0.1672 -0.2947
  134SAPE  H14X14548   4.297   3.109   8.995  0.0240 -2.2221 -1.4782
  134SAPE  H14Y14549   4.326   3.076   9.169 -0.4622  0.5422 -0.4234
  134SAPE  C31514550   4.115   3.101   9.128  0.0915  0.3488  0.4495
  134SAPE  H15X14551   4.033   3.037   9.088 -0.3886  2.0663 -1.4953
  134SAPE  H15Y14552   4.102   3.203   9.087  4.4985  1.0212  0.2815
  134SAPE  C31614553   4.116   3.100   9.279 -0.0525  0.3987 -1.4173
  134SAPE  H16X14554   4.195   3.163   9.327  1.2981 -2.2574  0.1567
  134SAPE  H16Y14555   4.143   2.994   9.302 -1.9667 -0.0408 -1.0156
  134SAPE  C31714556   3.978   3.122   9.337  0.1691 -0.5419  1.1295
  134SAPE  H17X14557   3.899   3.068   9.280 -2.4935  1.6622  2.5014
  134SAPE  H17Y14558   3.946   3.229   9.331  1.2254 -0.1963  1.5859
  134SAPE  C31814559   3.964   3.083   9.483 -0.8443  0.2145  0.5377
  134SAPE  H18X14560   3.971   2.972   9.481  3.4320  0.2933 -1.3044
  134SAPE  H18Y14561   3.865   3.106   9.528  1.2159  1.5225  5.0363
  134SAPE  H18Z14562   4.037   3.128   9.554  1.3558 -0.2122 -1.3403
  135SAPE     N14563   4.940   0.010  10.690  0.3201  0.2590  0.5804
  135SAPE   HN114564   4.959  -0.071  10.752  0.8554  1.4531  2.0743
  135SAPE   HN214565   5.021   0.071  10.716 -0.3626  0.3596  2.6267
  135SAPE   HN314566   4.855   0.063  10.718  0.8242  1.1665  0.4532
  135SAPE   C1214567   4.940  -0.016  10.541  0.3862  0.3638  0.5369
  135SAPE  H12A14568   5.024  -0.083  10.513 -0.3369  0.2450 -1.5594
  135SAPE  H12B14569   4.937   0.089  10.506 -1.2777  0.2938  0.3757
  135SAPE   C1114570   4.807  -0.072  10.490 -0.2415  0.5100  0.0057
  135SAPE  H11A14571   4.806  -0.066  10.379 -2.9156  5.1101  0.0006
  135SAPE  H11B14572   4.722  -0.003  10.514 -0.5396  0.8864 -1.9670
  135SAPE     P14573   4.791  -0.326  10.477  0.3831 -0.1611  0.5543
  135SAPE   O1314574   4.924  -0.309  10.414 -0.0818  0.2437 -0.4779
  135SAPE   O1414575   4.772  -0.442  10.570 -0.6910 -0.0076  0.2535
  135SAPE   O1214576   4.765  -0.191  10.553  0.5184 -0.0271  0.1875
  135SAPE   O1114577   4.676  -0.329  10.361 -0.7961  0.1916  0.5418
  135SAPE    C114578   4.546  -0.318  10.422 -0.8935  0.4226 -0.4215
  135SAPE    HA14579   4.544  -0.354  10.527  2.0581 -3.3874 -1.4303
  135SAPE    HB14580   4.526  -0.209  10.427  1.4372  0.8657  3.4402
  135SAPE    C214581   4.438  -0.390  10.337  0.2768 -0.3830  0.2759
  135SAPE    HS14582   4.433  -0.499  10.357 -2.2269 -0.6449 -1.3380
  135SAPE   O2114583   4.450  -0.382  10.197 -0.1590 -0.1605 -0.2683
  135SAPE   C2114584   4.529  -0.466  10.134 -0.4387  0.6708 -0.7902
  135SAPE   O2214585   4.571  -0.574  10.180 -0.3637 -0.1225  0.1991
  135SAPE   C2214586   4.565  -0.413   9.995  0.2508 -0.8484 -0.6369
  135SAPE   H2R14587   4.521  -0.314   9.970  1.7321 -0.2527 -0.9949
  135SAPE   H2S14588   4.673  -0.390   9.987 -0.2023  1.1916 -1.4303
  135SAPE    C314589   4.305  -0.324  10.376 -0.1215 -0.0770 -0.0259
  135SAPE    HX14590   4.310  -0.220  10.339  0.7031  0.0729  0.4737
  135SAPE    HY14591   4.293  -0.333  10.486 -0.5677  0.1313 -0.0547
  135SAPE   O3114592   4.196  -0.407  10.314  0.1327 -0.0777  0.1279
  135SAPE   C3114593   4.102  -0.335  10.252  0.8002  0.0556  0.7426
  135SAPE   O3214594   4.102  -0.213  10.245  0.4107  0.2037 -0.3927
  135SAPE   C3214595   4.029  -0.436  10.159 -0.0712 -0.2082 -0.1432
  135SAPE   H2X14596   3.924  -0.402  10.150  0.5740  1.3611 -2.4740
  135SAPE   H2Y14597   4.039  -0.542  10.193 -0.9052  0.2667  1.7061
  135SAPE   C2314598   4.508  -0.505   9.891 -0.2728  0.1691  0.7980
  135SAPE   H3R14599   4.397  -0.510   9.895 -0.4041  0.7875 -1.1018
  135SAPE   H3S14600   4.535  -0.609   9.916 -0.9698 -0.3415 -0.4910
  135SAPE   C2414601   4.556  -0.466   9.748  0.0335 -0.0856 -0.3575
  135SAPE   H4R14602   4.538  -0.358   9.731  1.3609  0.5492  1.8887
  135SAPE   H4S14603   4.501  -0.523   9.671  0.2741  0.1651 -0.7192
  135SAPE   C2514604   4.703  -0.495   9.722  0.2345  0.5711  0.0459
  135SAPE   H5R14605   4.738  -0.595   9.755  1.2242  1.4492  1.8127
  135SAPE   C2614606   4.789  -0.404   9.675 -0.3317 -0.1098  0.2763
  135SAPE   H6R14607   4.889  -0.434   9.639 -1.1471 -0.4280 -1.8975
  135SAPE   C2714608   4.759  -0.253   9.644 -0.5226  0.3528 -0.0668
  135SAPE   H7R14609   4.671  -0.246   9.578  0.9575 -0.5017 -2.2501
  135SAPE   H7S14610   4.840  -0.218   9.577 -1.0586  2.7820  0.4784
  135SAPE   C2814611   4.757  -0.162   9.762 -0.1649 -0.5320  0.3960
  135SAPE   H8R14612   4.663  -0.165   9.818 -1.0786  0.1191 -1.0463
  135SAPE   C2914613   4.850  -0.066   9.791 -0.4545 -0.6177  0.6288
  135SAPE   H9R14614   4.835  -0.012   9.886  0.4350 -0.2571  0.5796
  135SAPE  C21014615   4.976  -0.027   9.719  0.2610 -0.4670 -0.4073
  135SAPE  H10R14616   4.999  -0.089   9.630  1.6855  0.0945 -0.4537
  135SAPE  H10S14617   5.068  -0.049   9.777  0.1700  1.5860  0.6102
  135SAPE  C21114618   4.982   0.118   9.690 -0.1534 -0.7040  0.2442
  135SAPE  H11R14619   4.952   0.178   9.778 -0.6186 -0.1821 -0.2647
  135SAPE  C21214620   5.013   0.177   9.569 -0.8174  0.5359 -0.4473
  135SAPE  H12R14621   5.004   0.287   9.564 -3.0951  0.5900  2.4281
  135SAPE  C21314622   5.059   0.102   9.447 -0.2963  0.0008  0.5229
  135SAPE  H13R14623   5.032  -0.005   9.456  2.1966 -0.6556  0.8048
  135SAPE  H13S14624   5.169   0.104   9.435 -0.3073 -0.2214  0.3788
  135SAPE  C21414625   5.001   0.166   9.320 -1.3535  0.3142  0.4977
  135SAPE  H14R14626   5.030   0.271   9.302 -1.2321  0.4549  1.4829
  135SAPE  C21514627   4.946   0.097   9.220  0.2326 -0.1145  0.3990
  135SAPE  H15R14628   4.918   0.154   9.130 -0.6532  2.1104  1.9903
  135SAPE  C21614629   4.927  -0.051   9.215  0.0135  0.1398 -0.2994
  135SAPE  H16R14630   5.004  -0.098   9.280 -0.5500 -0.7950 -0.3025
  135SAPE  H16S14631   4.943  -0.085   9.111 -1.9352 -2.6044  0.1839
  135SAPE  C21714632   4.786  -0.100   9.245  0.1561 -0.6739  0.4844
  135SAPE  H17R14633   4.703  -0.043   9.197 -0.7549 -1.3018  1.2758
  135SAPE  H17S14634   4.757  -0.090   9.352 -0.3476  1.7969  0.1769
  135SAPE  C21814635   4.759  -0.243   9.184  0.1992 -0.0270  0.2465
  135SAPE  H18R14636   4.861  -0.288   9.194  0.6436  0.8034 -0.4493
  135SAPE  H18S14637   4.743  -0.227   9.076 -1.3012 -0.3655  0.3943
  135SAPE  C21914638   4.648  -0.328   9.246 -0.1686  0.1647 -0.2718
  135SAPE  H19R14639   4.555  -0.270   9.266  1.0542  1.6426  1.5040
  135SAPE  H19S14640   4.681  -0.362   9.347 -0.2537 -2.6159 -1.0822
  135SAPE  C22014641   4.631  -0.456   9.163  0.2037 -0.4633 -0.7364
  135SAPE  H20R14642   4.568  -0.531   9.216 -0.1092  0.4685  0.2263
  135SAPE  H20S14643   4.733  -0.492   9.137  0.3322  1.2482 -2.8993
  135SAPE  H20T14644   4.593  -0.420   9.065  2.1048 -1.0524 -1.7365
  135SAPE   C3314645   4.098  -0.445  10.020 -0.7927  0.3458 -0.4584
  135SAPE   H3X14646   4.197  -0.493  10.034 -1.4238 -0.7993  0.2085
  135SAPE   H3Y14647   4.126  -0.345   9.981 -1.4429  1.3028  1.4118
  135SAPE   C3414648   4.015  -0.518   9.914  0.3958 -0.1023 -0.1834
  135SAPE   H4X14649   3.920  -0.461   9.912 -0.3249 -1.2688 -0.0674
  135SAPE   H4Y14650   3.992  -0.620   9.952 -1.1667  0.0389 -0.6908
  135SAPE   C3514651   4.083  -0.505   9.784 -0.3520 -0.0660  0.2186
  135SAPE   H5X14652   4.184  -0.549   9.787 -0.1447  0.2102 -1.5172
  135SAPE   H5Y14653   4.100  -0.396   9.772  1.6189 -0.2895  0.6414
  135SAPE   C3614654   4.007  -0.550   9.663 -0.9059  0.2082 -0.7987
  135SAPE   H6X14655   3.913  -0.491   9.664 -0.8507  0.3021  0.4395
  135SAPE   H6Y14656   3.981  -0.658   9.666 -0.3472  0.0466 -1.4523
  135SAPE   C3714657   4.068  -0.514   9.529 -0.8613  0.7182 -0.1823
  135SAPE   H7X14658   4.084  -0.404   9.518 -2.1636  0.7308 -2.8205
  135SAPE   H7Y14659   3.999  -0.542   9.446 -1.1050  0.9282 -0.0537
  135SAPE   C3814660   4.196  -0.599   9.491  0.4592 -0.3077 -0.0113
  135SAPE   H8X14661   4.177  -0.707   9.475  0.3271 -0.0176 -2.1134
  135SAPE   H8Y14662   4.278  -0.594   9.566  1.4231  1.1591 -1.1181
  135SAPE   C3914663   4.262  -0.544   9.363  0.8329 -0.9790  0.4606
  135SAPE   H9X14664   4.334  -0.622   9.332  1.1418 -0.3368 -0.5014
  135SAPE   H9Y14665   4.318  -0.451   9.386  0.4212  0.6100 -3.9068
  135SAPE  C31014666   4.160  -0.516   9.244 -0.6326  0.1045  0.0745
  135SAPE  H10X14667   4.108  -0.423   9.278  1.2803  1.3029 -0.1599
  135SAPE  H10Y14668   4.091  -0.603   9.233 -0.5547  0.0815 -0.2382
  135SAPE  C31114669   4.240  -0.498   9.115 -0.1286 -0.4275 -0.0756
  135SAPE  H11X14670   4.283  -0.596   9.086 -1.8459 -0.7231 -1.8228
  135SAPE  H11Y14671   4.316  -0.419   9.132 -0.1955 -0.4395  0.3010
  135SAPE  C31214672   4.142  -0.451   9.002 -0.8538 -0.4457  0.0401
  135SAPE  H12X14673   4.195  -0.432   8.906 -1.8215  0.5404 -0.3155
  135SAPE  H12Y14674   4.104  -0.349   9.024 -0.2511 -0.0662 -0.6409
  135SAPE  C31314675   4.033  -0.553   8.967  0.0564  1.0065  0.1166
  135SAPE  H13X14676   3.984  -0.608   9.050  0.8112  1.5577  0.9492
  135SAPE  H13Y14677   4.072  -0.637   8.906 -3.3893 -1.4510  0.9769
  135SAPE  C31414678   3.932  -0.498   8.871  0.2223  0.0540  0.0760
  135SAPE  H14X14679   3.881  -0.410   8.915 -0.5677 -0.6441  0.5709
  135SAPE  H14Y14680   3.859  -0.582   8.868 -1.2142  1.2775 -0.0950
  135SAPE  C31514681   3.977  -0.461   8.727 -0.4113 -0.1720 -0.1152
  135SAPE  H15X14682   4.017  -0.546   8.669 -3.0402  0.0267 -2.4279
  135SAPE  H15Y14683   4.040  -0.369   8.728 -3.6915  2.2319  0.2101
  135SAPE  C31614684   3.865  -0.419   8.631  0.6008 -0.0628 -0.3259
  135SAPE  H16X14685   3.824  -0.319   8.659 -1.5070 -0.8816 -0.3761
  135SAPE  H16Y14686   3.782  -0.490   8.644 -0.6909  1.2409 -1.1847
  135SAPE  C31714687   3.901  -0.439   8.482 -0.3171  0.2981 -0.4105
  135SAPE  H17X14688   3.811  -0.433   8.417 -0.5430 -2.7250 -0.5348
  135SAPE  H17Y14689   3.928  -0.546   8.469 -2.9597 -0.4029 -0.7385
  135SAPE  C31814690   4.010  -0.339   8.433  0.5141  0.2890  0.6096
  135SAPE  H18X14691   4.023  -0.365   8.325  1.2986  1.7434  0.3281
  135SAPE  H18Y14692   4.111  -0.363   8.472  0.8814  0.6204 -0.1228
  135SAPE  H18Z14693   3.985  -0.233   8.456 -0.7652  0.1576 -0.0949
  136SAPE     N14694   6.589   2.007  10.907 -0.6045  0.0822 -0.4465
  136SAPE   HN114695   6.657   2.080  10.879 -0.1859  0.0320  0.4164
  136SAPE   HN214696   6.511   2.008  10.838 -1.2335  1.8292  0.2327
  136SAPE   HN314697   6.543   2.027  10.998  1.0713 -1.6659  0.8604
  136SAPE   C1214698   6.655   1.868  10.902  0.5057 -0.0648  0.5662
  136SAPE  H12A14699   6.572   1.796  10.920  0.1368  0.4220  0.8246
  136SAPE  H12B14700   6.730   1.845  10.981  0.4516 -2.3941  0.0063
  136SAPE   C1114701   6.717   1.834  10.772  0.0478  0.1320 -0.4617
  136SAPE  H11A14702   6.786   1.914  10.737  1.8673 -1.1140  0.1027
  136SAPE  H11B14703   6.636   1.825  10.696 -1.9257 -1.3877  1.7082
  136SAPE     P14704   6.945   1.695  10.776 -0.3462  0.3569 -0.1489
  136SAPE   O1314705   7.018   1.814  10.804  0.2154 -0.1423  0.1651
  136SAPE   O1414706   6.976   1.572  10.850  0.6317 -0.0086 -0.3687
  136SAPE   O1214707   6.787   1.706  10.783  0.4321 -0.4695  0.4670
  136SAPE   O1114708   6.973   1.649  10.625 -0.3404 -0.0635 -0.5791
  136SAPE    C114709   7.016   1.736  10.521 -0.1388  0.4424 -0.6766
  136SAPE    HA14710   6.934   1.744  10.446 -0.7015 -1.4856 -0.3179
  136SAPE    HB14711   7.046   1.837  10.557  0.1927  0.5065 -1.1243
  136SAPE    C214712   7.133   1.668  10.447  0.4311  0.1387 -0.1803
  136SAPE    HS14713   7.218   1.653  10.516  2.1501  1.9669 -1.7983
  136SAPE   O2114714   7.166   1.757  10.335  0.2222 -0.1989  0.1911
  136SAPE   C2114715   7.246   1.855  10.373  0.6293 -0.6127  0.2214
  136SAPE   O2214716   7.297   1.862  10.483 -0.2678 -0.6532  0.2403
  136SAPE   C2214717   7.260   1.958  10.257 -0.4897  0.1342  0.3557
  136SAPE   H2R14718   7.323   1.906  10.182  0.3146 -0.1430  1.2061
  136SAPE   H2S14719   7.161   1.982  10.212 -1.0128  0.1398  1.4808
  136SAPE    C314720   7.102   1.520  10.396 -0.3433 -0.2788  0.4503
  136SAPE    HX14721   7.082   1.447  10.478 -0.0222 -1.9903 -0.9331
  136SAPE    HY14722   7.189   1.480  10.340 -0.5470 -1.4773  0.9432
  136SAPE   O3114723   6.989   1.521  10.311  0.2917 -0.3701  0.4651
  136SAPE   C3114724   6.999   1.484  10.175  0.4939  0.1052 -0.9642
  136SAPE   O3214725   7.096   1.413  10.139  0.2843  0.1407 -0.0022
  136SAPE   C3214726   6.873   1.518  10.100  0.1303  0.4430 -0.1344
  136SAPE   H2X14727   6.834   1.622  10.110 -4.2744 -1.1080  0.7039
  136SAPE   H2Y14728   6.792   1.452  10.136 -2.2918  0.8236 -4.2377
  136SAPE   C2314729   7.330   2.092  10.290 -0.8793 -0.5780 -0.1980
  136SAPE   H3R14730   7.421   2.088  10.354 -0.3472  1.0964 -0.7852
  136SAPE   H3S14731   7.259   2.170  10.324 -1.7506 -1.2257 -0.5288
  136SAPE   C2414732   7.386   2.133  10.150  1.1330  0.3240  0.0110
  136SAPE   H4R14733   7.469   2.069  10.113 -0.3435 -0.9688 -1.2190
  136SAPE   H4S14734   7.432   2.233  10.159 -1.5750  1.8014 -1.1154
  136SAPE   C2514735   7.277   2.156  10.043 -0.1012  0.9244 -0.3446
  136SAPE   H5R14736   7.190   2.217  10.071 -0.4888  0.1387  0.2015
  136SAPE   C2614737   7.265   2.104   9.921  0.3649  0.2894  1.0462
  136SAPE   H6R14738   7.174   2.123   9.862  1.2492  0.6275 -0.2521
  136SAPE   C2714739   7.362   2.005   9.851  0.2667 -0.1332 -0.2993
  136SAPE   H7R14740   7.444   1.961   9.912  0.5930  0.2087 -0.4851
  136SAPE   H7S14741   7.417   2.067   9.776 -0.8259 -2.1284 -2.9320
  136SAPE   C2814742   7.296   1.893   9.777  0.0817 -0.6222  1.0215
  136SAPE   H8R14743   7.290   1.799   9.834 -2.5530 -1.9994 -1.2931
  136SAPE   C2914744   7.232   1.886   9.653 -0.0980 -0.2306  0.1652
  136SAPE   H9R14745   7.198   1.787   9.620  0.0027 -0.1893 -0.0649
  136SAPE  C21014746   7.228   1.996   9.548 -0.4763 -0.3170  0.3381
  136SAPE  H10R14747   7.292   2.076   9.590  0.8245 -1.9831  1.6479
  136SAPE  H10S14748   7.130   2.049   9.537  1.0424  2.5116 -0.5173
  136SAPE  C21114749   7.282   1.953   9.418  0.2182  0.7667  0.2526
  136SAPE  H11R14750   7.391   1.962   9.408  0.5363 -0.8932  1.6662
  136SAPE  C21214751   7.214   1.900   9.320  0.0166 -0.5218  0.4259
  136SAPE  H12R14752   7.264   1.877   9.225  1.5481  0.6922  0.8851
  136SAPE  C21314753   7.067   1.879   9.326  0.1449 -0.1306 -0.5061
  136SAPE  H13R14754   7.046   1.863   9.434  0.8224 -0.1083 -0.3633
  136SAPE  H13S14755   7.034   1.787   9.275  1.4560  0.1769 -1.9957
  136SAPE  C21414756   6.976   1.985   9.273  0.7956  1.0020  0.1347
  136SAPE  H14R14757   6.922   2.039   9.352 -0.5084  1.4697 -1.0331
  136SAPE  C21514758   6.938   2.006   9.144 -0.8835 -0.7234 -0.6081
  136SAPE  H15R14759   6.859   2.079   9.124 -0.3696 -0.5634 -2.2177
  136SAPE  C21614760   7.008   1.929   9.030  0.1409  0.3371 -0.3395
  136SAPE  H16R14761   7.047   1.828   9.058  0.4539  1.0756  2.0728
  136SAPE  H16S14762   7.095   1.995   9.011  0.2244  0.0438 -1.0219
  136SAPE  C21714763   6.934   1.928   8.895 -0.9924  0.3028 -0.0267
  136SAPE  H17R14764   6.919   2.034   8.866 -1.1391  0.1638 -0.4753
  136SAPE  H17S14765   6.839   1.872   8.913 -0.4489 -0.8749 -0.6733
  136SAPE  C21814766   7.018   1.868   8.774  0.2686 -0.0494 -0.3448
  136SAPE  H18R14767   7.042   1.760   8.769  2.4310  0.4413 -2.7925
  136SAPE  H18S14768   7.110   1.928   8.760  0.6015  0.0621  1.9356
  136SAPE  C21914769   6.939   1.906   8.652  0.0731  0.6742 -0.7783
  136SAPE  H19R14770   7.005   1.904   8.563  0.2254  0.3883 -0.6591
  136SAPE  H19S14771   6.906   2.012   8.663  1.6038  1.2936 -1.8052
  136SAPE  C22014772   6.827   1.806   8.624  0.1065 -0.5364  0.6448
  136SAPE  H20R14773   6.790   1.809   8.519  2.4975 -0.0035 -0.2461
  136SAPE  H20S14774   6.745   1.805   8.700 -1.4357 -0.2806 -0.9440
  136SAPE  H20T14775   6.861   1.700   8.628 -0.1615 -0.6925 -0.8078
  136SAPE   C3314776   6.894   1.479   9.947  0.0356 -0.2969 -0.3824
  136SAPE   H3X14777   6.932   1.374   9.942  3.5564  0.8974 -3.3273
  136SAPE   H3Y14778   6.980   1.537   9.907 -0.9766 -0.1880 -2.5549
  136SAPE   C3414779   6.783   1.505   9.846 -0.1264 -0.7627  0.3693
  136SAPE   H4X14780   6.764   1.610   9.817  3.1434  0.2149  1.3825
  136SAPE   H4Y14781   6.692   1.462   9.893  0.5839 -1.3200  1.2699
  136SAPE   C3514782   6.821   1.437   9.707  0.1338  0.1100 -0.1560
  136SAPE   H5X14783   6.721   1.435   9.659 -1.0454 -2.2356  2.0970
  136SAPE   H5Y14784   6.872   1.339   9.715  3.3273  1.6690  0.2250
  136SAPE   C3614785   6.915   1.529   9.631 -0.7756  0.3246  0.5304
  136SAPE   H6X14786   7.011   1.553   9.681 -1.1649  1.3605  0.8230
  136SAPE   H6Y14787   6.871   1.631   9.622 -1.9485 -0.1193  1.0147
  136SAPE   C3714788   6.954   1.469   9.494  0.3031 -0.4661 -0.0680
  136SAPE   H7X14789   6.935   1.359   9.493 -1.9490 -0.1210 -1.3403
  136SAPE   H7Y14790   7.061   1.474   9.465  0.1307 -0.2149 -0.6714
  136SAPE   C3814791   6.874   1.538   9.376  0.0705  0.4063 -0.0516
  136SAPE   H8X14792   6.890   1.648   9.375  0.4879  0.3539 -1.4006
  136SAPE   H8Y14793   6.764   1.524   9.383  0.3265 -1.4802  0.7111
  136SAPE   C3914794   6.918   1.490   9.240 -0.0047 -0.0737  0.0863
  136SAPE   H9X14795   6.912   1.379   9.249  0.5783 -0.0785  0.4900
  136SAPE   H9Y14796   7.022   1.524   9.222 -0.2894  1.8446  1.7223
  136SAPE  C31014797   6.833   1.548   9.117  0.1625  0.4009 -0.4295
  136SAPE  H10X14798   6.836   1.657   9.133 -1.9740  0.6232 -1.1827
  136SAPE  H10Y14799   6.730   1.512   9.137  0.4524  1.1807  2.9319
  136SAPE  C31114800   6.885   1.490   8.986  1.3376  0.7793 -0.5154
  136SAPE  H11X14801   6.995   1.501   8.989  1.4251 -0.0444 -0.4533
  136SAPE  H11Y14802   6.836   1.553   8.909 -1.7756 -1.5356 -0.6318
  136SAPE  C31214803   6.842   1.346   8.965  0.2462  0.6832 -0.2582
  136SAPE  H12X14804   6.874   1.280   9.049  1.0029 -0.2291 -1.2357
  136SAPE  H12Y14805   6.895   1.300   8.879  1.1898  0.1121  0.5979
  136SAPE  C31314806   6.693   1.328   8.938 -0.3555 -0.5362 -0.3326
  136SAPE  H13X14807   6.656   1.425   8.900  1.3515  0.7217  0.9927
  136SAPE  H13Y14808   6.649   1.314   9.039  3.1604 -1.6684  1.2108
  136SAPE  C31414809   6.640   1.219   8.839 -0.0106  0.4889  0.4558
  136SAPE  H14X14810   6.533   1.226   8.811 -0.4778  0.0194  2.0617
  136SAPE  H14Y14811   6.653   1.116   8.877  3.3798  0.5339 -0.2920
  136SAPE  C31514812   6.722   1.213   8.710  0.7275  0.0643 -0.1114
  136SAPE  H15X14813   6.813   1.154   8.732 -0.0509 -0.2224  2.7408
  136SAPE  H15Y14814   6.740   1.317   8.674  2.5803  0.1012  0.8209
  136SAPE  C31614815   6.650   1.126   8.605  0.0748 -0.4198  0.0311
  136SAPE  H16X14816   6.550   1.171   8.587  0.2252  0.6623  1.6375
  136SAPE  H16Y14817   6.632   1.022   8.641 -1.2879 -0.1038  0.3390
  136SAPE  C31714818   6.698   1.109   8.462 -0.0808 -0.5906  0.0460
  136SAPE  H17X14819   6.697   1.202   8.402 -3.5676 -1.0779 -0.8520
  136SAPE  H17Y14820   6.625   1.046   8.407 -0.3349 -1.1265  0.9726
  136SAPE  C31814821   6.830   1.027   8.447 -0.2367  0.2452  1.1274
  136SAPE  H18X14822   6.813   0.925   8.489  2.0908 -0.3021  0.8811
  136SAPE  H18Y14823   6.910   1.070   8.511  0.3454 -1.3545  1.5151
  136SAPE  H18Z14824   6.864   1.017   8.342  2.2743  1.8159  1.6948
  137SAPE     N14825   3.902   4.590  10.767 -0.4941 -0.0621 -0.2645
  137SAPE   HN114826   3.852   4.681  10.757 -0.3180  0.3077  1.8610
  137SAPE   HN214827   3.974   4.592  10.692 -0.7989  0.7840 -0.5418
  137SAPE   HN314828   3.830   4.518  10.745 -1.0891 -0.0797  1.5646
  137SAPE   C1214829   3.966   4.564  10.903  0.1569  0.5117  0.3900
  137SAPE  H12A14830   3.953   4.454  10.918  1.8372  0.3304  0.7182
  137SAPE  H12B14831   3.899   4.615  10.976 -0.6958 -0.3579  0.2516
  137SAPE   C1114832   4.108   4.606  10.910 -0.4227  0.6787  0.4128
  137SAPE  H11A14833   4.152   4.574  11.006 -0.6929 -2.2661 -0.3507
  137SAPE  H11B14834   4.127   4.715  10.900  0.4507  0.4698 -0.4117
  137SAPE     P14835   4.322   4.478  10.834  0.0364 -0.3301 -0.1031
  137SAPE   O1314836   4.409   4.581  10.898 -0.5571 -0.5406  0.5078
  137SAPE   O1414837   4.307   4.351  10.903  0.2933  0.3994  0.1587
  137SAPE   O1214838   4.181   4.540  10.799  0.5985 -0.1579  0.1912
  137SAPE   O1114839   4.382   4.448  10.691 -0.0838  0.5247  0.5984
  137SAPE    C114840   4.498   4.519  10.654  0.1613  0.4514  0.2884
  137SAPE    HA14841   4.470   4.626  10.639 -0.0744  0.3054 -0.3283
  137SAPE    HB14842   4.572   4.514  10.736 -1.7474 -1.3246  2.0251
  137SAPE    C214843   4.560   4.455  10.521  0.2475 -0.1253  0.2747
  137SAPE    HS14844   4.645   4.512  10.479  0.1708 -0.0078  0.2782
  137SAPE   O2114845   4.453   4.441  10.412 -0.6501  0.5315 -0.2360
  137SAPE   C2114846   4.429   4.556  10.345  0.7473 -0.0542  0.1768
  137SAPE   O2214847   4.494   4.658  10.355 -0.1652 -0.2758 -0.0352
  137SAPE   C2214848   4.294   4.542  10.274  0.7409  0.1261  0.0615
  137SAPE   H2R14849   4.331   4.474  10.194 -1.2131  0.9933 -1.6744
  137SAPE   H2S14850   4.227   4.482  10.339  2.1916 -0.2300  1.2855
  137SAPE    C314851   4.605   4.310  10.550 -0.6713 -0.2326  0.5166
  137SAPE    HX14852   4.522   4.250  10.594  0.6888 -2.1750  0.5736
  137SAPE    HY14853   4.684   4.308  10.628  1.0090 -0.6130 -1.1312
  137SAPE   O3114854   4.663   4.253  10.429  0.2504  0.9012 -0.3875
  137SAPE   C3114855   4.636   4.123  10.405 -0.1897 -0.1346 -0.1662
  137SAPE   O3214856   4.575   4.054  10.485  0.4464  0.1533  0.3682
  137SAPE   C3214857   4.724   4.071  10.294  0.7801  0.4548  0.0501
  137SAPE   H2X14858   4.790   4.001  10.349 -0.9624 -0.2435  1.3189
  137SAPE   H2Y14859   4.790   4.151  10.254 -0.1923  1.2362 -0.0216
  137SAPE   C2314860   4.235   4.667  10.208  0.0555  0.3829 -0.7735
  137SAPE   H3R14861   4.316   4.740  10.190 -0.9208  1.4676 -0.8779
  137SAPE   H3S14862   4.154   4.719  10.265  0.1957 -1.6528  1.4385
  137SAPE   C2414863   4.172   4.642  10.068  0.2083 -0.5363  0.4177
  137SAPE   H4R14864   4.240   4.567  10.022  1.9882  0.8344  0.6992
  137SAPE   H4S14865   4.179   4.737  10.011  2.0404 -0.5815  0.4917
  137SAPE   C2514866   4.026   4.592  10.073  0.6321  0.3288 -0.7107
  137SAPE   H5R14867   3.999   4.546  10.170  2.8086  0.2834 -0.0877
  137SAPE   C2614868   3.946   4.602   9.970  0.6969  0.8835  0.0355
  137SAPE   H6R14869   3.841   4.573   9.986  0.5979  1.7279  0.9823
  137SAPE   C2714870   3.982   4.648   9.830 -0.8742  0.2315  0.2192
  137SAPE   H7R14871   4.091   4.632   9.819 -0.8832  0.2289  0.1289
  137SAPE   H7S14872   3.956   4.756   9.827 -1.6446  0.0431 -0.0354
  137SAPE   C2814873   3.915   4.565   9.723 -0.1004  0.2611  0.7693
  137SAPE   H8R14874   3.831   4.499   9.748 -0.4362  0.8656  1.2608
  137SAPE   C2914875   3.947   4.583   9.591 -0.5871 -0.0440  0.0011
  137SAPE   H9R14876   3.913   4.509   9.517 -1.1795  1.7531 -1.5977
  137SAPE  C21014877   4.056   4.661   9.527  0.1612  0.3817 -0.1477
  137SAPE  H10R14878   4.109   4.590   9.461 -1.1283 -1.8079  1.0725
  137SAPE  H10S14879   4.128   4.702   9.601  0.3182 -2.0240  1.1179
  137SAPE  C21114880   3.999   4.777   9.441 -0.3737  0.5807 -0.0767
  137SAPE  H11R14881   3.990   4.876   9.490  1.0592  1.6767 -1.9109
  137SAPE  C21214882   3.968   4.770   9.314 -0.1134 -0.1124  0.1380
  137SAPE  H12R14883   3.910   4.851   9.268 -0.1986  0.5842  1.4231
  137SAPE  C21314884   3.983   4.654   9.222 -0.0288 -0.1922 -1.2319
  137SAPE  H13R14885   3.910   4.577   9.253 -0.5832  0.7229 -0.1791
  137SAPE  H13S14886   4.081   4.605   9.242 -0.4158 -0.0406  1.2897
  137SAPE  C21414887   3.952   4.691   9.081 -0.0938  0.1489 -0.0046
  137SAPE  H14R14888   4.018   4.757   9.022  0.5444 -2.9904 -3.2129
  137SAPE  C21514889   3.840   4.652   9.012 -0.1111  0.1844  0.2883
  137SAPE  H15R14890   3.832   4.695   8.912  1.8544  0.5052  0.2287
  137SAPE  C21614891   3.731   4.560   9.048  0.2072  0.0884 -0.1933
  137SAPE  H16R14892   3.638   4.620   9.038  1.2209  1.5065 -1.5421
  137SAPE  H16S14893   3.741   4.521   9.152 -0.6033 -3.9629 -1.4639
  137SAPE  C21714894   3.724   4.433   8.961 -0.4402 -0.6282  0.3368
  137SAPE  H17R14895   3.626   4.383   8.977 -0.8565  0.0690  0.0196
  137SAPE  H17S14896   3.802   4.361   8.991 -1.8707 -3.5013 -2.2876
  137SAPE  C21814897   3.756   4.470   8.810  0.7316 -0.1603  0.2348
  137SAPE  H18R14898   3.864   4.480   8.787  0.8676 -2.1454 -0.1757
  137SAPE  H18S14899   3.718   4.571   8.783 -0.6977  0.0665  2.7969
  137SAPE  C21914900   3.694   4.369   8.708 -0.6392  0.3100 -0.5731
  137SAPE  H19R14901   3.752   4.277   8.729  2.0033  1.9424 -0.2908
  137SAPE  H19S14902   3.706   4.406   8.604 -2.4124 -1.2331 -1.3934
  137SAPE  C22014903   3.551   4.326   8.733 -0.6180  0.8248  0.6932
  137SAPE  H20R14904   3.546   4.277   8.833 -1.0499  0.4110  0.4760
  137SAPE  H20S14905   3.518   4.248   8.662 -0.6361  1.1791  0.3091
  137SAPE  H20T14906   3.491   4.420   8.723 -0.2054  0.9887 -0.3354
  137SAPE   C3314907   4.634   3.995  10.196 -0.1128 -0.0009  0.0227
  137SAPE   H3X14908   4.553   3.935  10.244 -0.5583  0.4611 -0.1451
  137SAPE   H3Y14909   4.693   3.918  10.143 -1.3638 -0.1725 -1.1838
  137SAPE   C3414910   4.567   4.070  10.075 -0.3369  0.0441 -0.6387
  137SAPE   H4X14911   4.533   3.986  10.011  0.4587  0.4533 -1.6362
  137SAPE   H4Y14912   4.641   4.133  10.021  1.5728  0.0601  1.8372
  137SAPE   C3514913   4.458   4.156  10.123  0.2455  0.0969  0.4862
  137SAPE   H5X14914   4.479   4.264  10.134  0.6564  0.0595  0.0600
  137SAPE   H5Y14915   4.413   4.119  10.218  2.5999 -2.0603  0.8656
  137SAPE   C3614916   4.324   4.139  10.035  0.2280  0.2238 -0.0628
  137SAPE   H6X14917   4.232   4.188  10.073 -0.2266 -0.2548 -0.5148
  137SAPE   H6Y14918   4.299   4.031  10.044  2.0913 -0.0915  2.6307
  137SAPE   C3714919   4.331   4.190   9.887 -0.2880  0.1009  0.2077
  137SAPE   H7X14920   4.424   4.151   9.841 -1.5667 -2.4391 -0.3804
  137SAPE   H7Y14921   4.332   4.302   9.891 -3.5245  0.2116  1.1619
  137SAPE   C3814922   4.217   4.142   9.795  0.1197 -0.2939 -0.2964
  137SAPE   H8X14923   4.122   4.192   9.821 -0.1396 -0.2424 -1.3052
  137SAPE   H8Y14924   4.201   4.032   9.791 -0.5130 -0.1644 -2.1879
  137SAPE   C3914925   4.235   4.166   9.641 -0.1272  0.3420  0.2894
  137SAPE   H9X14926   4.148   4.123   9.586 -0.1360 -0.3605  0.8374
  137SAPE   H9Y14927   4.320   4.102   9.611 -0.0046  0.4374  0.4354
  137SAPE  C31014928   4.245   4.315   9.595  0.3428  0.3520 -0.2030
  137SAPE  H10X14929   4.307   4.366   9.672 -0.6547 -1.3326  1.8574
  137SAPE  H10Y14930   4.141   4.354   9.603  0.7886  1.5208  0.0799
  137SAPE  C31114931   4.300   4.330   9.452  0.4567 -0.5349 -0.0293
  137SAPE  H11X14932   4.391   4.272   9.426  1.1642  0.6801 -0.3082
  137SAPE  H11Y14933   4.334   4.435   9.439  1.6262 -0.7979  0.7886
  137SAPE  C31214934   4.198   4.300   9.336 -0.2227  0.5295 -0.6013
  137SAPE  H12X14935   4.113   4.370   9.346 -2.6207 -2.2208 -0.5393
  137SAPE  H12Y14936   4.155   4.200   9.357  2.4241 -0.9361 -1.6926
  137SAPE  C31314937   4.259   4.278   9.201 -0.3654  0.0419  0.0562
  137SAPE  H13X14938   4.178   4.270   9.125 -0.7156  2.1540  0.1248
  137SAPE  H13Y14939   4.335   4.197   9.201  0.7812  1.0760  0.7984
  137SAPE  C31414940   4.329   4.402   9.134 -0.0570  0.3161  0.1026
  137SAPE  H14X14941   4.427   4.431   9.176  0.3054  1.4686 -1.4325
  137SAPE  H14Y14942   4.255   4.483   9.152 -1.5695 -0.9353 -0.2020
  137SAPE  C31514943   4.323   4.403   8.975 -0.4650  0.7869  0.5912
  137SAPE  H15X14944   4.217   4.397   8.942 -0.0583  2.4531 -1.2124
  137SAPE  H15Y14945   4.386   4.317   8.943  0.2354  1.1321  1.0040
  137SAPE  C31614946   4.374   4.526   8.910 -0.0824  0.1640  0.1723
  137SAPE  H16X14947   4.483   4.521   8.934  0.0560 -1.5275 -0.6381
  137SAPE  H16Y14948   4.327   4.619   8.948  1.5242  0.5428  1.3569
  137SAPE  C31714949   4.356   4.514   8.759  0.1766 -0.2854 -0.6065
  137SAPE  H17X14950   4.249   4.499   8.730 -1.1309  2.1716  2.3634
  137SAPE  H17Y14951   4.417   4.426   8.732  3.3911  1.1854  1.1922
  137SAPE  C31814952   4.411   4.633   8.680  0.1199  0.1374  0.6583
  137SAPE  H18X14953   4.369   4.721   8.733  0.7605 -0.4704  2.2282
  137SAPE  H18Y14954   4.375   4.634   8.574 -0.6856  2.1401  0.9007
  137SAPE  H18Z14955   4.521   4.643   8.685  0.2401 -1.4423  1.9985
  138SAPE     N14956   1.772   4.026  10.663  0.3377 -0.2990 -0.2140
  138SAPE   HN114957   1.833   4.007  10.582  2.7026  0.5816  1.2511
  138SAPE   HN214958   1.677   4.040  10.623  0.0921  0.5913  0.6163
  138SAPE   HN314959   1.806   4.115  10.705 -0.6149 -0.7527  1.6422
  138SAPE   C1214960   1.774   3.910  10.762 -0.1702 -0.0957 -0.0461
  138SAPE  H12A14961   1.717   3.930  10.855  1.3554  0.6180  0.7785
  138SAPE  H12B14962   1.882   3.895  10.785 -0.5868 -2.4308  0.6114
  138SAPE   C1114963   1.718   3.782  10.692  0.2677  0.9075 -0.4586
  138SAPE  H11A14964   1.615   3.806  10.658 -0.0652 -0.5485 -0.5372
  138SAPE  H11B14965   1.710   3.701  10.768  0.3055  3.1664  2.1134
  138SAPE     P14966   1.928   3.648  10.611  0.0132  0.0147  0.1858
  138SAPE   O1314967   2.041   3.732  10.567  0.0146  0.0038 -0.6553
  138SAPE   O1414968   1.935   3.584  10.743  1.0253  0.4190  0.0379
  138SAPE   O1214969   1.795   3.735  10.585 -0.4066 -0.2467  0.3264
  138SAPE   O1114970   1.910   3.540  10.501  0.3469  0.3812 -0.4403
  138SAPE    C114971   2.019   3.486  10.425 -0.1880  0.2896  0.5345
  138SAPE    HA14972   2.102   3.558  10.404  0.1168 -0.7473 -2.2950
  138SAPE    HB14973   2.064   3.399  10.477  2.3006  1.3001  0.2587
  138SAPE    C214974   1.979   3.411  10.294  0.6576  0.5799 -0.3213
  138SAPE    HS14975   2.075   3.368  10.259  2.3933  3.3018  0.8388
  138SAPE   O2114976   1.935   3.507  10.202 -0.0564 -0.0422  0.4502
  138SAPE   C2114977   2.024   3.569  10.140  0.4307 -1.2444  0.5667
  138SAPE   O2214978   2.149   3.566  10.159 -0.0621 -0.1297 -0.2979
  138SAPE   C2214979   1.969   3.671  10.040 -0.6205  0.9621 -0.3526
  138SAPE   H2R14980   1.926   3.756  10.097  0.8035  0.4249  1.6178
  138SAPE   H2S14981   2.053   3.706   9.977 -1.5580  0.3259 -2.0220
  138SAPE    C314982   1.877   3.299  10.305  0.5368  0.6097  0.0012
  138SAPE    HX14983   1.778   3.328  10.347  0.9304  1.0928  0.6242
  138SAPE    HY14984   1.913   3.222  10.377 -1.3481 -0.4406 -0.1111
  138SAPE   O3114985   1.865   3.234  10.175  0.5610 -0.1328  0.3143
  138SAPE   C3114986   1.761   3.264  10.097 -0.5805 -0.1381 -0.5324
  138SAPE   O3214987   1.672   3.343  10.121 -0.4592 -0.0455 -0.1331
  138SAPE   C3214988   1.768   3.181   9.973  0.5029 -0.1303  0.5287
  138SAPE   H2X14989   1.720   3.085  10.003 -2.3059  1.0531  0.1761
  138SAPE   H2Y14990   1.873   3.159   9.946  0.4054  0.5181 -0.4322
  138SAPE   C2314991   1.867   3.607   9.938 -0.0470 -0.0051  0.1219
  138SAPE   H3R14992   1.776   3.561   9.982 -0.7498 -0.2631 -1.5217
  138SAPE   H3S14993   1.917   3.533   9.873 -1.0301 -1.8319  1.3608
  138SAPE   C2414994   1.810   3.717   9.848  0.4594  0.8853 -0.0949
  138SAPE   H4R14995   1.791   3.791   9.929  0.1519  0.9324 -0.2071
  138SAPE   H4S14996   1.712   3.683   9.808  0.6425  1.1923 -0.8154
  138SAPE   C2514997   1.910   3.767   9.742 -0.1377  0.0411 -0.0830
  138SAPE   H5R14998   1.993   3.828   9.780 -1.3078  0.6601  1.5496
  138SAPE   C2614999   1.902   3.744   9.608 -0.0634 -0.3808 -0.3838
  138SAPE   H6R15000   1.967   3.807   9.545 -0.8855  1.3312  0.3999
  138SAPE   C2715001   1.795   3.670   9.543  0.0913 -0.7079  0.3335
  138SAPE   H7R15002   1.778   3.721   9.446  2.0877  1.3064  0.9483
  138SAPE   H7S15003   1.696   3.693   9.589  0.6912 -0.5197  1.5793
  138SAPE   C2815004   1.817   3.522   9.530  0.0543 -0.6817  0.0762
  138SAPE   H8R15005   1.807   3.467   9.625  0.8691 -0.3078  0.3884
  138SAPE   C2915006   1.832   3.455   9.415  0.1735 -0.4365  0.1794
  138SAPE   H9R15007   1.858   3.349   9.424  3.4336  0.2159 -0.2790
  138SAPE  C21015008   1.829   3.512   9.271  0.0232  0.1502  0.0808
  138SAPE  H10R15009   1.784   3.612   9.289  1.2414  0.3224  2.6905
  138SAPE  H10S15010   1.759   3.459   9.204  1.9617  0.0955 -2.0332
  138SAPE  C21115011   1.961   3.528   9.217 -0.1449 -0.2862 -0.3904
  138SAPE  H11R15012   2.046   3.540   9.286  0.0731 -0.3521 -0.6454
  138SAPE  C21215013   1.987   3.529   9.088 -0.0517 -0.3289 -0.1300
  138SAPE  H12R15014   2.085   3.563   9.053 -0.8309  0.4351 -1.6958
  138SAPE  C21315015   1.885   3.492   8.989  0.7700  0.3355  0.5294
  138SAPE  H13R15016   1.794   3.555   8.993  0.9141  0.7890 -1.8721
  138SAPE  H13S15017   1.851   3.387   9.004 -0.3518  0.5409 -0.4289
  138SAPE  C21415018   1.917   3.504   8.843 -0.8198  0.6276 -0.1645
  138SAPE  H14R15019   1.974   3.594   8.815 -1.2125  0.8619 -0.2244
  138SAPE  C21515020   1.885   3.421   8.740 -0.0663 -0.1862  1.0600
  138SAPE  H15R15021   1.930   3.448   8.643  0.3937 -1.3383  0.9333
  138SAPE  C21615022   1.798   3.294   8.729 -0.2059  0.5873 -0.1603
  138SAPE  H16R15023   1.766   3.269   8.833  0.3385 -0.5923 -0.2567
  138SAPE  H16S15024   1.860   3.208   8.697  0.2961  0.7973  0.2262
  138SAPE  C21715025   1.692   3.307   8.627  0.8766  1.1069  0.1910
  138SAPE  H17R15026   1.631   3.398   8.645  1.3147  1.0626  2.1555
  138SAPE  H17S15027   1.623   3.222   8.644 -0.8196  2.6960  1.6959
  138SAPE  C21815028   1.754   3.291   8.488 -0.0398 -0.2125 -0.1068
  138SAPE  H18R15029   1.828   3.208   8.490 -0.8364 -1.0110 -1.6287
  138SAPE  H18S15030   1.818   3.379   8.467  1.1472 -0.1059  3.3063
  138SAPE  C21915031   1.656   3.257   8.377 -0.1175  0.3693  0.3359
  138SAPE  H19R15032   1.624   3.154   8.403  1.6786 -1.2757 -3.1361
  138SAPE  H19S15033   1.707   3.221   8.285 -0.2777 -1.3030  0.8647
  138SAPE  C22015034   1.537   3.344   8.352 -0.3434  0.5760  0.0102
  138SAPE  H20R15035   1.488   3.316   8.256  2.9229  0.1879 -1.6748
  138SAPE  H20S15036   1.576   3.446   8.329 -1.2217  1.2456  1.3561
  138SAPE  H20T15037   1.462   3.355   8.434  1.2800 -0.7446  1.7549
  138SAPE   C3315038   1.694   3.249   9.854 -0.1498 -0.0343  0.7871
  138SAPE   H3X15039   1.727   3.341   9.801 -2.7286  0.5741  0.0838
  138SAPE   H3Y15040   1.596   3.282   9.895 -0.1423  0.0557  0.7336
  138SAPE   C3415041   1.660   3.159   9.732  0.0125 -0.7023  0.8303
  138SAPE   H4X15042   1.603   3.073   9.774 -0.7590 -0.9382 -0.6536
  138SAPE   H4Y15043   1.753   3.122   9.684  0.7689  0.8884  1.0031
  138SAPE   C3515044   1.570   3.239   9.639  0.2400  0.2016 -0.1416
  138SAPE   H5X15045   1.608   3.340   9.610 -0.0020  0.8612  1.7007
  138SAPE   H5Y15046   1.472   3.259   9.687 -0.6001 -0.4504 -1.5265
  138SAPE   C3615047   1.542   3.179   9.494 -0.0016 -0.7362 -0.5725
  138SAPE   H6X15048   1.509   3.073   9.501  1.2983 -1.2924 -2.1539
  138SAPE   H6Y15049   1.638   3.169   9.438  0.1156 -1.0472 -0.3187
  138SAPE   C3715050   1.433   3.261   9.405 -0.7863 -0.7302 -0.2510
  138SAPE   H7X15051   1.469   3.366   9.410  0.0799 -1.0475  0.4701
  138SAPE   H7Y15052   1.342   3.259   9.468 -1.5645 -0.5640 -1.3281
  138SAPE   C3815053   1.414   3.213   9.259 -0.9745  0.2052 -0.3238
  138SAPE   H8X15054   1.341   3.288   9.222 -1.2779  0.6486  1.1082
  138SAPE   H8Y15055   1.378   3.107   9.261 -1.5792  0.4096 -0.2601
  138SAPE   C3915056   1.538   3.208   9.169 -0.4811 -0.4191 -0.3438
  138SAPE   H9X15057   1.620   3.150   9.217  0.2219  0.2307 -0.7284
  138SAPE   H9Y15058   1.566   3.315   9.158  1.1178 -0.3805  3.0795
  138SAPE  C31015059   1.511   3.153   9.028 -0.0607 -0.7050  0.7002
  138SAPE  H10X15060   1.472   3.050   9.033  1.8889 -1.4727  0.9912
  138SAPE  H10Y15061   1.610   3.156   8.977 -0.7236 -1.1770 -0.6695
  138SAPE  C31115062   1.415   3.238   8.950 -0.0899 -0.1776 -0.1880
  138SAPE  H11X15063   1.446   3.345   8.942 -3.0879  0.8735  0.9101
  138SAPE  H11Y15064   1.321   3.239   9.009 -0.1751 -1.7853 -0.2583
  138SAPE  C31215065   1.390   3.177   8.812  0.2884 -0.1634 -0.1106
  138SAPE  H12X15066   1.320   3.094   8.833 -0.5195  0.8925  1.6261
  138SAPE  H12Y15067   1.471   3.132   8.751 -1.8632 -1.9176 -1.8444
  138SAPE  C31315068   1.300   3.266   8.728 -0.0420 -0.3463  0.5009
  138SAPE  H13X15069   1.361   3.355   8.702 -1.4250  0.6158  0.4681
  138SAPE  H13Y15070   1.213   3.299   8.788  0.4021  0.1911  0.8607
  138SAPE  C31415071   1.234   3.207   8.603 -0.0747 -0.0157 -0.0280
  138SAPE  H14X15072   1.308   3.157   8.537 -0.5939  2.9257 -3.1113
  138SAPE  H14Y15073   1.202   3.289   8.536 -0.8651 -1.1128 -1.0480
  138SAPE  C31515074   1.119   3.111   8.642  0.3642  0.3646  0.3024
  138SAPE  H15X15075   1.055   3.153   8.723 -1.7243 -0.5494 -0.7899
  138SAPE  H15Y15076   1.151   3.009   8.673  2.5580 -0.3572 -3.6751
  138SAPE  C31615077   1.028   3.087   8.522 -0.2879 -0.2632  0.2999
  138SAPE  H16X15078   1.083   3.038   8.440  0.1276 -0.8288  0.9036
  138SAPE  H16Y15079   0.982   3.176   8.474  2.1886  0.4002 -0.9905
  138SAPE  C31715080   0.918   2.996   8.564 -0.0017  0.0060 -0.3050
  138SAPE  H17X15081   0.888   3.034   8.664 -0.6732 -2.9255  0.7152
  138SAPE  H17Y15082   0.958   2.893   8.579 -1.8900 -0.6526  0.5839
  138SAPE  C31815083   0.793   2.989   8.471  0.1524 -0.7251 -0.4996
  138SAPE  H18X15084   0.771   3.092   8.435  1.6541 -1.2934 -3.3142
  138SAPE  H18Y15085   0.704   2.951   8.526  0.8762 -1.4316  0.2046
  138SAPE  H18Z15086   0.810   2.924   8.383  1.5007  1.6671 -2.1214
  139SAPE     N15087   1.073   2.888  10.686 -0.6781 -0.1274 -0.1403
  139SAPE   HN115088   1.054   2.962  10.757  0.1857  0.2627 -0.3050
  139SAPE   HN215089   1.163   2.840  10.705  0.0162  1.0826 -0.2979
  139SAPE   HN315090   1.092   2.931  10.594  2.0159  2.8886  1.6170
  139SAPE   C1215091   0.969   2.782  10.683 -0.1047 -0.0054  1.0493
  139SAPE  H12A15092   0.872   2.835  10.672  0.0086  0.0295  0.0683
  139SAPE  H12B15093   0.974   2.744  10.787  1.6563  1.1581  1.4461
  139SAPE   C1115094   1.005   2.668  10.587 -0.6385  0.2605 -1.0880
  139SAPE  H11A15095   0.980   2.713  10.488 -3.4508 -0.0095 -0.6024
  139SAPE  H11B15096   0.930   2.587  10.605 -1.1374  0.9175 -0.1356
  139SAPE     P15097   1.176   2.518  10.723  0.1569 -0.2157 -0.3728
  139SAPE   O1315098   1.304   2.559  10.786 -0.1293 -0.3552  0.5183
  139SAPE   O1415099   1.053   2.500  10.812  0.1279  0.5988 -0.0841
  139SAPE   O1215100   1.136   2.622  10.610  0.6776 -0.0904  0.7100
  139SAPE   O1115101   1.212   2.385  10.649  0.2262 -0.6361  0.4039
  139SAPE    C115102   1.230   2.376  10.508 -0.2417 -1.0076 -0.0488
  139SAPE    HA15103   1.280   2.467  10.469  0.7009  0.1240  3.4660
  139SAPE    HB15104   1.304   2.294  10.501  0.1480 -0.7292  0.6835
  139SAPE    C215105   1.097   2.342  10.439 -0.6220  0.0086  0.3836
  139SAPE    HS15106   1.022   2.420  10.461 -0.5034 -0.1344  1.3321
  139SAPE   O2115107   1.065   2.206  10.470 -0.3468  0.1407 -0.0725
  139SAPE   C2115108   0.936   2.172  10.492  0.2965  1.1399 -0.2073
  139SAPE   O2215109   0.842   2.242  10.453 -0.0956  0.1889 -0.2717
  139SAPE   C2215110   0.928   2.043  10.575  0.3905 -0.6645 -0.0691
  139SAPE   H2R15111   1.033   2.007  10.582  1.3352  1.8812  0.1244
  139SAPE   H2S15112   0.897   2.075  10.676 -2.4608  0.1531 -1.1034
  139SAPE    C315113   1.109   2.352  10.281  0.9268  0.2240  0.7338
  139SAPE    HX15114   1.006   2.323  10.250 -0.4509  2.1482  3.0714
  139SAPE    HY15115   1.186   2.283  10.243 -0.4051 -1.4119  0.8925
  139SAPE   O3115116   1.152   2.484  10.236  0.2291  0.2524 -0.6111
  139SAPE   C3115117   1.049   2.570  10.204 -0.2747  0.0146 -0.6556
  139SAPE   O3215118   0.930   2.556  10.226 -0.3166 -0.4856 -0.1792
  139SAPE   C3215119   1.119   2.686  10.141  0.0954  0.7225 -0.2430
  139SAPE   H2X15120   1.201   2.717  10.209 -1.2778  2.5352  0.6780
  139SAPE   H2Y15121   1.047   2.770  10.129  1.1858  1.4900 -1.8419
  139SAPE   C2315122   0.812   1.953  10.531 -0.2879  0.0570  0.4630
  139SAPE   H3R15123   0.718   2.009  10.546 -0.8563 -0.6568 -0.3114
  139SAPE   H3S15124   0.807   1.864  10.597 -0.2317 -2.3274 -2.5130
  139SAPE   C2415125   0.842   1.901  10.389  0.4303  0.1036 -0.5770
  139SAPE   H4R15126   0.854   1.990  10.323 -2.5624  2.2848  1.5744
  139SAPE   H4S15127   0.747   1.848  10.366  1.1054 -1.0188 -0.8574
  139SAPE   C2515128   0.957   1.809  10.371 -0.6411  0.9933  0.0470
  139SAPE   H5R15129   0.954   1.705  10.407  0.4790  0.6851 -0.6972
  139SAPE   C2615130   1.075   1.846  10.316  0.2898 -0.1820  0.0021
  139SAPE   H6R15131   1.144   1.762  10.304 -0.5337 -1.0028  0.8057
  139SAPE   C2715132   1.123   1.982  10.276 -0.0238 -0.0224  0.7183
  139SAPE   H7R15133   1.201   2.017  10.347 -1.1135  0.0926  1.8793
  139SAPE   H7S15134   1.044   2.060  10.275 -1.1276 -1.0707 -1.9866
  139SAPE   C2815135   1.182   1.994  10.138  0.0923  0.4497 -0.3685
  139SAPE   H8R15136   1.290   1.976  10.129 -0.0427 -1.9171  1.9328
  139SAPE   C2915137   1.129   2.033  10.019 -0.3174 -0.1891  0.0716
  139SAPE   H9R15138   1.197   2.031   9.933 -0.9267 -2.8893 -0.4278
  139SAPE  C21015139   0.991   2.085   9.998 -0.1509 -0.0708  0.2903
  139SAPE  H10R15140   0.991   2.186   9.952 -1.9854 -0.0537  0.2793
  139SAPE  H10S15141   0.934   2.093  10.093 -0.9082 -1.4172 -0.0340
  139SAPE  C21115142   0.922   1.986   9.910  0.6334 -0.3462 -0.2524
  139SAPE  H11R15143   0.869   1.906   9.963 -1.0785  0.6267 -0.3964
  139SAPE  C21215144   0.898   1.988   9.775  0.0909 -0.0823 -0.6372
  139SAPE  H12R15145   0.853   1.898   9.730 -0.9528 -0.3373  0.8368
  139SAPE  C21315146   0.945   2.102   9.677  0.3473  0.0322 -0.1242
  139SAPE  H13R15147   1.033   2.058   9.627  0.0105 -0.6127 -0.1657
  139SAPE  H13S15148   0.987   2.185   9.738  0.8698  0.3756 -0.9346
  139SAPE  C21415149   0.842   2.151   9.575 -0.4541 -0.1948 -0.5137
  139SAPE  H14R15150   0.787   2.243   9.599 -0.2441 -0.3360  0.5269
  139SAPE  C21515151   0.824   2.102   9.449 -0.3042  0.4539 -0.0102
  139SAPE  H15R15152   0.738   2.128   9.386 -0.2287  0.2661 -0.1896
  139SAPE  C21615153   0.908   1.986   9.395 -0.2776  0.2400  0.3887
  139SAPE  H16R15154   0.837   1.900   9.386  0.2108 -0.1852  0.5439
  139SAPE  H16S15155   0.990   1.959   9.464  1.5852 -1.6353 -2.3487
  139SAPE  C21715156   0.973   2.009   9.254 -0.1301 -0.0849 -0.0933
  139SAPE  H17R15157   1.015   1.915   9.211 -1.6687  0.3675 -2.7977
  139SAPE  H17S15158   1.053   2.087   9.257  0.8424 -0.9739 -1.4734
  139SAPE  C21815159   0.857   2.034   9.150 -0.1070 -0.7767  0.3829
  139SAPE  H18R15160   0.911   2.078   9.063 -0.1944 -2.0904 -0.3635
  139SAPE  H18S15161   0.788   2.107   9.198  0.2881 -0.0258 -0.1754
  139SAPE  C21915162   0.771   1.909   9.110 -0.0093  0.5551  0.7815
  139SAPE  H19R15163   0.698   1.889   9.191  0.6838 -1.1618  1.0225
  139SAPE  H19S15164   0.838   1.820   9.102 -1.0950 -0.1031 -1.8686
  139SAPE  C22015165   0.680   1.916   8.985  0.4930 -0.0812  0.0870
  139SAPE  H20R15166   0.740   1.930   8.893 -0.1334  0.7212 -0.2104
  139SAPE  H20S15167   0.605   1.998   8.984 -1.2371 -1.5381 -3.0189
  139SAPE  H20T15168   0.612   1.830   8.970 -0.0814  0.6459 -1.8097
  139SAPE   C3315169   1.191   2.653  10.013 -0.6924 -0.6858 -0.0214
  139SAPE   H3X15170   1.272   2.578  10.022  0.9831  1.1266  0.6726
  139SAPE   H3Y15171   1.251   2.740   9.978 -1.3567 -0.2396 -0.0612
  139SAPE   C3415172   1.096   2.622   9.888 -0.1762 -0.5704 -0.2367
  139SAPE   H4X15173   1.007   2.688   9.899  0.5517  0.5052 -0.6160
  139SAPE   H4Y15174   1.059   2.518   9.898 -1.2352 -0.3167 -1.2575
  139SAPE   C3515175   1.156   2.647   9.753 -0.2573  0.4285 -0.3420
  139SAPE   H5X15176   1.258   2.602   9.751 -0.9961 -1.3343 -0.3075
  139SAPE   H5Y15177   1.161   2.756   9.732 -0.2957  0.9689  2.2034
  139SAPE   C3615178   1.094   2.558   9.636  0.2710 -0.5600 -0.6896
  139SAPE   H6X15179   0.992   2.600   9.619  0.7853  1.3009  0.4227
  139SAPE   H6Y15180   1.073   2.451   9.654 -0.8584 -0.4667 -1.3166
  139SAPE   C3715181   1.162   2.594   9.505 -0.2650  0.2337  0.4518
  139SAPE   H7X15182   1.263   2.547   9.509 -0.5230 -0.2969  0.7800
  139SAPE   H7Y15183   1.176   2.704   9.496  1.1541 -0.0109 -0.8221
  139SAPE   C3815184   1.081   2.551   9.379 -0.4812 -0.3077  0.7660
  139SAPE   H8X15185   1.080   2.441   9.369 -0.1354 -0.4573  2.2219
  139SAPE   H8Y15186   1.144   2.595   9.298 -0.3168  1.4213  1.7719
  139SAPE   C3915187   0.940   2.622   9.349 -0.1848 -0.2391 -0.2439
  139SAPE   H9X15188   0.951   2.732   9.357  1.3001 -0.3641 -0.2846
  139SAPE   H9Y15189   0.862   2.588   9.420 -0.4110  0.2068 -0.2729
  139SAPE  C31015190   0.889   2.587   9.216  0.2839 -0.0796 -0.2899
  139SAPE  H10X15191   0.958   2.609   9.132  1.8673  0.2095  1.0305
  139SAPE  H10Y15192   0.794   2.645   9.211 -0.8764 -1.1590  4.3383
  139SAPE  C31115193   0.844   2.444   9.200  0.3003  0.4381  0.3582
  139SAPE  H11X15194   0.796   2.404   9.292  1.1135  0.7645  0.9313
  139SAPE  H11Y15195   0.935   2.385   9.176  0.9714  1.0584  1.3161
  139SAPE  C31215196   0.749   2.437   9.075 -0.1310 -1.2122 -0.1111
  139SAPE  H12X15197   0.650   2.485   9.093  1.0289  1.2368  0.0855
  139SAPE  H12Y15198   0.718   2.331   9.063 -0.3982 -1.2244  0.5935
  139SAPE  C31315199   0.797   2.501   8.943 -0.7061  0.3607  0.7381
  139SAPE  H13X15200   0.897   2.457   8.923 -1.1892  0.4000 -2.4322
  139SAPE  H13Y15201   0.794   2.610   8.967 -0.2168  0.2764  1.1880
  139SAPE  C31415202   0.700   2.466   8.821  0.3217 -0.0953  0.0915
  139SAPE  H14X15203   0.600   2.509   8.843 -1.3044 -3.8598  0.7531
  139SAPE  H14Y15204   0.672   2.359   8.810 -3.0272  0.8517 -2.5789
  139SAPE  C31515205   0.746   2.521   8.687  0.1741 -0.2241  0.7088
  139SAPE  H15X15206   0.794   2.621   8.682  0.6979 -0.3023  3.0339
  139SAPE  H15Y15207   0.669   2.509   8.608 -0.6793 -1.1831  1.6696
  139SAPE  C31615208   0.861   2.438   8.629  0.6274  0.0263 -0.2221
  139SAPE  H16X15209   0.935   2.443   8.711 -1.3078  0.0716  1.5898
  139SAPE  H16Y15210   0.820   2.336   8.613 -2.7188  1.3345 -0.7705
  139SAPE  C31715211   0.914   2.491   8.486  0.7528  0.3818 -0.1895
  139SAPE  H17X15212   0.954   2.594   8.495  0.2307  0.4210  2.8833
  139SAPE  H17Y15213   0.819   2.507   8.431 -0.0713 -0.4938  0.9104
  139SAPE  C31815214   1.000   2.385   8.427 -0.3148  0.3147  0.1245
  139SAPE  H18X15215   1.084   2.374   8.498 -0.9891  0.4757  0.9617
  139SAPE  H18Y15216   1.051   2.420   8.335  3.0164  0.7572  1.9813
  139SAPE  H18Z15217   0.939   2.294   8.409 -0.2540  0.3211 -0.1224
  140SAPE     N15218   4.863   5.525  10.676 -0.1794  0.0221 -0.5129
  140SAPE   HN115219   4.822   5.609  10.630 -2.6256 -1.2243 -0.7337
  140SAPE   HN215220   4.937   5.497  10.608 -1.5237 -1.4775 -1.4230
  140SAPE   HN315221   4.794   5.449  10.659 -0.0817  0.0664 -1.1517
  140SAPE   C1215222   4.914   5.572  10.806 -0.1744 -0.1732  0.1634
  140SAPE  H12A15223   5.022   5.599  10.806 -0.4932  1.3140  2.1985
  140SAPE  H12B15224   4.929   5.485  10.874  0.5393  0.5146  0.9050
  140SAPE   C1115225   4.842   5.705  10.844  0.5737 -0.5533 -0.0157
  140SAPE  H11A15226   4.853   5.781  10.764 -0.6068  1.7470  1.8989
  140SAPE  H11B15227   4.893   5.757  10.928 -0.0152 -1.1050  0.7061
  140SAPE     P15228   4.624   5.772  10.969 -0.5227  0.2426  0.0291
  140SAPE   O1315229   4.557   5.692  11.067 -0.1508  0.0825 -0.1026
  140SAPE   O1415230   4.713   5.883  11.014 -0.2611 -0.1956  0.6015
  140SAPE   O1215231   4.700   5.680  10.865  0.0413 -0.3501 -0.5721
  140SAPE   O1115232   4.517   5.837  10.878 -0.5190 -0.4701  0.6158
  140SAPE    C115233   4.544   5.854  10.737 -0.1879 -0.4449 -0.5272
  140SAPE    HA15234   4.519   5.956  10.701 -0.7624 -0.3556  0.1017
  140SAPE    HB15235   4.652   5.859  10.711 -0.5374  3.6663 -2.0876
  140SAPE    C215236   4.472   5.740  10.658  0.0102 -0.0633 -0.2614
  140SAPE    HS15237   4.517   5.641  10.681  0.0617 -0.1996 -0.9350
  140SAPE   O2115238   4.500   5.763  10.516  0.3555 -0.2993 -0.4518
  140SAPE   C2115239   4.618   5.737  10.467  0.9773  0.2718  0.0205
  140SAPE   O2215240   4.711   5.682  10.512 -0.4072  0.3951 -0.1380
  140SAPE   C2215241   4.631   5.814  10.334 -0.0915  0.0584  0.2061
  140SAPE   H2R15242   4.534   5.800  10.283  0.1634 -0.5442 -0.1242
  140SAPE   H2S15243   4.649   5.921  10.360  1.2183  0.4065 -1.9150
  140SAPE    C315244   4.326   5.761  10.694  0.0154 -0.2848  0.1628
  140SAPE    HX15245   4.316   5.872  10.694  1.4669 -0.1142 -0.9873
  140SAPE    HY15246   4.309   5.728  10.798  5.4219  1.5833  1.9364
  140SAPE   O3115247   4.234   5.698  10.595 -0.0875 -0.0050 -0.1392
  140SAPE   C3115248   4.106   5.737  10.603  0.3596  0.2109  0.3571
  140SAPE   O3215249   4.061   5.823  10.673  0.0673 -0.2200  0.1615
  140SAPE   C3215250   4.006   5.634  10.535 -0.1970 -0.0433 -0.3777
  140SAPE   H2X15251   3.943   5.601  10.621 -1.0760 -1.2630 -1.4570
  140SAPE   H2Y15252   4.070   5.553  10.496  0.7609  0.8077 -0.5945
  140SAPE   C2315253   4.740   5.765  10.245 -0.2556 -0.6843  0.1931
  140SAPE   H3R15254   4.744   5.655  10.252  1.2512 -0.5788  1.8298
  140SAPE   H3S15255   4.835   5.819  10.269  0.0159  0.0561 -2.2662
  140SAPE   C2415256   4.720   5.810  10.094  0.1402  0.2977 -0.2616
  140SAPE   H4R15257   4.634   5.754  10.052 -1.2058  0.9372  1.5279
  140SAPE   H4S15258   4.811   5.777  10.040 -1.3979 -1.1148 -2.1495
  140SAPE   C2515259   4.692   5.953  10.078 -0.0936 -0.0621  0.6337
  140SAPE   H5R15260   4.631   6.008  10.151 -0.9300  0.8648 -0.7190
  140SAPE   C2615261   4.738   6.026   9.975 -0.4071 -0.3920  0.1928
  140SAPE   H6R15262   4.712   6.132   9.964 -0.9356 -0.7321 -2.5148
  140SAPE   C2715263   4.820   5.991   9.858 -0.3178  0.7449 -0.2685
  140SAPE   H7R15264   4.751   5.978   9.773 -1.6225 -2.2788  1.1035
  140SAPE   H7S15265   4.880   5.898   9.869 -1.8051 -0.2484 -0.3261
  140SAPE   C2815266   4.924   6.102   9.844 -0.2616 -0.2473 -0.7807
  140SAPE   H8R15267   4.927   6.184   9.917  3.1438  0.4017 -1.4980
  140SAPE   C2915268   5.001   6.118   9.730  0.6353 -0.6307  0.1705
  140SAPE   H9R15269   5.086   6.187   9.741  0.2570 -0.3788  1.6813
  140SAPE  C21015270   4.994   6.020   9.616 -0.5194  0.3629 -0.3153
  140SAPE  H10R15271   4.902   5.960   9.629 -2.3501  2.4428 -2.6693
  140SAPE  H10S15272   5.084   5.956   9.628 -2.1222 -2.2484 -1.4845
  140SAPE  C21115273   5.016   6.077   9.474  0.9304  0.2132  0.8994
  140SAPE  H11R15274   5.117   6.116   9.456  0.8247 -0.2586 -0.8574
  140SAPE  C21215275   4.927   6.076   9.370 -0.3578  0.6923  0.6222
  140SAPE  H12R15276   4.961   6.116   9.273 -0.6537  1.1465  0.7016
  140SAPE  C21315277   4.785   6.027   9.378  0.4767 -0.1716  0.3909
  140SAPE  H13R15278   4.711   6.105   9.352  1.3322 -0.0728 -1.9796
  140SAPE  H13S15279   4.769   5.999   9.485 -0.1925  0.1590  0.3828
  140SAPE  C21415280   4.776   5.909   9.283  0.3126  0.4959 -1.1127
  140SAPE  H14R15281   4.803   5.813   9.330 -1.7248 -0.1286 -1.0929
  140SAPE  C21515282   4.706   5.907   9.167  0.1116  1.1730  0.1035
  140SAPE  H15R15283   4.692   5.809   9.118 -0.6761  1.2929  0.0738
  140SAPE  C21615284   4.643   6.025   9.095 -0.3961  0.1913  0.6847
  140SAPE  H16R15285   4.705   6.111   9.127  0.3739  0.2915 -1.0078
  140SAPE  H16S15286   4.543   6.059   9.128 -0.5436  1.2242 -0.7496
  140SAPE  C21715287   4.648   6.011   8.935  0.2591 -0.5598  0.1450
  140SAPE  H17R15288   4.570   5.939   8.904 -1.0277 -0.2358  2.3745
  140SAPE  H17S15289   4.749   5.979   8.900 -0.4053  0.0397 -2.5417
  140SAPE  C21815290   4.613   6.139   8.873  0.6623 -0.3869  0.6202
  140SAPE  H18R15291   4.670   6.223   8.918 -1.2891  0.9587  0.7137
  140SAPE  H18S15292   4.504   6.159   8.879  0.8822  0.5946  1.6700
  140SAPE  C21915293   4.663   6.150   8.730 -0.1133  0.4660 -0.4020
  140SAPE  H19R15294   4.771   6.127   8.716 -0.2004 -0.1961 -0.0316
  140SAPE  H19S15295   4.636   6.256   8.713 -1.9431  0.4576  1.9500
  140SAPE  C22015296   4.586   6.062   8.637 -0.5832  0.2004 -0.6350
  140SAPE  H20R15297   4.480   6.048   8.667  0.2468 -5.0717  0.7848
  140SAPE  H20S15298   4.632   5.961   8.632  1.3721  1.0550 -0.8792
  140SAPE  H20T15299   4.586   6.094   8.530  1.7022 -1.8553 -1.3220
  140SAPE   C3315300   3.914   5.690  10.424  0.1758  0.2412 -0.2910
  140SAPE   H3X15301   3.840   5.767  10.455 -0.9422 -1.4323  1.3460
  140SAPE   H3Y15302   3.858   5.600  10.391  5.1394 -2.6476 -1.9252
  140SAPE   C3415303   3.984   5.742  10.296  1.0209  0.6008 -0.3817
  140SAPE   H4X15304   4.044   5.659  10.254 -3.0743 -2.4717 -0.8119
  140SAPE   H4Y15305   4.045   5.830  10.327 -2.1518  2.9205 -0.1291
  140SAPE   C3515306   3.879   5.796  10.202  0.2477 -1.3106  0.1186
  140SAPE   H5X15307   3.825   5.877  10.255 -0.6603 -1.5101 -0.4724
  140SAPE   H5Y15308   3.802   5.718  10.182  1.8482 -2.2968 -2.9254
  140SAPE   C3615309   3.931   5.841  10.066 -0.2479  0.3301  0.5718
  140SAPE   H6X15310   4.005   5.763  10.039  0.7787  1.3272  0.4629
  140SAPE   H6Y15311   3.975   5.943  10.072  2.2222 -0.6908  0.5488
  140SAPE   C3715312   3.824   5.830   9.955  0.7337 -0.0330 -0.1210
  140SAPE   H7X15313   3.730   5.875   9.993  0.9362 -0.0709  0.4355
  140SAPE   H7Y15314   3.793   5.726   9.931 -0.3939  0.2359  0.1040
  140SAPE   C3815315   3.870   5.895   9.821 -0.2070  0.1728  0.4719
  140SAPE   H8X15316   3.964   5.849   9.783 -0.7807 -0.5142 -0.1512
  140SAPE   H8Y15317   3.892   6.003   9.825 -1.0427  0.3190  1.4759
  140SAPE   C3915318   3.763   5.865   9.713 -0.2713 -0.2208 -1.0053
  140SAPE   H9X15319   3.682   5.935   9.743  0.2985 -0.5802  1.5683
  140SAPE   H9Y15320   3.723   5.762   9.708  0.6806 -0.7200  0.8454
  140SAPE  C31015321   3.819   5.904   9.572  0.1876  0.6379 -0.2056
  140SAPE  H10X15322   3.923   5.867   9.571  0.2729  0.8748 -0.9266
  140SAPE  H10Y15323   3.808   6.014   9.561 -1.3735  0.4446 -0.9646
  140SAPE  C31115324   3.753   5.842   9.443 -0.2790  0.1762 -0.3801
  140SAPE  H11X15325   3.646   5.873   9.453 -0.2082  0.3279 -0.0873
  140SAPE  H11Y15326   3.755   5.731   9.452  2.0904  0.3232  2.1428
  140SAPE  C31215327   3.795   5.901   9.303 -0.2460  0.1473  0.8478
  140SAPE  H12X15328   3.897   5.875   9.268 -1.8567 -2.1027 -2.8541
  140SAPE  H12Y15329   3.805   6.011   9.316  1.8639  0.3212 -1.5257
  140SAPE  C31315330   3.705   5.861   9.188 -0.4415  0.4192 -0.6884
  140SAPE  H13X15331   3.598   5.881   9.211 -0.1935  1.4351 -0.3776
  140SAPE  H13Y15332   3.709   5.752   9.163 -1.5267  0.7387 -2.4350
  140SAPE  C31415333   3.735   5.939   9.063 -0.0713 -0.1047  0.0512
  140SAPE  H14X15334   3.803   6.024   9.086 -1.3458  0.6155  1.3400
  140SAPE  H14Y15335   3.640   5.976   9.018  2.1672  4.4516 -1.5309
  140SAPE  C31515336   3.804   5.848   8.959  0.2666 -0.0134  0.2421
  140SAPE  H15X15337   3.741   5.758   8.939  0.6286  0.2791 -2.7947
  140SAPE  H15Y15338   3.901   5.810   9.000 -0.1535 -0.9431  0.3956
  140SAPE  C31615339   3.827   5.912   8.813  0.7269  0.6033 -0.2282
  140SAPE  H16X15340   3.910   5.855   8.766  1.2694 -0.0585  1.4411
  140SAPE  H16Y15341   3.876   6.008   8.842  2.2131 -0.2921  0.3418
  140SAPE  C31715342   3.703   5.944   8.734 -0.2135 -0.2360 -0.6840
  140SAPE  H17X15343   3.641   6.016   8.791  0.2141 -0.2276 -0.2204
  140SAPE  H17Y15344   3.636   5.856   8.735  0.2071 -0.6263  2.3745
  140SAPE  C31815345   3.717   6.006   8.596 -0.4628  0.6639  0.8873
  140SAPE  H18X15346   3.637   5.976   8.526 -0.4891  2.1539  0.2432
  140SAPE  H18Y15347   3.814   5.973   8.554 -0.9766 -1.2988  1.1637
  140SAPE  H18Z15348   3.713   6.117   8.602 -3.3023  0.6576  0.3022
  141SAPE     N15349   5.424   6.708  10.742 -0.0786 -0.1711  0.1275
  141SAPE   HN115350   5.336   6.738  10.788  1.3860  0.7239  2.5860
  141SAPE   HN215351   5.408   6.641  10.664  0.0794  1.1721 -1.0961
  141SAPE   HN315352   5.470   6.650  10.816 -3.4207 -2.4599  0.6024
  141SAPE   C1215353   5.509   6.818  10.693 -0.2085  0.0258  1.0395
  141SAPE  H12A15354   5.454   6.858  10.606 -0.8577  0.0257  1.4363
  141SAPE  H12B15355   5.608   6.782  10.659 -0.4068 -0.1593  0.6521
  141SAPE   C1115356   5.524   6.935  10.811  0.0161  0.8302 -0.0972
  141SAPE  H11A15357   5.568   7.018  10.752 -0.8702  0.9151 -0.6538
  141SAPE  H11B15358   5.608   6.900  10.874  0.1197  0.6138 -0.3518
  141SAPE     P15359   5.297   7.054  10.803  0.4258  0.0629  0.1347
  141SAPE   O1315360   5.183   6.965  10.772  0.1286 -0.0673 -0.5418
  141SAPE   O1415361   5.258   7.178  10.886 -0.2059 -0.3541 -0.0561
  141SAPE   O1215362   5.410   6.965  10.879  0.8249  0.0459 -0.1260
  141SAPE   O1115363   5.364   7.086  10.665 -0.4717  0.3567  0.1340
  141SAPE    C115364   5.278   7.123  10.555  0.0243 -0.3229 -0.1793
  141SAPE    HA15365   5.211   7.035  10.544  0.3533 -1.0141  2.6732
  141SAPE    HB15366   5.223   7.216  10.584  1.7581  0.0836  2.0268
  141SAPE    C215367   5.359   7.150  10.424 -0.0224  0.4733  0.1466
  141SAPE    HS15368   5.295   7.209  10.355  0.9139  3.1464  1.4353
  141SAPE   O2115369   5.396   7.021  10.363 -0.0357 -0.7592  0.2988
  141SAPE   C2115370   5.296   6.961  10.303 -0.2875  0.0647  0.3964
  141SAPE   O2215371   5.179   6.984  10.322  0.5278 -0.2913 -0.9460
  141SAPE   C2215372   5.348   6.871  10.203 -0.0991  0.3128  0.4556
  141SAPE   H2R15373   5.407   6.788  10.248 -0.2407 -1.0375 -1.7068
  141SAPE   H2S15374   5.258   6.831  10.151 -0.2293  2.1073 -0.7910
  141SAPE    C315375   5.487   7.230  10.452  0.0108  0.5613 -0.7999
  141SAPE    HX15376   5.548   7.160  10.512  0.6574  2.7836  1.2989
  141SAPE    HY15377   5.456   7.311  10.521  0.0223  1.5399 -1.9037
  141SAPE   O3115378   5.555   7.278  10.340 -0.3672  0.2397  0.0245
  141SAPE   C3115379   5.643   7.207  10.276 -0.3735  0.1874  0.2509
  141SAPE   O3215380   5.684   7.099  10.307  0.6876 -0.2306 -0.2583
  141SAPE   C3215381   5.685   7.282  10.148  0.2676 -0.2766  0.1221
  141SAPE   H2X15382   5.772   7.346  10.175 -0.0379 -0.0098  0.4619
  141SAPE   H2Y15383   5.608   7.358  10.123  2.5113  3.2047  2.8430
  141SAPE   C2315384   5.438   6.949  10.106 -0.0266 -0.2009  0.4262
  141SAPE   H3R15385   5.535   6.972  10.155  0.6664 -0.1434 -0.9086
  141SAPE   H3S15386   5.400   7.052  10.089  4.4249  1.1209 -4.0177
  141SAPE   C2415387   5.467   6.881   9.971 -0.2767 -0.7180  0.0956
  141SAPE   H4R15388   5.492   6.776   9.998  0.3786 -0.5289  0.2448
  141SAPE   H4S15389   5.555   6.938   9.935 -1.0030  1.6667  1.8329
  141SAPE   C2515390   5.354   6.883   9.869 -0.2156  0.2823  0.7459
  141SAPE   H5R15391   5.276   6.960   9.873 -2.3689 -1.7019 -0.8099
  141SAPE   C2615392   5.334   6.803   9.766  0.4140  0.3962  0.1295
  141SAPE   H6R15393   5.254   6.828   9.695  0.0321  2.6430  1.2637
  141SAPE   C2715394   5.427   6.684   9.730 -0.0291  0.4515  0.4475
  141SAPE   H7R15395   5.512   6.672   9.801 -0.1947  0.5755  0.6644
  141SAPE   H7S15396   5.469   6.712   9.631 -1.2031 -0.2735 -0.2773
  141SAPE   C2815397   5.363   6.550   9.718  0.4441  0.1587  0.4905
  141SAPE   H8R15398   5.376   6.481   9.802  0.9795 -0.4231 -0.0567
  141SAPE   C2915399   5.302   6.508   9.605 -0.4588  0.1708  0.1344
  141SAPE   H9R15400   5.267   6.405   9.617 -0.0887  0.1311  0.9412
  141SAPE  C21015401   5.278   6.565   9.469  0.2121 -0.0421  0.4897
  141SAPE  H10R15402   5.361   6.531   9.403 -1.2451 -2.3702 -0.2965
  141SAPE  H10S15403   5.273   6.676   9.474 -2.7826 -0.1638  2.9302
  141SAPE  C21115404   5.150   6.514   9.407  0.0342 -0.0766  0.0757
  141SAPE  H11R15405   5.059   6.537   9.463 -0.9512 -0.0899 -1.4471
  141SAPE  C21215406   5.135   6.426   9.299 -0.0777 -1.3280  0.5528
  141SAPE  H12R15407   5.030   6.403   9.273 -1.2369 -0.1326  3.6225
  141SAPE  C21315408   5.244   6.366   9.219  0.4890  0.0694 -0.1256
  141SAPE  H13R15409   5.347   6.368   9.262  0.3075 -1.4167  0.4564
  141SAPE  H13S15410   5.259   6.431   9.131  0.5884 -0.5829 -0.5973
  141SAPE  C21415411   5.223   6.227   9.169 -0.8748  0.4005 -0.7801
  141SAPE  H14R15412   5.283   6.148   9.216 -1.5762 -1.2248 -2.4734
  141SAPE  C21515413   5.137   6.191   9.080 -0.1808 -0.0795  0.1125
  141SAPE  H15R15414   5.132   6.087   9.045  1.2167 -1.0776  2.6204
  141SAPE  C21615415   5.041   6.291   9.012  0.2170  0.1041 -0.1052
  141SAPE  H16R15416   5.035   6.386   9.070  4.9645  2.7133 -3.2094
  141SAPE  H16S15417   4.939   6.248   9.011 -0.3727  1.4260 -1.6600
  141SAPE  C21715418   5.069   6.328   8.859 -0.7283  0.5254  0.0220
  141SAPE  H17R15419   5.101   6.241   8.796 -0.1568  0.1996  0.7570
  141SAPE  H17S15420   5.151   6.403   8.862 -3.3752  3.6938 -0.7282
  141SAPE  C21815421   4.945   6.384   8.783 -0.5350 -0.3536  0.2931
  141SAPE  H18R15422   4.910   6.476   8.835 -0.1401  0.6061 -1.0932
  141SAPE  H18S15423   4.856   6.318   8.777  0.1799 -1.4501  1.2717
  141SAPE  C21915424   4.978   6.442   8.645  0.3245  0.5482 -0.5623
  141SAPE  H19R15425   4.975   6.355   8.576  2.7028  0.5473 -0.7561
  141SAPE  H19S15426   5.081   6.483   8.644  0.9754 -0.8592  1.6065
  141SAPE  C22015427   4.873   6.544   8.599 -0.3381 -0.2283  0.0600
  141SAPE  H20R15428   4.777   6.490   8.589 -0.9396  0.7570  0.3349
  141SAPE  H20S15429   4.890   6.605   8.507 -0.1450 -0.8744 -0.3382
  141SAPE  H20T15430   4.850   6.617   8.679 -1.5574 -1.4101  0.8225
  141SAPE   C3315431   5.739   7.178  10.043 -0.3209 -0.1504 -0.2849
  141SAPE   H3X15432   5.657   7.108  10.015  0.8240 -2.5816  2.0070
  141SAPE   H3Y15433   5.817   7.109  10.081  0.1401 -0.4742 -1.7701
  141SAPE   C3415434   5.786   7.262   9.923  0.0307  0.1477 -0.4744
  141SAPE   H4X15435   5.876   7.323   9.946  0.0216 -0.3845  1.0711
  141SAPE   H4Y15436   5.706   7.330   9.885  1.5638  1.5221 -1.3654
  141SAPE   C3515437   5.819   7.168   9.807  0.0590  1.1416  0.0124
  141SAPE   H5X15438   5.742   7.090   9.793 -0.1110  0.9671  1.7291
  141SAPE   H5Y15439   5.910   7.110   9.837 -1.4991 -0.4552  1.9166
  141SAPE   C3615440   5.838   7.234   9.669  0.0353 -0.1177  0.6024
  141SAPE   H6X15441   5.911   7.316   9.687 -1.0413  1.6868 -2.5243
  141SAPE   H6Y15442   5.741   7.271   9.629  0.5134 -2.0517 -2.7285
  141SAPE   C3715443   5.892   7.145   9.563 -0.7754  0.5730 -0.0960
  141SAPE   H7X15444   5.813   7.066   9.557  0.0088 -0.2356  0.0412
  141SAPE   H7Y15445   5.991   7.098   9.582 -0.6658  1.9021  3.3111
  141SAPE   C3815446   5.911   7.210   9.429  0.4597  0.2028 -0.1150
  141SAPE   H8X15447   5.941   7.133   9.355 -1.6978  1.2813 -2.2406
  141SAPE   H8Y15448   5.983   7.295   9.426 -0.7965  1.3144  0.2070
  141SAPE   C3915449   5.785   7.275   9.365 -0.3052 -0.2383 -0.7661
  141SAPE   H9X15450   5.773   7.375   9.412  1.4982 -0.0771 -0.6114
  141SAPE   H9Y15451   5.712   7.203   9.408  0.8053  0.0419  1.7568
  141SAPE  C31015452   5.786   7.281   9.215  0.0372 -0.1467 -0.4266
  141SAPE  H10X15453   5.688   7.316   9.175  1.3233  0.9013 -2.9206
  141SAPE  H10Y15454   5.808   7.177   9.183 -0.8052 -0.0298 -1.4445
  141SAPE  C31115455   5.914   7.347   9.146 -0.2202 -0.0024  0.0250
  141SAPE  H11X15456   5.996   7.335   9.219  2.1917  0.3046 -2.4760
  141SAPE  H11Y15457   5.891   7.456   9.142  0.3142  0.2455  2.3631
  141SAPE  C31215458   5.955   7.281   9.014 -0.7658  0.0231 -0.0474
  141SAPE  H12X15459   5.873   7.226   8.963  2.8075 -6.3530  0.1102
  141SAPE  H12Y15460   6.016   7.191   9.035 -1.2346 -0.2015  0.3945
  141SAPE  C31315461   6.040   7.365   8.922 -0.1661 -0.2573 -0.1141
  141SAPE  H13X15462   5.973   7.433   8.864 -0.7638 -0.5523  0.2167
  141SAPE  H13Y15463   6.076   7.297   8.841 -1.1156 -0.4260 -0.4096
  141SAPE  C31415464   6.156   7.455   8.982  0.1244 -0.3380  0.4617
  141SAPE  H14X15465   6.203   7.390   9.060 -2.4835 -0.7960  1.7811
  141SAPE  H14Y15466   6.112   7.541   9.038  0.3532  1.0301 -1.3815
  141SAPE  C31515467   6.260   7.508   8.881 -0.0547  0.0551  0.7020
  141SAPE  H15X15468   6.218   7.560   8.792  1.1596  0.9644  0.6354
  141SAPE  H15Y15469   6.317   7.429   8.826  1.9160  1.2318  0.9832
  141SAPE  C31615470   6.363   7.601   8.944  1.0894 -0.2879 -0.6050
  141SAPE  H16X15471   6.454   7.610   8.881  2.9811  0.6185  2.0293
  141SAPE  H16Y15472   6.401   7.547   9.034  2.2908  1.4228 -0.0308
  141SAPE  C31715473   6.319   7.745   8.989 -0.0275 -0.2549  0.3420
  141SAPE  H17X15474   6.389   7.791   9.061 -0.9884 -1.4176  2.0775
  141SAPE  H17Y15475   6.222   7.741   9.044 -0.3119  1.4886  0.0297
  141SAPE  C31815476   6.306   7.828   8.857 -0.6587 -0.6014 -0.3932
  141SAPE  H18X15477   6.241   7.778   8.783 -2.0014  0.3301  0.1117
  141SAPE  H18Y15478   6.400   7.854   8.804 -0.4559  0.6967  0.5348
  141SAPE  H18Z15479   6.259   7.925   8.885  2.9279  1.4059 -0.7812
  142SAPE     N15480   5.495   1.569  10.717 -0.4889 -0.4215  0.0644
  142SAPE   HN115481   5.396   1.586  10.690 -0.3110 -0.9646 -0.9750
  142SAPE   HN215482   5.562   1.635  10.672 -1.4248  0.5147  0.0014
  142SAPE   HN315483   5.532   1.472  10.707  2.8057  0.8217 -1.1536
  142SAPE   C1215484   5.506   1.593  10.861  0.1899  0.5994 -0.5962
  142SAPE  H12A15485   5.417   1.547  10.909 -0.0745  3.0190  1.4600
  142SAPE  H12B15486   5.501   1.703  10.877 -1.1992  0.9075 -2.8097
  142SAPE   C1115487   5.652   1.549  10.907 -0.0170  0.3845 -0.1691
  142SAPE  H11A15488   5.673   1.595  11.006 -0.6138 -0.0337  0.1559
  142SAPE  H11B15489   5.738   1.576  10.843  1.9884  0.0171  2.2251
  142SAPE     P15490   5.692   1.319  11.033 -0.1401  0.1565  0.5272
  142SAPE   O1315491   5.780   1.392  11.127 -0.1395 -0.4642 -0.6348
  142SAPE   O1415492   5.580   1.248  11.089  0.3353 -0.2901  0.0856
  142SAPE   O1215493   5.650   1.414  10.919  0.0671  0.6815  0.7459
  142SAPE   O1115494   5.784   1.220  10.961 -0.3469 -0.2510  0.0941
  142SAPE    C115495   5.885   1.247  10.864  0.5920  0.3122 -0.0237
  142SAPE    HA15496   5.952   1.325  10.906  1.3907 -0.0343 -0.6480
  142SAPE    HB15497   5.937   1.150  10.856  0.3919  0.3118 -1.5852
  142SAPE    C215498   5.830   1.277  10.721  0.3020  0.8246 -0.7836
  142SAPE    HS15499   5.779   1.375  10.734 -0.0687  0.5991 -0.5014
  142SAPE   O2115500   5.744   1.168  10.677 -0.0459 -0.1998  0.2937
  142SAPE   C2115501   5.614   1.202  10.654 -0.0238  0.1821  0.6973
  142SAPE   O2215502   5.576   1.317  10.646 -0.2112 -0.4489 -0.1322
  142SAPE   C2215503   5.542   1.075  10.686  0.1160 -0.1258  0.0161
  142SAPE   H2R15504   5.610   0.987  10.684  1.4567  0.8824 -0.9601
  142SAPE   H2S15505   5.505   1.090  10.789  0.6183 -1.8905  0.4934
  142SAPE    C315506   5.942   1.299  10.610  0.7312 -0.9582  0.3539
  142SAPE    HX15507   6.010   1.213  10.625 -0.1412 -1.6484  0.4628
  142SAPE    HY15508   6.010   1.384  10.632  0.8496 -0.9666  0.0321
  142SAPE   O3115509   5.890   1.306  10.474  0.3248  0.3217  0.3912
  142SAPE   C3115510   5.841   1.418  10.429  0.1734 -0.0844 -0.3994
  142SAPE   O3215511   5.853   1.527  10.486  0.6596 -0.2573  0.3135
  142SAPE   C3215512   5.770   1.401  10.291 -0.5144  0.2079 -0.4538
  142SAPE   H2X15513   5.842   1.338  10.235 -0.1568  0.4080 -0.2209
  142SAPE   H2Y15514   5.772   1.501  10.243 -0.8867 -0.0909 -1.1070
  142SAPE   C2315515   5.416   1.048  10.594  0.0494  0.2673 -0.4268
  142SAPE   H3R15516   5.349   1.137  10.592  2.1850  2.0677  1.3419
  142SAPE   H3S15517   5.351   0.977  10.650 -1.3708  1.5904 -0.3296
  142SAPE   C2415518   5.440   0.979  10.458  0.1282 -0.7053  0.1067
  142SAPE   H4R15519   5.497   1.046  10.391 -1.4221 -1.1090 -1.6948
  142SAPE   H4S15520   5.339   0.969  10.412  0.3691  0.5722 -0.7454
  142SAPE   C2515521   5.512   0.849  10.468  0.0347  0.8036  0.0620
  142SAPE   H5R15522   5.510   0.804  10.568 -1.0808 -2.4645 -1.2911
  142SAPE   C2615523   5.577   0.796  10.368  0.7449  0.6227 -0.0749
  142SAPE   H6R15524   5.629   0.702  10.393  2.3104  1.1814 -1.0860
  142SAPE   C2715525   5.599   0.826  10.219  0.6494  0.8888 -0.3306
  142SAPE   H7R15526   5.502   0.863  10.180 -1.6603 -0.9182  3.0664
  142SAPE   H7S15527   5.605   0.731  10.161  0.4471  0.5753  0.1524
  142SAPE   C2815528   5.717   0.911  10.205  0.4752 -0.6395  0.0109
  142SAPE   H8R15529   5.737   0.972  10.294  0.1519 -0.0183 -0.3420
  142SAPE   C2915530   5.787   0.933  10.088 -0.7391  0.0057  0.1376
  142SAPE   H9R15531   5.868   1.007  10.089 -2.2636  1.7510  0.3686
  142SAPE  C21015532   5.763   0.858   9.961  1.1402  0.4787 -0.1481
  142SAPE  H10R15533   5.715   0.939   9.902 -3.1921  0.0333  2.3879
  142SAPE  H10S15534   5.695   0.772   9.978  0.7050  0.8729  0.1397
  142SAPE  C21115535   5.886   0.814   9.894  0.2619  0.6619  0.0718
  142SAPE  H11R15536   5.976   0.820   9.956  0.4823  0.7766 -0.2603
  142SAPE  C21215537   5.888   0.774   9.766 -0.1747  0.0908 -0.5038
  142SAPE  H12R15538   5.982   0.753   9.711  0.0534  1.2309 -0.5706
  142SAPE  C21315539   5.772   0.763   9.681  0.0098  0.4048 -0.2682
  142SAPE  H13R15540   5.693   0.717   9.743  1.8001 -1.0356  1.0587
  142SAPE  H13S15541   5.784   0.696   9.593 -1.9433  1.7780 -1.6758
  142SAPE  C21415542   5.740   0.902   9.621  0.3069 -0.7799 -0.3477
  142SAPE  H14R15543   5.816   0.969   9.578 -0.4619 -0.9406 -2.0834
  142SAPE  C21515544   5.615   0.952   9.607  0.4916 -0.6660 -0.2134
  142SAPE  H15R15545   5.603   1.057   9.575  1.4607 -0.1116  1.1465
  142SAPE  C21615546   5.497   0.883   9.656  0.0327 -0.3219 -0.2852
  142SAPE  H16R15547   5.504   0.772   9.660 -1.2920 -0.3710  1.5576
  142SAPE  H16S15548   5.405   0.898   9.596 -0.5484  1.4105  0.9809
  142SAPE  C21715549   5.451   0.922   9.800 -0.5597 -0.0516 -0.8909
  142SAPE  H17R15550   5.531   0.889   9.870 -0.5067  1.0084 -0.4219
  142SAPE  H17S15551   5.352   0.875   9.820  0.2254 -1.1415  0.6441
  142SAPE  C21815552   5.433   1.078   9.830 -0.4165  0.2273 -0.4699
  142SAPE  H18R15553   5.534   1.118   9.808 -0.7872  1.0896 -0.6431
  142SAPE  H18S15554   5.417   1.104   9.937 -0.6398  1.0528 -0.6960
  142SAPE  C21915555   5.328   1.152   9.742  0.2048 -0.5665 -0.2170
  142SAPE  H19R15556   5.236   1.090   9.742 -0.5868  0.5810  0.5677
  142SAPE  H19S15557   5.363   1.153   9.636  0.1852 -0.0573 -0.2172
  142SAPE  C22015558   5.292   1.292   9.801  0.0170  0.4015 -0.3988
  142SAPE  H20R15559   5.234   1.355   9.731 -1.6469  0.7778  1.2773
  142SAPE  H20S15560   5.387   1.347   9.819  0.3947  0.2545 -1.7949
  142SAPE  H20T15561   5.231   1.268   9.890 -0.8772  2.1403 -0.5134
  142SAPE   C3315562   5.640   1.324  10.302  0.2962  0.9121  0.0109
  142SAPE   H3X15563   5.579   1.375  10.379  1.2087 -0.8176  1.9708
  142SAPE   H3Y15564   5.658   1.222  10.341  2.2724  0.9320 -0.7530
  142SAPE   C3415565   5.587   1.325  10.158  0.0719  1.5273 -0.2003
  142SAPE   H4X15566   5.664   1.279  10.092 -0.3588  1.0646 -0.3859
  142SAPE   H4Y15567   5.572   1.432  10.129  1.5755  1.6980 -0.4536
  142SAPE   C3515568   5.449   1.259  10.149 -0.2886 -0.9066 -0.6822
  142SAPE   H5X15569   5.465   1.151  10.171  2.2089 -0.1768  1.5790
  142SAPE   H5Y15570   5.403   1.275  10.049  0.9562 -0.1839 -1.1617
  142SAPE   C3615571   5.335   1.305  10.253 -0.3051  0.7954 -0.2056
  142SAPE   H6X15572   5.336   1.414  10.232 -0.2465  1.2164  1.8185
  142SAPE   H6Y15573   5.365   1.271  10.354  0.8913  0.8241 -0.5291
  142SAPE   C3715574   5.188   1.274  10.210 -0.2820  0.1434  0.8079
  142SAPE   H7X15575   5.170   1.286  10.101  1.0329  0.3400  0.5914
  142SAPE   H7Y15576   5.119   1.343  10.263  0.1414  0.1206  1.3967
  142SAPE   C3815577   5.157   1.121  10.243  0.0812  0.1252  0.2978
  142SAPE   H8X15578   5.144   1.122  10.353  0.2709 -0.4785  0.3262
  142SAPE   H8Y15579   5.240   1.054  10.214  1.1778  1.7115 -0.3809
  142SAPE   C3915580   5.026   1.052  10.189 -0.4671 -0.4323 -0.0003
  142SAPE   H9X15581   4.936   1.104  10.228 -0.7013 -1.1156  0.3926
  142SAPE   H9Y15582   5.019   0.948  10.227  0.5720 -0.9900 -1.2693
  142SAPE  C31015583   5.031   1.036  10.034  0.3821  0.1527  0.7381
  142SAPE  H10X15584   5.138   1.013  10.015  0.0838  0.0057 -0.9370
  142SAPE  H10Y15585   5.003   1.134   9.990 -0.0270  0.4332  1.6122
  142SAPE  C31115586   4.963   0.913   9.965  0.1346 -0.1854 -0.1978
  142SAPE  H11X15587   4.856   0.933   9.946  0.2034 -0.9288 -1.4858
  142SAPE  H11Y15588   4.976   0.823  10.029 -1.7532  2.0238  3.6191
  142SAPE  C31215589   5.010   0.882   9.824  0.2811 -0.2396  1.0579
  142SAPE  H12X15590   5.121   0.881   9.825  0.3144  1.1097  0.8393
  142SAPE  H12Y15591   4.973   0.970   9.766  0.2655 -0.0219  1.3942
  142SAPE  C31315592   4.958   0.756   9.762  0.0374  0.2871 -0.7147
  142SAPE  H13X15593   4.848   0.751   9.751 -0.0193  1.9168 -1.2123
  142SAPE  H13Y15594   4.990   0.667   9.820  1.2053  1.2634  0.1823
  142SAPE  C31415595   5.012   0.749   9.620 -0.8678 -0.1284 -0.0639
  142SAPE  H14X15596   5.118   0.715   9.619 -0.2818  1.6215 -1.0645
  142SAPE  H14Y15597   5.023   0.845   9.566  1.6335 -0.1357  0.3391
  142SAPE  C31515598   4.934   0.657   9.535 -0.5726  0.5015  0.5869
  142SAPE  H15X15599   4.839   0.709   9.513 -0.5774 -0.2332 -1.4088
  142SAPE  H15Y15600   4.914   0.562   9.589  0.5548  0.4677  0.9706
  142SAPE  C31615601   4.991   0.642   9.391  0.0156  0.3851  0.2733
  142SAPE  H16X15602   5.091   0.592   9.397 -0.2499 -0.1780  0.0820
  142SAPE  H16Y15603   4.998   0.734   9.329  1.9300 -0.6118 -1.1076
  142SAPE  C31715604   4.918   0.539   9.302 -0.1642 -0.1525  0.2456
  142SAPE  H17X15605   4.811   0.566   9.287  0.4544  1.9989 -0.6483
  142SAPE  H17Y15606   4.912   0.440   9.352 -1.1333  0.1578  0.7708
  142SAPE  C31815607   4.971   0.517   9.162 -0.1936 -0.3263  0.2681
  142SAPE  H18X15608   5.074   0.477   9.158  0.7354  1.9877 -0.1698
  142SAPE  H18Y15609   4.973   0.612   9.104 -1.8643 -0.2644  0.2606
  142SAPE  H18Z15610   4.901   0.454   9.102 -1.3941  0.0351  1.2570
  143SAPE     N15611   0.485   5.861  10.968 -0.4866 -0.6254 -0.5098
  143SAPE   HN115612   0.535   5.952  10.970 -1.2262 -0.1896 -1.2448
  143SAPE   HN215613   0.515   5.797  11.044 -0.7757  0.0092  0.1565
  143SAPE   HN315614   0.509   5.802  10.886  1.1931  1.1036 -1.3282
  143SAPE   C1215615   0.342   5.873  10.929  0.1650 -0.1959  0.0336
  143SAPE  H12A15616   0.287   5.914  11.017  1.7691 -1.4029  1.6734
  143SAPE  H12B15617   0.300   5.771  10.918 -0.3074 -0.0166  0.1270
  143SAPE   C1115618   0.331   5.952  10.807  0.9704 -0.0100  0.6535
  143SAPE  H11A15619   0.228   5.947  10.765  1.0676  1.3014  0.2321
  143SAPE  H11B15620   0.393   5.908  10.726 -1.3102  0.6500 -1.6061
  143SAPE     P15621   0.276   6.209  10.877  0.0412 -0.2598 -0.1442
  143SAPE   O1315622   0.168   6.155  10.957  0.5609  0.3749 -0.2160
  143SAPE   O1415623   0.368   6.312  10.936  0.1612 -0.5039 -0.3302
  143SAPE   O1215624   0.360   6.087  10.834  0.0104  0.6356  0.0563
  143SAPE   O1115625   0.222   6.260  10.743  0.6524 -0.1226  0.0933
  143SAPE    C115626   0.302   6.263  10.625 -0.2932  0.2763 -0.4251
  143SAPE    HA15627   0.392   6.324  10.650  0.4163 -0.5108 -0.9941
  143SAPE    HB15628   0.316   6.155  10.602 -0.8040  0.1982 -0.3793
  143SAPE    C215629   0.221   6.322  10.510  0.2606 -0.2408 -0.0744
  143SAPE    HS15630   0.205   6.430  10.531  1.7428  0.7066 -3.1303
  143SAPE   O2115631   0.097   6.243  10.496  0.3174  0.0782  0.4057
  143SAPE   C2115632  -0.004   6.311  10.428 -1.1139 -0.1761 -0.8715
  143SAPE   O2215633  -0.004   6.425  10.396  0.1865 -0.2099 -0.4663
  143SAPE   C2215634  -0.133   6.236  10.450  0.4605  0.2681  0.2324
  143SAPE   H2R15635  -0.116   6.152  10.520 -0.3042  0.0060  0.1194
  143SAPE   H2S15636  -0.208   6.308  10.491 -0.7031 -0.3225 -0.7845
  143SAPE    C315637   0.302   6.315  10.380  0.2861 -0.2164  0.8479
  143SAPE    HX15638   0.289   6.209  10.346 -0.9734  0.5187 -1.1333
  143SAPE    HY15639   0.408   6.344  10.390  0.9892 -0.8494 -3.0913
  143SAPE   O3115640   0.238   6.385  10.267 -0.0494 -0.6361 -0.3553
  143SAPE   C3115641   0.262   6.518  10.265 -0.5045 -0.5047  0.5670
  143SAPE   O3215642   0.324   6.580  10.350  0.2818  0.1741  0.7938
  143SAPE   C3215643   0.195   6.571  10.134  0.5253  0.4373 -0.2879
  143SAPE   H2X15644   0.089   6.541  10.124  0.0582  1.9103 -0.1101
  143SAPE   H2Y15645   0.257   6.533  10.050 -1.3817 -1.4404 -0.9428
  143SAPE   C2315646  -0.193   6.184  10.313 -0.3257 -0.3169 -0.2552
  143SAPE   H3R15647  -0.209   6.275  10.251 -0.7941  2.8008  4.0114
  143SAPE   H3S15648  -0.294   6.149  10.344  0.3917 -0.3988  2.1786
  143SAPE   C2415649  -0.116   6.069  10.245 -0.3270 -0.2571  0.4243
  143SAPE   H4R15650  -0.115   5.982  10.314  1.3100 -0.5520  0.0813
  143SAPE   H4S15651  -0.011   6.094  10.220 -0.6414  1.9646  1.1105
  143SAPE   C2515652  -0.182   6.029  10.118 -0.3662  0.7306 -0.5414
  143SAPE   H5R15653  -0.266   5.959  10.133 -1.1173  1.5937 -0.5987
  143SAPE   C2615654  -0.138   6.047   9.993 -0.7315  0.6228  0.3502
  143SAPE   H6R15655  -0.195   5.995   9.915  0.6412 -1.0087  0.3929
  143SAPE   C2715656  -0.014   6.120   9.946 -0.4871  0.2223 -0.0646
  143SAPE   H7R15657   0.037   6.069   9.862 -1.5802 -2.0233  0.5473
  143SAPE   H7S15658   0.062   6.123  10.027  1.1080  0.3949 -1.5159
  143SAPE   C2815659  -0.050   6.250   9.893 -0.6347  0.1573 -1.0622
  143SAPE   H8R15660  -0.031   6.328   9.968 -1.0983  0.1974 -0.9867
  143SAPE   C2915661  -0.060   6.298   9.765 -0.2786 -0.4256  0.4426
  143SAPE   H9R15662  -0.078   6.406   9.758  1.8482  0.3695  4.3428
  143SAPE  C21015663  -0.056   6.210   9.647 -0.2519  0.4517  0.5862
  143SAPE  H10R15664  -0.119   6.120   9.657 -1.8833  1.4065 -0.6152
  143SAPE  H10S15665   0.049   6.179   9.628 -0.9116 -1.6015 -0.0137
  143SAPE  C21115666  -0.102   6.297   9.530  0.5085  0.1252  0.4237
  143SAPE  H11R15667  -0.208   6.304   9.504  1.1997 -0.8580 -3.2191
  143SAPE  C21215668  -0.029   6.371   9.447  0.5173  0.0506  0.0801
  143SAPE  H12R15669  -0.085   6.447   9.392 -2.7446 -2.1417  0.0887
  143SAPE  C21315670   0.123   6.390   9.458 -0.5686  0.0230  0.4824
  143SAPE  H13R15671   0.145   6.377   9.566 -1.9492  0.1211  0.7985
  143SAPE  H13S15672   0.154   6.493   9.430 -2.3872  0.2293 -0.9151
  143SAPE  C21415673   0.194   6.281   9.382 -0.7117  0.3979  0.4537
  143SAPE  H14R15674   0.147   6.215   9.308 -0.4460  0.6648  0.0428
  143SAPE  C21515675   0.321   6.235   9.404 -0.3857 -0.3116 -0.2220
  143SAPE  H15R15676   0.350   6.150   9.340 -0.3001  0.5009 -1.2867
  143SAPE  C21615677   0.420   6.289   9.509  0.3311  0.2046 -0.3898
  143SAPE  H16R15678   0.475   6.380   9.476 -0.7498  2.2683  3.0476
  143SAPE  H16S15679   0.502   6.214   9.516 -0.4993 -0.5733  2.1214
  143SAPE  C21715680   0.381   6.311   9.654  1.0482 -0.1312 -0.3788
  143SAPE  H17R15681   0.286   6.259   9.682  0.6549  0.8613  0.1594
  143SAPE  H17S15682   0.358   6.417   9.676 -3.4924 -0.5784 -1.7656
  143SAPE  C21815683   0.488   6.265   9.748  0.0188  0.2825 -0.3670
  143SAPE  H18R15684   0.585   6.314   9.722  0.3563  0.4394  1.1228
  143SAPE  H18S15685   0.494   6.155   9.742 -1.0581  0.2579 -1.4342
  143SAPE  C21915686   0.459   6.302   9.895 -1.0270  0.6400  0.7863
  143SAPE  H19R15687   0.438   6.411   9.895 -1.3929  0.5718  1.3999
  143SAPE  H19S15688   0.549   6.279   9.955 -0.5777  3.2002  1.2025
  143SAPE  C22015689   0.338   6.226   9.952 -0.0402 -0.1833  0.2375
  143SAPE  H20R15690   0.254   6.243   9.882  1.4284 -0.0478 -1.5435
  143SAPE  H20S15691   0.314   6.258  10.056  1.9184 -1.6115  1.1989
  143SAPE  H20T15692   0.346   6.115   9.954  0.0849 -0.1769  0.0900
  143SAPE   C3315693   0.202   6.722  10.131  0.3770 -0.2266 -0.1585
  143SAPE   H3X15694   0.307   6.747  10.156  0.5857 -1.4595  0.3012
  143SAPE   H3Y15695   0.151   6.774  10.215  2.2603 -0.2871  1.0918
  143SAPE   C3415696   0.159   6.777  10.001 -0.5017 -0.9127  0.0726
  143SAPE   H4X15697   0.164   6.888  10.009 -1.9632 -0.8407  0.3127
  143SAPE   H4Y15698   0.056   6.742   9.977  0.0905 -1.8240 -1.2543
  143SAPE   C3515699   0.252   6.746   9.883 -0.2075  0.3236  0.8831
  143SAPE   H5X15700   0.233   6.639   9.858 -2.2805  0.8286  0.0228
  143SAPE   H5Y15701   0.356   6.772   9.908 -0.4886  3.8720 -1.0326
  143SAPE   C3615702   0.223   6.836   9.752 -0.3378  0.7719  0.0200
  143SAPE   H6X15703   0.303   6.803   9.682 -1.9653 -2.2161 -0.6140
  143SAPE   H6Y15704   0.232   6.942   9.782  3.8629  0.2585  1.2546
  143SAPE   C3715705   0.093   6.789   9.684 -0.4255  0.5489 -0.9599
  143SAPE   H7X15706   0.006   6.818   9.746 -0.9303  1.6765 -2.1545
  143SAPE   H7Y15707   0.089   6.678   9.677  0.7637  0.2198  2.0165
  143SAPE   C3815708   0.084   6.841   9.541  0.7773  0.0178 -0.3828
  143SAPE   H8X15709   0.176   6.837   9.480  0.0895 -0.2651 -1.4404
  143SAPE   H8Y15710   0.056   6.949   9.551 -1.3990 -0.7140  3.4460
  143SAPE   C3915711  -0.033   6.777   9.470 -0.3728 -0.3260  0.3661
  143SAPE   H9X15712  -0.118   6.763   9.540 -0.7522  0.7222  0.1349
  143SAPE   H9Y15713  -0.003   6.676   9.432  1.2251  0.2453  0.0445
  143SAPE  C31015714  -0.073   6.850   9.343  0.7803  0.4763 -0.4400
  143SAPE  H10X15715  -0.134   6.784   9.278  0.0018 -0.4323  1.1500
  143SAPE  H10Y15716   0.023   6.884   9.298  1.3297  0.2878  0.5697
  143SAPE  C31115717  -0.169   6.968   9.361  0.5367 -0.0479  0.4498
  143SAPE  H11X15718  -0.115   7.062   9.384 -1.5943  0.8408  2.1471
  143SAPE  H11Y15719  -0.236   6.940   9.445 -1.3953 -0.4170 -1.1382
  143SAPE  C31215720  -0.263   6.988   9.236 -0.6541  0.3130 -0.1871
  143SAPE  H12X15721  -0.359   7.034   9.269 -0.3956 -1.1986  3.0516
  143SAPE  H12Y15722  -0.299   6.891   9.197 -0.5908  0.0380  0.4253
  143SAPE  C31315723  -0.194   7.088   9.134  0.2686  0.4965  0.5018
  143SAPE  H13X15724  -0.100   7.049   9.088 -0.1742 -0.2635  0.2219
  143SAPE  H13Y15725  -0.171   7.181   9.190 -1.7062  1.7699 -0.6963
  143SAPE  C31415726  -0.290   7.127   9.021  0.4062 -0.1355 -0.4965
  143SAPE  H14X15727  -0.243   7.211   8.966  1.9524 -1.1207 -0.7458
  143SAPE  H14Y15728  -0.382   7.159   9.073  2.7386  1.5168  3.0199
  143SAPE  C31515729  -0.322   7.024   8.912 -0.5925  0.5839  0.0102
  143SAPE  H15X15730  -0.418   7.062   8.871 -0.4047 -0.8478 -1.8560
  143SAPE  H15Y15731  -0.351   6.932   8.969 -2.8065 -0.4082 -2.5062
  143SAPE  C31615732  -0.218   6.997   8.806 -0.1413  0.8459  0.3396
  143SAPE  H16X15733  -0.265   6.929   8.732 -1.4847  0.2305  1.6961
  143SAPE  H16Y15734  -0.130   6.955   8.859  0.5080 -0.0202 -1.3766
  143SAPE  C31715735  -0.163   7.108   8.719 -0.6500  0.0961 -0.4850
  143SAPE  H17X15736  -0.120   7.179   8.793 -1.3301 -1.0779  1.0893
  143SAPE  H17Y15737  -0.247   7.151   8.660 -0.8681 -1.9252 -1.7636
  143SAPE  C31815738  -0.039   7.067   8.626 -0.0744  0.2592 -0.0089
  143SAPE  H18X15739   0.008   7.150   8.568  2.2029 -1.4965 -0.8050
  143SAPE  H18Y15740  -0.070   6.990   8.552 -2.6351  0.3880  0.8237
  143SAPE  H18Z15741   0.035   7.015   8.689  1.1516  0.5254 -1.1818
  144SAPE     N15742   2.716   4.080  11.098  0.1128  0.4582 -0.2626
  144SAPE   HN115743   2.630   4.138  11.107 -0.1116  0.4363 -1.9630
  144SAPE   HN215744   2.682   3.986  11.128  2.3475  0.9144  4.8033
  144SAPE   HN315745   2.769   4.100  11.186  1.4344 -2.8732 -0.1627
  144SAPE   C1215746   2.788   4.101  10.966 -0.0498  0.2561 -0.0629
  144SAPE  H12A15747   2.833   4.010  10.921 -0.7690 -0.7608  1.2108
  144SAPE  H12B15748   2.871   4.171  10.993 -0.5316  1.1007 -0.7064
  144SAPE   C1115749   2.696   4.187  10.872 -0.6538 -0.4003  0.0231
  144SAPE  H11A15750   2.616   4.119  10.836 -0.3058 -0.2581 -1.0513
  144SAPE  H11B15751   2.751   4.216  10.780  0.2820 -1.5100  0.2079
  144SAPE     P15752   2.678   4.440  10.931 -0.1366 -0.2380 -0.1968
  144SAPE   O1315753   2.590   4.525  11.013  0.6152  0.0756 -0.1121
  144SAPE   O1415754   2.826   4.430  10.975  0.5524 -0.2208  0.1158
  144SAPE   O1215755   2.625   4.296  10.937  0.4955  0.1017 -0.1932
  144SAPE   O1115756   2.659   4.471  10.781 -0.4817  0.1030 -0.3934
  144SAPE    C115757   2.538   4.507  10.720 -0.2679  0.1130  0.0014
  144SAPE    HA15758   2.450   4.442  10.736 -0.2549 -0.3628 -1.6483
  144SAPE    HB15759   2.503   4.607  10.753 -1.3976 -0.8658  1.8800
  144SAPE    C215760   2.538   4.505  10.563  0.1079  0.6341  0.6305
  144SAPE    HS15761   2.625   4.565  10.530  0.7303 -1.4179 -1.7977
  144SAPE   O2115762   2.417   4.570  10.517 -0.2476  0.2787 -0.0302
  144SAPE   C2115763   2.429   4.636  10.407 -0.9733  0.4956  0.5536
  144SAPE   O2215764   2.538   4.666  10.351  0.0587  0.2407 -0.2322
  144SAPE   C2215765   2.292   4.680  10.357  0.3087  0.1602 -0.0550
  144SAPE   H2R15766   2.226   4.686  10.446  0.7459 -0.0192  0.2796
  144SAPE   H2S15767   2.294   4.778  10.304 -0.7830 -0.7389 -1.8659
  144SAPE    C315768   2.545   4.361  10.514 -0.1301  0.4108  0.5445
  144SAPE    HX15769   2.453   4.305  10.543 -1.0778  2.0760  0.8352
  144SAPE    HY15770   2.631   4.311  10.564 -0.6267 -2.6293 -1.3558
  144SAPE   O3115771   2.573   4.355  10.371  0.0975 -0.2722  0.1670
  144SAPE   C3115772   2.537   4.246  10.304  0.5508  0.0215 -0.0915
  144SAPE   O3215773   2.464   4.158  10.357 -0.4178  0.4660 -0.2698
  144SAPE   C3215774   2.572   4.260  10.154  0.4326  0.2016  0.0946
  144SAPE   H2X15775   2.679   4.287  10.143  0.8587 -1.6320 -0.5247
  144SAPE   H2Y15776   2.523   4.354  10.121  1.8295  0.7252 -0.5908
  144SAPE   C2315777   2.228   4.581  10.253  0.0749  0.8292  0.2448
  144SAPE   H3R15778   2.130   4.626  10.226  0.6155  2.1908  0.4842
  144SAPE   H3S15779   2.219   4.485  10.308  2.5060  0.8063  0.7194
  144SAPE   C2415780   2.313   4.575  10.125 -0.4923  0.5391  0.5065
  144SAPE   H4R15781   2.274   4.493  10.062 -1.6150  1.6383 -0.2938
  144SAPE   H4S15782   2.415   4.544  10.155 -0.8041 -0.6901  0.3448
  144SAPE   C2515783   2.325   4.705  10.049 -0.2182  0.0198 -0.2171
  144SAPE   H5R15784   2.321   4.793  10.115  2.4116  0.4001 -0.4758
  144SAPE   C2615785   2.345   4.723   9.920 -0.9437  0.2219 -0.3740
  144SAPE   H6R15786   2.351   4.826   9.883 -0.3615  0.9600  1.6854
  144SAPE   C2715787   2.369   4.629   9.810  0.3101 -0.0222  0.1366
  144SAPE   H7R15788   2.433   4.545   9.846 -0.5008 -0.7187 -0.0122
  144SAPE   H7S15789   2.432   4.680   9.734 -0.4751  0.4850 -0.1827
  144SAPE   C2815790   2.240   4.577   9.741  0.2437  0.0824  0.0270
  144SAPE   H8R15791   2.176   4.529   9.815  0.7449 -0.7158 -0.0446
  144SAPE   C2915792   2.204   4.591   9.608 -0.3904 -0.4466 -0.3949
  144SAPE   H9R15793   2.107   4.544   9.585 -0.2253 -1.2682  0.4875
  144SAPE  C21015794   2.292   4.650   9.494  1.2214 -0.1560 -0.2475
  144SAPE  H10R15795   2.386   4.697   9.529  0.0391  2.8706 -0.8263
  144SAPE  H10S15796   2.229   4.726   9.443 -0.4192 -1.1818  0.1660
  144SAPE  C21115797   2.322   4.536   9.404 -0.3624 -0.4282 -0.4047
  144SAPE  H11R15798   2.379   4.451   9.446 -1.2291 -1.1619 -0.6686
  144SAPE  C21215799   2.277   4.534   9.278 -0.0229 -0.3785  1.2652
  144SAPE  H12R15800   2.292   4.440   9.223 -3.1337  0.1033 -0.6300
  144SAPE  C21315801   2.201   4.632   9.190  0.1750 -0.4419 -0.9324
  144SAPE  H13R15802   2.185   4.729   9.242 -1.5692 -1.0412 -0.2797
  144SAPE  H13S15803   2.097   4.595   9.184 -0.1249 -0.0739  1.1627
  144SAPE  C21415804   2.255   4.669   9.052  1.0805 -1.1340 -0.7440
  144SAPE  H14R15805   2.297   4.771   9.045  2.4298 -1.2961  2.8639
  144SAPE  C21515806   2.248   4.598   8.940 -0.0887 -0.7091 -0.2357
  144SAPE  H15R15807   2.281   4.651   8.849 -2.7623  2.7511  0.6193
  144SAPE  C21615808   2.181   4.460   8.917  0.1540 -0.2341 -0.3029
  144SAPE  H16R15809   2.088   4.478   8.858 -1.6975 -2.3732  1.7376
  144SAPE  H16S15810   2.151   4.414   9.014 -4.5964  1.6602 -0.5706
  144SAPE  C21715811   2.287   4.379   8.844  0.6114  0.6749 -0.7709
  144SAPE  H17R15812   2.366   4.362   8.920  0.5724  0.6176 -0.7434
  144SAPE  H17S15813   2.335   4.435   8.761  4.2071 -0.4288  0.3637
  144SAPE  C21815814   2.235   4.241   8.799  0.2678 -0.4346  0.5481
  144SAPE  H18R15815   2.193   4.190   8.888 -1.0942  0.2080  0.2861
  144SAPE  H18S15816   2.304   4.166   8.753  0.2092 -0.8000  1.0458
  144SAPE  C21915817   2.137   4.257   8.680 -0.1741  0.3562  0.1576
  144SAPE  H19R15818   2.159   4.336   8.605  0.2926 -1.5483 -1.8180
  144SAPE  H19S15819   2.038   4.286   8.722 -0.7338 -2.7643  1.2893
  144SAPE  C22015820   2.113   4.124   8.608 -0.1614 -0.1391 -0.4896
  144SAPE  H20R15821   2.031   4.146   8.537 -0.3364  0.8505  0.0021
  144SAPE  H20S15822   2.073   4.038   8.667  0.9458 -1.3570 -1.4385
  144SAPE  H20T15823   2.204   4.095   8.552  1.1749  0.4372  1.2852
  144SAPE   C3315824   2.527   4.127  10.085  0.3014 -0.0472 -0.1948
  144SAPE   H3X15825   2.420   4.107  10.107  0.5871 -1.2163  0.2247
  144SAPE   H3Y15826   2.588   4.038  10.115  0.9193  1.0205  1.8889
  144SAPE   C3415827   2.527   4.146   9.936 -1.1468  0.6741 -0.6747
  144SAPE   H4X15828   2.618   4.195   9.896  0.4106 -0.1673  1.6453
  144SAPE   H4Y15829   2.435   4.203   9.909 -2.9518 -2.0860 -0.8331
  144SAPE   C3515830   2.513   4.019   9.856 -0.4220 -0.4297  0.1114
  144SAPE   H5X15831   2.412   3.980   9.882 -0.8272  1.2450  1.1899
  144SAPE   H5Y15832   2.592   3.947   9.885 -0.2630 -0.3762 -0.1855
  144SAPE   C3615833   2.497   4.050   9.707 -0.2017  0.0268  0.0921
  144SAPE   H6X15834   2.413   4.120   9.691 -2.8670 -2.8938  0.3583
  144SAPE   H6Y15835   2.462   3.957   9.658 -0.8757  0.2392  0.1697
  144SAPE   C3715836   2.628   4.092   9.630  0.1177 -0.3457 -0.5171
  144SAPE   H7X15837   2.693   4.003   9.616  0.8439 -0.1494  1.4265
  144SAPE   H7Y15838   2.673   4.176   9.686 -0.5292 -1.2141  1.3859
  144SAPE   C3815839   2.599   4.140   9.483 -0.0791 -0.0492 -0.8701
  144SAPE   H8X15840   2.692   4.183   9.440 -0.4882  1.8121  0.0228
  144SAPE   H8Y15841   2.520   4.218   9.486 -0.9166 -0.8281  2.5863
  144SAPE   C3915842   2.535   4.024   9.396  0.1729 -0.1484  0.4839
  144SAPE   H9X15843   2.429   3.992   9.404 -0.2455 -0.5041 -3.8831
  144SAPE   H9Y15844   2.607   3.939   9.398  1.2101  0.6383 -1.5149
  144SAPE  C31015845   2.533   4.070   9.249 -0.3161 -0.2677  0.4682
  144SAPE  H10X15846   2.637   4.078   9.212 -0.8371 -2.8203 -1.8955
  144SAPE  H10Y15847   2.483   4.167   9.232 -1.1331 -0.6960  0.3703
  144SAPE  C31115848   2.450   3.973   9.158  0.5048 -0.4539  0.0924
  144SAPE  H11X15849   2.347   3.966   9.198  1.1655 -3.6514  1.5767
  144SAPE  H11Y15850   2.501   3.874   9.161  1.4238  0.0241  0.8698
  144SAPE  C31215851   2.459   4.031   9.012 -0.1680  0.1062  0.5161
  144SAPE  H12X15852   2.563   4.068   9.001  1.0019 -2.6282  1.4958
  144SAPE  H12Y15853   2.399   4.123   8.999 -1.3398 -0.6989  0.0711
  144SAPE  C31315854   2.436   3.929   8.902 -0.7790  0.3662  0.5130
  144SAPE  H13X15855   2.509   3.845   8.904 -0.3395  0.7364  0.2199
  144SAPE  H13Y15856   2.462   3.977   8.805 -0.0860  2.7453  1.8091
  144SAPE  C31415857   2.301   3.867   8.908  0.8070 -0.6444 -0.0279
  144SAPE  H14X15858   2.223   3.941   8.880  1.1387 -0.7668 -1.3568
  144SAPE  H14Y15859   2.279   3.833   9.012  0.6449  0.0401  0.1682
  144SAPE  C31515860   2.293   3.755   8.807 -0.4022  0.3354 -0.5994
  144SAPE  H15X15861   2.215   3.687   8.848  0.9954 -0.7780  0.3670
  144SAPE  H15Y15862   2.383   3.690   8.818 -1.8155 -1.3045  2.4092
  144SAPE  C31615863   2.273   3.785   8.664 -0.0857 -0.0208  0.0445
  144SAPE  H16X15864   2.356   3.848   8.625  0.1700 -1.6539 -2.2858
  144SAPE  H16Y15865   2.178   3.843   8.660 -0.4078 -0.5646 -0.2980
  144SAPE  C31715866   2.261   3.656   8.574  0.0680  0.1137 -0.8415
  144SAPE  H17X15867   2.215   3.684   8.477  0.6939 -0.2178 -1.2474
  144SAPE  H17Y15868   2.192   3.588   8.629 -0.7037  0.9137 -0.8140
  144SAPE  C31815869   2.397   3.578   8.554  0.0889  0.0278  0.4838
  144SAPE  H18X15870   2.469   3.641   8.496 -0.7567 -0.3970 -1.0833
  144SAPE  H18Y15871   2.391   3.477   8.510  0.1969 -0.1507  0.8748
  144SAPE  H18Z15872   2.435   3.553   8.655 -0.3489 -1.9303  0.1939
  145SAPE     N15873   6.714   5.110  11.268  0.3948 -0.4667 -0.8400
  145SAPE   HN115874   6.644   5.048  11.223 -0.1552  0.7064 -1.6691
  145SAPE   HN215875   6.779   5.051  11.325 -0.2980 -1.2511 -0.8472
  145SAPE   HN315876   6.650   5.172  11.322  2.8396  0.8516  0.7671
  145SAPE   C1215877   6.788   5.194  11.167  0.3406 -0.5643 -0.2141
  145SAPE  H12A15878   6.711   5.224  11.093 -2.6385 -1.7503  2.1822
  145SAPE  H12B15879   6.880   5.147  11.126  2.1363  2.4547  0.0613
  145SAPE   C1115880   6.840   5.324  11.243  0.2233 -0.0400 -0.8805
  145SAPE  H11A15881   6.747   5.375  11.278  1.2233  1.2618 -0.0326
  145SAPE  H11B15882   6.885   5.385  11.162  0.7907 -1.2635 -1.5110
  145SAPE     P15883   7.085   5.268  11.317 -0.1409 -0.1819 -0.3131
  145SAPE   O1315884   7.157   5.393  11.365 -0.2927  0.1944  0.0032
  145SAPE   O1415885   7.124   5.137  11.371 -0.4337  0.6802  0.6392
  145SAPE   O1215886   6.933   5.287  11.352  0.1019 -0.5614  0.0546
  145SAPE   O1115887   7.098   5.253  11.157 -0.2537 -1.0026 -0.1856
  145SAPE    C115888   7.197   5.324  11.087  0.3946 -0.1910 -0.4387
  145SAPE    HA15889   7.249   5.399  11.150 -0.6022  1.5722 -1.6139
  145SAPE    HB15890   7.279   5.253  11.062  1.9222  0.7808  1.5915
  145SAPE    C215891   7.149   5.402  10.960  0.0289 -0.1693  0.6291
  145SAPE    HS15892   7.065   5.471  10.984 -1.1543 -1.2150 -0.3517
  145SAPE   O2115893   7.088   5.301  10.875 -0.2811 -0.5418  0.2650
  145SAPE   C2115894   6.964   5.300  10.859  0.0290 -0.3392 -0.2794
  145SAPE   O2215895   6.878   5.374  10.902 -0.1500 -0.6938  0.3380
  145SAPE   C2215896   6.941   5.203  10.745 -0.3739 -0.8806  0.1458
  145SAPE   H2R15897   7.033   5.205  10.683 -1.6120  0.1634 -1.8058
  145SAPE   H2S15898   6.904   5.108  10.788 -0.7602 -0.9677 -0.3604
  145SAPE    C315899   7.251   5.479  10.884  0.4667  0.2973  0.3787
  145SAPE    HX15900   7.320   5.411  10.830  0.0695  1.9960 -2.5182
  145SAPE    HY15901   7.309   5.531  10.963 -3.4756  1.1130  3.0128
  145SAPE   O3115902   7.194   5.574  10.794 -0.3501  0.4487 -0.2740
  145SAPE   C3115903   7.161   5.524  10.673  0.4356 -0.4912 -0.6690
  145SAPE   O3215904   7.172   5.406  10.647 -0.7690 -0.5539 -0.0455
  145SAPE   C3215905   7.100   5.630  10.581  0.0766 -0.3161  0.5726
  145SAPE   H2X15906   7.168   5.716  10.565  0.2249 -0.7420 -1.2482
  145SAPE   H2Y15907   7.004   5.661  10.629 -0.3343 -0.9583  0.1899
  145SAPE   C2315908   6.821   5.253  10.659  0.5227  0.1290  0.0418
  145SAPE   H3R15909   6.849   5.352  10.616 -2.5381  0.3638 -1.7092
  145SAPE   H3S15910   6.728   5.257  10.720  0.1837  0.0027 -0.4636
  145SAPE   C2415911   6.791   5.158  10.539 -0.6831 -0.1103  0.2196
  145SAPE   H4R15912   6.763   5.060  10.583 -0.4556 -1.2458 -2.0454
  145SAPE   H4S15913   6.883   5.136  10.480 -0.1101  1.6123  0.3988
  145SAPE   C2515914   6.677   5.219  10.464  0.3295  0.5394  0.3304
  145SAPE   H5R15915   6.588   5.245  10.522  0.0682  0.1279  0.1181
  145SAPE   C2615916   6.678   5.266  10.338  0.3813 -0.1742  0.7352
  145SAPE   H6R15917   6.585   5.310  10.301  0.8985  1.3178  1.1486
  145SAPE   C2715918   6.786   5.252  10.238  0.3550  0.2916  0.7686
  145SAPE   H7R15919   6.886   5.242  10.285  1.4211 -0.0330 -1.4368
  145SAPE   H7S15920   6.797   5.346  10.179  0.0750 -1.9124 -3.1573
  145SAPE   C2815921   6.770   5.133  10.147 -0.1866 -0.7848 -0.1778
  145SAPE   H8R15922   6.822   5.042  10.180  2.4785  1.5496  2.6769
  145SAPE   C2915923   6.713   5.139  10.025  0.3317 -0.1724 -0.1063
  145SAPE   H9R15924   6.722   5.051   9.959 -1.0038  0.1511 -0.7683
  145SAPE  C21015925   6.650   5.252   9.946  0.1541 -0.3906 -0.1585
  145SAPE  H10R15926   6.639   5.349   9.999  1.9728 -0.1685 -0.1091
  145SAPE  H10S15927   6.561   5.206   9.900  1.1517 -1.8169 -0.7354
  145SAPE  C21115928   6.735   5.297   9.832 -0.1153  0.6295 -0.0541
  145SAPE  H11R15929   6.843   5.278   9.848  0.3219  0.8547 -2.3409
  145SAPE  C21215930   6.695   5.355   9.718  0.3633 -0.4184 -0.3616
  145SAPE  H12R15931   6.764   5.389   9.639 -0.0531  0.9259 -0.1797
  145SAPE  C21315932   6.548   5.388   9.697 -0.4282  0.0051 -0.2384
  145SAPE  H13R15933   6.542   5.492   9.660  2.7249  0.7986  1.1966
  145SAPE  H13S15934   6.486   5.386   9.789 -0.7523 -1.9269 -0.4452
  145SAPE  C21415935   6.485   5.308   9.587 -0.2742 -0.3262 -0.5335
  145SAPE  H14R15936   6.447   5.208   9.613 -0.6768 -0.2265 -0.7353
  145SAPE  C21515937   6.465   5.343   9.458  0.0730  0.1745  0.5883
  145SAPE  H15R15938   6.407   5.268   9.402  0.5152 -0.4776  0.9945
  145SAPE  C21615939   6.490   5.475   9.384  0.9101  0.2979 -0.9132
  145SAPE  H16R15940   6.580   5.525   9.427  0.7811  0.0570 -0.3548
  145SAPE  H16S15941   6.403   5.542   9.403  0.8262 -0.3500  1.2278
  145SAPE  C21715942   6.508   5.453   9.239 -0.5429  1.0426  0.0309
  145SAPE  H17R15943   6.440   5.377   9.194 -1.7709  2.1240  0.0135
  145SAPE  H17S15944   6.613   5.418   9.230 -0.4797  0.9519  0.9903
  145SAPE  C21815945   6.500   5.579   9.148  0.8401 -0.5902  0.1750
  145SAPE  H18R15946   6.571   5.654   9.189  1.0096 -0.4263 -0.4114
  145SAPE  H18S15947   6.394   5.611   9.151  0.7911 -0.6195 -0.8762
  145SAPE  C21915948   6.536   5.557   8.999 -0.2829  0.0345 -0.3247
  145SAPE  H19R15949   6.444   5.536   8.940 -0.6106 -1.3186  0.6101
  145SAPE  H19S15950   6.596   5.464   8.992 -2.0110 -1.0487 -2.0623
  145SAPE  C22015951   6.610   5.678   8.939 -0.7737 -0.3550  0.0679
  145SAPE  H20R15952   6.693   5.708   9.006  0.0709  2.1492 -1.9253
  145SAPE  H20S15953   6.552   5.772   8.922  3.0922  2.2638  0.2447
  145SAPE  H20T15954   6.654   5.650   8.841  1.1050  0.1356  0.7279
  145SAPE   C3315955   7.076   5.566  10.441  0.0757  0.0974 -0.1792
  145SAPE   H3X15956   6.998   5.487  10.441 -1.5013  1.5788  0.4139
  145SAPE   H3Y15957   7.173   5.524  10.409  0.8772  2.1031 -0.5459
  145SAPE   C3415958   7.030   5.660  10.336 -0.2612 -0.2469 -0.2529
  145SAPE   H4X15959   7.113   5.733  10.321 -0.9354  0.6459  0.2573
  145SAPE   H4Y15960   6.942   5.710  10.382  0.5491 -0.3987  1.5353
  145SAPE   C3515961   7.006   5.610  10.191  0.6865 -0.1505  0.2470
  145SAPE   H5X15962   6.909   5.558  10.201  1.1169 -0.8587  0.8971
  145SAPE   H5Y15963   7.070   5.527  10.153 -1.8004 -1.0136 -2.4030
  145SAPE   C3615964   7.012   5.717  10.080 -0.3995 -0.2818 -0.1132
  145SAPE   H6X15965   7.112   5.765  10.078  0.0250 -1.1656 -1.6117
  145SAPE   H6Y15966   6.944   5.796  10.120 -1.7737 -2.8722  3.1887
  145SAPE   C3715967   6.971   5.667   9.938  0.7727 -0.0403 -0.0088
  145SAPE   H7X15968   6.865   5.632   9.934  0.4875  0.9219 -1.5111
  145SAPE   H7Y15969   7.032   5.578   9.911 -0.0529 -0.4276 -0.6449
  145SAPE   C3815970   6.985   5.779   9.826  0.3892  0.3215 -0.7146
  145SAPE   H8X15971   7.084   5.830   9.825  0.2570  0.5841 -0.4504
  145SAPE   H8Y15972   6.915   5.861   9.852  1.4511  1.7207 -2.0559
  145SAPE   C3915973   6.949   5.717   9.691 -0.5096  0.1163  0.1262
  145SAPE   H9X15974   6.843   5.686   9.699 -1.1507  2.1840  0.3398
  145SAPE   H9Y15975   7.027   5.641   9.669 -1.3500 -0.9274  0.6832
  145SAPE  C31015976   6.969   5.822   9.578  0.0599 -0.9287  0.1939
  145SAPE  H10X15977   7.078   5.835   9.562 -0.2262 -0.8145 -1.8458
  145SAPE  H10Y15978   6.924   5.923   9.591 -0.0421 -0.9378 -0.1072
  145SAPE  C31115979   6.910   5.759   9.449 -0.0245 -0.0981  0.0139
  145SAPE  H11X15980   6.801   5.769   9.436  0.1527  1.5476 -0.3907
  145SAPE  H11Y15981   6.947   5.654   9.448  2.6097  0.7004  1.5534
  145SAPE  C31215982   6.964   5.826   9.323  0.5056 -0.4509 -0.1022
  145SAPE  H12X15983   6.956   5.753   9.240 -0.6924 -0.3710 -0.0694
  145SAPE  H12Y15984   7.068   5.864   9.335  0.3442 -0.2175  0.6652
  145SAPE  C31315985   6.885   5.943   9.274  0.0063  0.0249  0.4479
  145SAPE  H13X15986   6.943   6.001   9.199  0.2262 -2.2604 -1.2627
  145SAPE  H13Y15987   6.871   6.007   9.364 -0.5961 -1.5239  1.5026
  145SAPE  C31415988   6.750   5.910   9.212  0.7743 -0.4741  0.3847
  145SAPE  H14X15989   6.689   5.851   9.284  0.9960 -1.3963 -0.1634
  145SAPE  H14Y15990   6.766   5.862   9.113 -1.1635 -0.9017  0.2275
  145SAPE  C31515991   6.672   6.041   9.181 -0.3199  0.2958 -0.1015
  145SAPE  H15X15992   6.734   6.124   9.139 -1.3136  0.9230 -0.3806
  145SAPE  H15Y15993   6.633   6.084   9.276  0.3110  1.0568 -0.1744
  145SAPE  C31615994   6.547   6.021   9.092 -0.5136  0.4080 -0.0285
  145SAPE  H16X15995   6.490   5.929   9.115 -1.2253  0.5273 -1.2193
  145SAPE  H16Y15996   6.574   6.012   8.984 -3.8984  0.0017 -0.9587
  145SAPE  C31715997   6.457   6.146   9.079 -0.1911  0.1656 -0.3187
  145SAPE  H17X15998   6.502   6.220   9.148  0.3448 -0.4327 -0.0067
  145SAPE  H17Y15999   6.354   6.114   9.105  0.3306 -0.7290  0.7341
  145SAPE  C31816000   6.451   6.213   8.942 -0.0925  0.3464 -0.5958
  145SAPE  H18X16001   6.545   6.256   8.901  0.2862 -2.0174 -2.4169
  145SAPE  H18Y16002   6.373   6.292   8.950  0.8403  1.2537 -0.1660
  145SAPE  H18Z16003   6.423   6.145   8.859 -1.5283  1.6165 -1.2046
  146SAPE     N16004   3.625   5.189  11.104  0.0995 -0.4944 -0.1096
  146SAPE   HN116005   3.621   5.200  11.207  1.0754  2.5712 -0.3275
  146SAPE   HN216006   3.586   5.273  11.057  1.3931 -0.0049 -0.3480
  146SAPE   HN316007   3.567   5.105  11.079 -2.3453  0.4904  1.8365
  146SAPE   C1216008   3.774   5.156  11.067  0.1619 -0.0474 -0.2842
  146SAPE  H12A16009   3.797   5.062  11.122 -0.5079  1.3616  2.5528
  146SAPE  H12B16010   3.838   5.235  11.110 -1.0268  1.3277 -0.9553
  146SAPE   C1116011   3.787   5.128  10.914  0.4723  0.2343  0.1221
  146SAPE  H11A16012   3.714   5.050  10.883  1.5444 -0.0494 -1.7973
  146SAPE  H11B16013   3.886   5.079  10.902  0.4971 -0.4819  2.5472
  146SAPE     P16014   3.873   5.361  10.820  0.4210  0.4062 -0.0374
  146SAPE   O1316015   3.791   5.472  10.753 -0.0551 -0.5287 -0.0506
  146SAPE   O1416016   3.954   5.384  10.939 -0.5333  0.8930 -1.0758
  146SAPE   O1216017   3.764   5.247  10.847  0.3555 -0.0972  0.0759
  146SAPE   O1116018   3.968   5.304  10.709 -0.1722 -0.1945  0.5104
  146SAPE    C116019   3.919   5.250  10.589 -0.1050  0.4520  0.7587
  146SAPE    HA16020   3.846   5.168  10.610  0.4820 -1.3090 -3.2130
  146SAPE    HB16021   3.881   5.328  10.520  2.4939  0.3363 -0.9339
  146SAPE    C216022   4.025   5.177  10.496 -0.9610  0.0857 -0.5128
  146SAPE    HS16023   4.070   5.100  10.563 -1.2090  0.5036  0.1416
  146SAPE   O2116024   4.125   5.280  10.463 -0.3493  0.4179  0.4162
  146SAPE   C2116025   4.218   5.286  10.549 -0.2983  0.1844 -0.1339
  146SAPE   O2216026   4.236   5.219  10.648  0.3284 -0.3201  0.0961
  146SAPE   C2216027   4.312   5.397  10.517  0.1493 -0.9232  0.0376
  146SAPE   H2R16028   4.260   5.476  10.457 -2.8904 -1.4137  1.8005
  146SAPE   H2S16029   4.334   5.451  10.612  2.5670 -1.3381 -0.2388
  146SAPE    C316030   3.956   5.122  10.367 -0.0015  0.4473 -0.2265
  146SAPE    HX16031   3.861   5.177  10.353  1.4821  2.5579 -2.8470
  146SAPE    HY16032   3.942   5.013  10.383  1.0888  0.1152 -1.3801
  146SAPE   O3116033   4.035   5.133  10.248  0.1261  0.0258  0.3965
  146SAPE   C3116034   4.138   5.051  10.240 -0.2639  0.5897 -0.0080
  146SAPE   O3216035   4.189   4.982  10.328  0.3378  0.4564  0.1299
  146SAPE   C3216036   4.166   5.054  10.091 -1.7461  0.5979 -0.5329
  146SAPE   H2X16037   4.131   5.149  10.045 -2.8155  0.4172 -0.1178
  146SAPE   H2Y16038   4.106   4.971  10.047 -0.6216  0.3733 -1.6855
  146SAPE   C2316039   4.439   5.335  10.458 -0.5426 -0.7873 -0.0659
  146SAPE   H3R16040   4.455   5.230  10.492 -3.1794 -1.1263  0.3109
  146SAPE   H3S16041   4.527   5.389  10.498 -0.5214  1.2120 -2.6025
  146SAPE   C2416042   4.435   5.340  10.310  0.0270  0.2952 -0.5559
  146SAPE   H4R16043   4.352   5.274  10.275 -2.5317  3.6138 -1.2914
  146SAPE   H4S16044   4.527   5.287  10.279  1.1967  1.4915  0.7400
  146SAPE   C2516045   4.437   5.477  10.249  0.0732 -0.1732  0.4265
  146SAPE   H5R16046   4.517   5.543  10.285  1.3976 -0.3256 -2.0050
  146SAPE   C2616047   4.365   5.519  10.137  0.5629 -0.5212  0.0819
  146SAPE   H6R16048   4.369   5.627  10.116 -0.1659 -0.4149  0.4791
  146SAPE   C2716049   4.265   5.446  10.050  0.1125 -0.0597 -0.4087
  146SAPE   H7R16050   4.317   5.352  10.021 -1.0529 -1.3141  1.3929
  146SAPE   H7S16051   4.248   5.503   9.956  1.0950  0.3648 -0.3454
  146SAPE   C2816052   4.139   5.413  10.130 -0.1880 -0.8395 -0.3928
  146SAPE   H8R16053   4.145   5.406  10.240  2.7419  1.8134 -0.2158
  146SAPE   C2916054   4.021   5.389  10.077 -0.0104 -0.3655  0.5167
  146SAPE   H9R16055   3.931   5.380  10.139 -1.4242  0.8109 -1.2795
  146SAPE  C21016056   3.997   5.385   9.928 -0.9779 -0.1948  0.0538
  146SAPE  H10R16057   3.895   5.344   9.916 -1.5215  0.9715  0.5118
  146SAPE  H10S16058   4.075   5.324   9.878 -1.1231 -0.8117  0.5704
  146SAPE  C21116059   4.001   5.527   9.867 -0.1443  0.1352  0.4931
  146SAPE  H11R16060   3.985   5.608   9.939  2.0374  1.0045  0.1091
  146SAPE  C21216061   4.013   5.552   9.735 -1.0037  0.0275 -0.6143
  146SAPE  H12R16062   4.004   5.655   9.696 -2.6250 -0.6602 -2.1807
  146SAPE  C21316063   4.036   5.447   9.630 -0.0351 -0.1342  0.0382
  146SAPE  H13R16064   3.930   5.426   9.601  0.0634 -2.3118  1.0801
  146SAPE  H13S16065   4.079   5.353   9.669 -0.3805  0.0066  0.7637
  146SAPE  C21416066   4.121   5.491   9.516  0.6768  0.7628 -1.3073
  146SAPE  H14R16067   4.222   5.508   9.556 -0.1096 -0.9254  1.6833
  146SAPE  C21516068   4.095   5.490   9.384 -0.0802  0.5466 -0.1768
  146SAPE  H15R16069   4.175   5.518   9.315 -1.3683  0.9025 -1.5846
  146SAPE  C21616070   3.963   5.444   9.316  0.3674 -0.1718 -0.5937
  146SAPE  H16R16071   3.880   5.464   9.387  2.0605  3.8422  0.5721
  146SAPE  H16S16072   3.967   5.334   9.298  0.4551 -0.1460 -0.7337
  146SAPE  C21716073   3.932   5.502   9.180 -0.1797  0.0083 -0.3360
  146SAPE  H17R16074   3.939   5.611   9.197 -0.5605  0.1266 -0.8999
  146SAPE  H17S16075   3.826   5.481   9.152 -0.4767  3.3324 -2.2123
  146SAPE  C21816076   4.033   5.453   9.072 -1.0644  0.0016  0.2029
  146SAPE  H18R16077   4.022   5.343   9.060 -0.4420  0.0037 -0.4467
  146SAPE  H18S16078   4.134   5.492   9.094 -1.2053  0.2245  0.4611
  146SAPE  C21916079   3.996   5.506   8.929  0.2808  0.0494 -0.4160
  146SAPE  H19R16080   4.079   5.493   8.857 -0.4858 -0.7665 -1.1644
  146SAPE  H19S16081   3.986   5.616   8.942 -2.8311 -0.1420 -0.3271
  146SAPE  C22016082   3.868   5.454   8.863  0.4810  0.7901  0.3246
  146SAPE  H20R16083   3.852   5.494   8.760 -1.8737  1.8915  1.0404
  146SAPE  H20S16084   3.788   5.476   8.937 -0.1116  0.2661 -0.1372
  146SAPE  H20T16085   3.885   5.345   8.846  0.9491  0.7219  1.1997
  146SAPE   C3316086   4.311   5.029  10.067 -0.3868  0.1054  0.7181
  146SAPE   H3X16087   4.338   4.949  10.139  0.5384  1.0982  1.5247
  146SAPE   H3Y16088   4.372   5.120  10.087 -0.8852  0.4274  0.7929
  146SAPE   C3416089   4.329   4.978   9.916 -0.1128 -0.1291 -0.4129
  146SAPE   H4X16090   4.274   4.883   9.900  2.0054 -1.1379 -2.2533
  146SAPE   H4Y16091   4.437   4.963   9.896 -0.1715 -0.2039 -0.6831
  146SAPE   C3516092   4.275   5.086   9.811 -0.0838  0.4953 -0.9338
  146SAPE   H5X16093   4.335   5.178   9.830 -0.3992  0.7388 -1.1061
  146SAPE   H5Y16094   4.166   5.099   9.826  0.1528 -0.8801  3.0971
  146SAPE   C3616095   4.297   5.034   9.669 -0.7985 -0.3255 -0.3496
  146SAPE   H6X16096   4.267   4.927   9.664 -0.4640 -0.5032  0.9583
  146SAPE   H6Y16097   4.406   5.025   9.649 -0.2785 -2.0059  2.5653
  146SAPE   C3716098   4.215   5.113   9.565 -0.9159  0.5098  0.3618
  146SAPE   H7X16099   4.236   5.222   9.569 -0.2232  0.4525 -1.1362
  146SAPE   H7Y16100   4.109   5.097   9.591 -0.8228 -0.0061  0.4356
  146SAPE   C3816101   4.239   5.071   9.420  0.1066 -0.1358  0.2038
  146SAPE   H8X16102   4.224   4.961   9.413  1.0634 -0.2471 -0.2411
  146SAPE   H8Y16103   4.348   5.092   9.407 -0.2063  0.2776 -2.2923
  146SAPE   C3916104   4.144   5.153   9.329 -0.6028 -0.0569 -0.4645
  146SAPE   H9X16105   4.188   5.254   9.314  3.4994 -1.6173 -0.0519
  146SAPE   H9Y16106   4.049   5.169   9.384 -0.0495  1.3269  0.1222
  146SAPE  C31016107   4.141   5.095   9.189 -0.4227 -0.0527 -0.7924
  146SAPE  H10X16108   4.063   5.153   9.134 -2.0869 -0.0453  1.4413
  146SAPE  H10Y16109   4.115   4.989   9.207  0.2511  0.0058  0.6998
  146SAPE  C31116110   4.273   5.091   9.122 -0.1733  0.4326  0.6665
  146SAPE  H11X16111   4.347   5.039   9.186  1.7701  1.4589 -0.6690
  146SAPE  H11Y16112   4.316   5.192   9.105 -0.3772  0.1541 -2.0316
  146SAPE  C31216113   4.264   5.019   8.992 -0.0624 -0.2706 -1.0843
  146SAPE  H12X16114   4.219   4.918   9.006 -0.8041 -0.0157 -1.5830
  146SAPE  H12Y16115   4.367   4.999   8.954  0.6677 -1.0239  1.1557
  146SAPE  C31316116   4.199   5.099   8.872  0.1526 -0.0446 -0.4548
  146SAPE  H13X16117   4.208   5.210   8.882 -1.9190 -0.0178  2.2344
  146SAPE  H13Y16118   4.091   5.078   8.878 -0.1032  1.2380 -0.1145
  146SAPE  C31416119   4.236   5.049   8.729  0.5248  0.1439 -0.4875
  146SAPE  H14X16120   4.312   4.969   8.743 -1.5211 -1.9094 -0.4367
  146SAPE  H14Y16121   4.283   5.127   8.666  0.0850  0.2059 -0.7425
  146SAPE  C31516122   4.114   4.983   8.658  0.5208 -0.3801  0.3091
  146SAPE  H15X16123   4.161   4.935   8.569 -0.3201 -2.8080  1.0767
  146SAPE  H15Y16124   4.041   5.060   8.627  1.4250  0.7368  0.8984
  146SAPE  C31616125   4.052   4.861   8.734  0.5453 -0.1238  0.8307
  146SAPE  H16X16126   4.006   4.895   8.829 -1.0000  1.2501 -0.3436
  146SAPE  H16Y16127   4.140   4.797   8.758  1.2458  0.9831  1.2538
  146SAPE  C31716128   3.947   4.775   8.656 -0.2252 -0.3108 -0.3567
  146SAPE  H17X16129   3.919   4.684   8.714 -1.8637  0.4666  0.1069
  146SAPE  H17Y16130   3.990   4.730   8.563 -1.5949  0.4075 -1.3713
  146SAPE  C31816131   3.818   4.845   8.616 -0.0908 -0.2595 -0.0331
  146SAPE  H18X16132   3.836   4.940   8.563 -1.6015  0.1800  0.1978
  146SAPE  H18Y16133   3.753   4.867   8.704  0.9174 -0.4253  0.7730
  146SAPE  H18Z16134   3.758   4.788   8.541 -0.4333 -1.0775  0.8416
  147SAPE     N16135   0.257   2.434   5.949  0.1177 -0.0994  0.6322
  147SAPE   HN116136   0.322   2.502   5.992  1.0969 -0.3948 -0.3229
  147SAPE   HN216137   0.314   2.352   5.919  0.5484  0.1922  0.6501
  147SAPE   HN316138   0.204   2.480   5.872  1.4400 -0.3390 -0.4579
  147SAPE   C1216139   0.181   2.377   6.061 -0.0211  0.0362  1.0037
  147SAPE  H12A16140   0.115   2.297   6.022  0.3392 -0.4874  1.4566
  147SAPE  H12B16141   0.113   2.453   6.106  0.7031  0.5994  1.1719
  147SAPE   C1116142   0.273   2.323   6.172 -0.5947  0.1114  0.7222
  147SAPE  H11A16143   0.210   2.265   6.243  0.2167 -1.7944 -0.0459
  147SAPE  H11B16144   0.322   2.411   6.218  2.2618  0.3914 -2.4872
  147SAPE     P16145   0.495   2.175   6.189  0.4719  0.5232 -0.4800
  147SAPE   O1316146   0.440   2.060   6.254  0.4728 -0.0402  0.0262
  147SAPE   O1416147   0.610   2.148   6.100 -0.2389 -0.5696  0.2451
  147SAPE   O1216148   0.382   2.251   6.113  0.3755  1.2338  0.0527
  147SAPE   O1116149   0.537   2.282   6.297 -0.1272 -0.8421 -0.2281
  147SAPE    C116150   0.653   2.369   6.267  0.3767 -0.0690  0.6870
  147SAPE    HA16151   0.748   2.313   6.284 -0.4394 -1.8756 -0.3960
  147SAPE    HB16152   0.670   2.388   6.159  1.5873 -1.5555  0.5657
  147SAPE    C216153   0.679   2.488   6.349 -0.1838  0.0375  0.0252
  147SAPE    HS16154   0.774   2.540   6.323 -0.2693  0.4085  0.4423
  147SAPE   O2116155   0.661   2.458   6.488  0.0398  0.3128 -0.3280
  147SAPE   C2116156   0.775   2.406   6.539  0.3125  0.6274 -0.2903
  147SAPE   O2216157   0.879   2.386   6.479  0.3833  0.3738  1.3678
  147SAPE   C2216158   0.747   2.363   6.685  0.7813  0.5543  0.1757
  147SAPE   H2R16159   0.661   2.293   6.694  1.1714 -0.3475 -2.2560
  147SAPE   H2S16160   0.828   2.296   6.723  0.7018 -0.7865 -1.8593
  147SAPE    C316161   0.581   2.607   6.310 -0.5121  0.4519 -0.2026
  147SAPE    HX16162   0.475   2.572   6.307  0.1261 -1.8670  1.7233
  147SAPE    HY16163   0.603   2.635   6.205 -0.7668  0.8668 -0.1505
  147SAPE   O3116164   0.609   2.734   6.368  0.1252 -0.2408 -0.0869
  147SAPE   C3116165   0.515   2.779   6.457  0.1968  0.6783  0.9254
  147SAPE   O3216166   0.417   2.710   6.491 -0.7785 -0.0628 -0.1455
  147SAPE   C3216167   0.537   2.919   6.499 -0.0863 -0.0728 -0.3128
  147SAPE   H2X16168   0.441   2.952   6.546 -0.7284  2.2398 -3.0050
  147SAPE   H2Y16169   0.563   2.976   6.408  0.2671  0.6278  0.2190
  147SAPE   C2316170   0.733   2.490   6.774  0.2803  0.0525 -0.0189
  147SAPE   H3R16171   0.681   2.453   6.865  2.3216 -0.2484  1.0736
  147SAPE   H3S16172   0.675   2.578   6.738  1.2582  0.2997 -1.0441
  147SAPE   C2416173   0.874   2.546   6.826  0.1149 -0.1167  0.2918
  147SAPE   H4R16174   0.936   2.462   6.862  0.8506 -0.3523 -1.4249
  147SAPE   H4S16175   0.859   2.609   6.916  3.3940 -0.8064  1.4490
  147SAPE   C2516176   0.953   2.616   6.722 -0.4923 -0.0183  0.1536
  147SAPE   H5R16177   0.997   2.545   6.650 -0.1062 -1.7059  1.9966
  147SAPE   C2616178   0.986   2.746   6.720 -0.0851 -0.5517  0.3385
  147SAPE   H6R16179   1.071   2.766   6.653  1.4997 -3.1912  1.3816
  147SAPE   C2716180   0.939   2.853   6.819 -0.3697 -0.1290  0.4668
  147SAPE   H7R16181   1.002   2.852   6.911  2.3073 -1.4723 -1.2559
  147SAPE   H7S16182   0.836   2.842   6.858 -0.5106  1.0150  0.4526
  147SAPE   C2816183   0.968   2.990   6.755 -0.2829 -0.3951 -0.6840
  147SAPE   H8R16184   1.035   2.995   6.668  0.4556  0.7270 -0.0802
  147SAPE   C2916185   0.941   3.108   6.817  0.2521  0.5380 -0.0768
  147SAPE   H9R16186   0.968   3.201   6.764  1.2472 -0.3336 -1.1275
  147SAPE  C21016187   0.878   3.122   6.960  0.7764 -0.3488  0.1618
  147SAPE  H10R16188   0.805   3.041   6.980 -1.6518  2.1968  2.4167
  147SAPE  H10S16189   0.806   3.206   6.952 -0.3875 -1.2782  0.5464
  147SAPE  C21116190   0.969   3.159   7.077  1.3520 -0.7589  0.6078
  147SAPE  H11R16191   1.066   3.209   7.063  1.0504 -0.3715 -0.1614
  147SAPE  C21216192   0.924   3.157   7.203 -0.3170  0.1071 -0.7084
  147SAPE  H12R16193   1.001   3.172   7.280  2.2393  0.2479 -3.1234
  147SAPE  C21316194   0.784   3.123   7.257 -0.3414  0.3875  0.7782
  147SAPE  H13R16195   0.776   3.047   7.338  1.9271 -1.9737 -1.0528
  147SAPE  H13S16196   0.720   3.080   7.176 -0.3776  1.6043  0.1473
  147SAPE  C21416197   0.709   3.245   7.303  0.0873  0.2801  0.1611
  147SAPE  H14R16198   0.661   3.302   7.223 -1.0954  0.6926  1.1371
  147SAPE  C21516199   0.706   3.299   7.429 -0.2023 -0.0747  0.1721
  147SAPE  H15R16200   0.642   3.388   7.430 -1.6164 -1.0662 -0.2198
  147SAPE  C21616201   0.768   3.233   7.550 -1.2288 -0.6369 -0.2907
  147SAPE  H16R16202   0.872   3.273   7.542 -1.6398  0.3802 -0.6577
  147SAPE  H16S16203   0.767   3.122   7.542 -3.1258 -0.5981 -1.1316
  147SAPE  C21716204   0.712   3.267   7.692  0.3096  0.0822  0.2741
  147SAPE  H17R16205   0.601   3.273   7.692  0.3593  1.3142  0.0440
  147SAPE  H17S16206   0.737   3.373   7.714  1.7232 -0.1652 -0.0648
  147SAPE  C21816207   0.770   3.169   7.798  1.0516  0.4638 -1.0436
  147SAPE  H18R16208   0.875   3.187   7.831  0.9634  0.7893 -0.9260
  147SAPE  H18S16209   0.760   3.066   7.758  0.5997  0.0513  0.0771
  147SAPE  C21916210   0.684   3.168   7.923  0.3568 -0.3715  0.3671
  147SAPE  H19R16211   0.583   3.134   7.892  1.2087 -2.6663 -0.1240
  147SAPE  H19S16212   0.689   3.273   7.958  0.9663 -0.3641  0.2665
  147SAPE  C22016213   0.751   3.080   8.034  0.0581 -0.5465 -0.2003
  147SAPE  H20R16214   0.687   3.071   8.125  0.4253 -2.7047 -0.0970
  147SAPE  H20S16215   0.856   3.106   8.059  0.0752  0.7016 -1.4385
  147SAPE  H20T16216   0.759   2.978   7.991  0.6888 -0.3220 -0.6214
  147SAPE   C3316217   0.640   2.938   6.617  0.1133  0.2446 -0.2513
  147SAPE   H3X16218   0.686   3.038   6.601 -0.0546  0.4303  0.4068
  147SAPE   H3Y16219   0.716   2.857   6.605  0.5238  0.9679 -3.5459
  147SAPE   C3416220   0.572   2.943   6.758  0.0045  0.5069 -0.6118
  147SAPE   H4X16221   0.477   3.001   6.755 -0.6524 -0.5698 -1.6757
  147SAPE   H4Y16222   0.636   2.998   6.830 -0.3078 -1.2520  1.0871
  147SAPE   C3516223   0.535   2.804   6.805 -0.0610  0.5687  0.0399
  147SAPE   H5X16224   0.627   2.748   6.836 -1.4091 -1.8812 -0.1098
  147SAPE   H5Y16225   0.494   2.745   6.720 -0.3576  0.2084  0.4279
  147SAPE   C3616226   0.426   2.804   6.914 -0.7164 -0.0986  0.6374
  147SAPE   H6X16227   0.394   2.699   6.928 -2.3949 -0.1532 -2.7818
  147SAPE   H6Y16228   0.345   2.860   6.862 -0.5065  2.9392  3.2411
  147SAPE   C3716229   0.464   2.883   7.040  0.1639 -0.5597  0.0470
  147SAPE   H7X16230   0.375   2.911   7.101 -1.2856  0.3463 -2.3327
  147SAPE   H7Y16231   0.501   2.986   7.024  0.9268 -0.6885  0.8897
  147SAPE   C3816232   0.570   2.832   7.140 -0.5563 -0.0649  0.2462
  147SAPE   H8X16233   0.580   2.897   7.230  0.9030 -0.7471  0.6149
  147SAPE   H8Y16234   0.663   2.848   7.081 -1.1935 -0.7359 -0.9886
  147SAPE   C3916235   0.538   2.687   7.193 -0.6074  0.4574  0.2239
  147SAPE   H9X16236   0.632   2.651   7.241 -0.2914 -0.9479 -1.3147
  147SAPE   H9Y16237   0.531   2.618   7.106 -0.3426  2.1924 -1.2390
  147SAPE  C31016238   0.410   2.670   7.283 -0.9637  1.3764  0.9128
  147SAPE  H10X16239   0.373   2.565   7.290 -1.1651  1.3319 -0.5314
  147SAPE  H10Y16240   0.331   2.716   7.220 -0.1409  2.2546  0.4967
  147SAPE  C31116241   0.413   2.753   7.410  0.5120  0.5187  0.2638
  147SAPE  H11X16242   0.314   2.736   7.457  1.2238  0.3465  1.7553
  147SAPE  H11Y16243   0.425   2.858   7.376 -1.7850  0.0005 -2.5746
  147SAPE  C31216244   0.521   2.704   7.515 -0.1730  0.3756 -0.2391
  147SAPE  H12X16245   0.524   2.773   7.603  1.9276  0.5372 -0.3859
  147SAPE  H12Y16246   0.620   2.717   7.466 -0.0070 -0.5986 -0.1841
  147SAPE  C31316247   0.494   2.557   7.566  0.0384 -0.5398  0.0158
  147SAPE  H13X16248   0.497   2.498   7.472  2.8343 -1.5635  0.6421
  147SAPE  H13Y16249   0.398   2.535   7.618 -0.4818 -1.4312 -1.2781
  147SAPE  C31416250   0.601   2.512   7.664 -1.3602  0.6088  0.4541
  147SAPE  H14X16251   0.704   2.531   7.625 -1.3351  0.0807  0.2470
  147SAPE  H14Y16252   0.599   2.401   7.662  2.2473  0.3610  2.1461
  147SAPE  C31516253   0.588   2.568   7.804  0.4265 -0.6079 -0.2178
  147SAPE  H15X16254   0.488   2.548   7.847  1.1018  0.8257  2.1859
  147SAPE  H15Y16255   0.578   2.678   7.802 -1.7223 -0.7608 -0.0582
  147SAPE  C31616256   0.698   2.521   7.897 -0.2665 -0.4927  0.0899
  147SAPE  H16X16257   0.801   2.552   7.866 -0.4908 -1.1177 -1.3688
  147SAPE  H16Y16258   0.699   2.410   7.885  2.5479 -0.3856 -1.6054
  147SAPE  C31716259   0.677   2.564   8.044 -0.2760  0.1985 -0.4721
  147SAPE  H17X16260   0.579   2.526   8.080 -1.1953 -0.2554 -3.2512
  147SAPE  H17Y16261   0.669   2.675   8.046  0.8000  0.3035 -1.4221
  147SAPE  C31816262   0.780   2.521   8.150  0.5558  0.6274 -0.0525
  147SAPE  H18X16263   0.779   2.411   8.167  0.8900  0.4307 -1.2375
  147SAPE  H18Y16264   0.779   2.575   8.247  2.2479  1.1851 -0.3202
  147SAPE  H18Z16265   0.884   2.542   8.117  1.7456 -2.2180  1.5098
  148SAPE     N16266   6.666   6.446   6.526 -0.0067  0.0767 -0.2201
  148SAPE   HN116267   6.713   6.534   6.494 -1.3171  1.0657  0.4884
  148SAPE   HN216268   6.605   6.407   6.451 -1.7288  3.0697 -0.5550
  148SAPE   HN316269   6.609   6.482   6.605  0.0710 -0.5734  0.1344
  148SAPE   C1216270   6.770   6.358   6.591 -0.0186  0.1834  0.2609
  148SAPE  H12A16271   6.714   6.269   6.626 -2.0219  2.0330  1.9835
  148SAPE  H12B16272   6.809   6.422   6.673  0.2512 -1.7492  1.7164
  148SAPE   C1116273   6.877   6.324   6.487 -0.5488  0.0988 -0.7152
  148SAPE  H11A16274   6.825   6.264   6.409 -0.4901 -3.1076  1.5430
  148SAPE  H11B16275   6.946   6.250   6.531 -2.3169 -1.9011 -1.1343
  148SAPE     P16276   7.099   6.471   6.462  0.0550  0.1946  0.1965
  148SAPE   O1316277   7.176   6.345   6.453  0.3250 -0.6656  0.2798
  148SAPE   O1416278   7.136   6.586   6.378 -0.3302  0.2472  0.4469
  148SAPE   O1216279   6.944   6.436   6.421 -0.0094  0.0601  0.3399
  148SAPE   O1116280   7.087   6.516   6.610 -0.0610 -0.5415 -0.0878
  148SAPE    C116281   7.146   6.456   6.723 -0.8947 -0.6158  0.3405
  148SAPE    HA16282   7.070   6.390   6.770 -0.6000 -1.5671 -0.4653
  148SAPE    HB16283   7.232   6.390   6.696  0.3218  1.4708 -1.1164
  148SAPE    C216284   7.183   6.563   6.829 -0.0928  0.1345 -0.3117
  148SAPE    HS16285   7.245   6.522   6.911  3.1890  1.5776 -1.8823
  148SAPE   O2116286   7.066   6.627   6.878  0.7485  0.0125 -0.5653
  148SAPE   C2116287   6.995   6.557   6.967 -0.3889  0.7388 -0.0705
  148SAPE   O2216288   7.030   6.452   7.026 -0.2612 -0.2735  0.0619
  148SAPE   C2216289   6.856   6.613   6.959 -0.2640  0.3906 -0.1334
  148SAPE   H2R16290   6.861   6.722   6.938 -0.0585  0.7658  1.7273
  148SAPE   H2S16291   6.803   6.554   6.881  0.7148 -0.0891 -0.4566
  148SAPE    C316292   7.259   6.675   6.769 -0.5919 -0.0285  0.1926
  148SAPE    HX16293   7.194   6.745   6.712  1.2593  1.9514  0.3871
  148SAPE    HY16294   7.331   6.637   6.693 -1.4691 -0.3425 -0.5008
  148SAPE   O3116295   7.329   6.748   6.878  0.0750  0.5947  0.1365
  148SAPE   C3116296   7.428   6.836   6.831 -0.3107  0.2658 -0.0664
  148SAPE   O3216297   7.440   6.869   6.710  0.1160 -0.0602  0.1833
  148SAPE   C3216298   7.521   6.869   6.947 -0.2935  0.4925 -0.2204
  148SAPE   H2X16299   7.614   6.915   6.908  0.9129  0.1613  2.0841
  148SAPE   H2Y16300   7.533   6.778   7.010  2.0262  0.8055 -0.1025
  148SAPE   C2316301   6.779   6.614   7.096  0.0859  0.1886  0.5772
  148SAPE   H3R16302   6.679   6.659   7.080 -0.3069 -1.3678 -1.7539
  148SAPE   H3S16303   6.837   6.687   7.156 -0.0010  1.5824 -0.9700
  148SAPE   C2416304   6.763   6.473   7.155  0.5677  0.1006 -0.0445
  148SAPE   H4R16305   6.859   6.444   7.202  0.1584  1.1245  1.4977
  148SAPE   H4S16306   6.745   6.402   7.072 -0.9049 -0.3984  0.6552
  148SAPE   C2516307   6.662   6.457   7.259  0.1908  0.1630 -0.6067
  148SAPE   H5R16308   6.557   6.457   7.227 -0.3587 -0.3532  1.0769
  148SAPE   C2616309   6.669   6.447   7.394 -0.6147 -0.2416  0.4901
  148SAPE   H6R16310   6.577   6.419   7.447  1.2462 -1.3746  3.3931
  148SAPE   C2716311   6.791   6.453   7.478  0.0986  0.1967  0.1346
  148SAPE   H7R16312   6.882   6.463   7.415 -1.7103 -0.5072 -2.7251
  148SAPE   H7S16313   6.801   6.353   7.527 -2.2741 -0.2844 -0.2702
  148SAPE   C2816314   6.772   6.559   7.585 -1.3042  0.1095 -0.0292
  148SAPE   H8R16315   6.768   6.664   7.553  0.0757  0.5712  1.1858
  148SAPE   C2916316   6.768   6.537   7.722 -0.0298  0.4569  0.2360
  148SAPE   H9R16317   6.775   6.623   7.791 -2.0854  1.8274 -1.1555
  148SAPE  C21016318   6.763   6.403   7.792  0.0815 -1.0497 -0.5106
  148SAPE  H10R16319   6.814   6.405   7.891  0.7800  1.8602 -0.8422
  148SAPE  H10S16320   6.835   6.337   7.740 -1.6980 -2.6705 -0.9975
  148SAPE  C21116321   6.639   6.325   7.777 -0.1838  0.0202 -0.3771
  148SAPE  H11R16322   6.603   6.305   7.675  0.6482 -0.1658 -0.6458
  148SAPE  C21216323   6.555   6.298   7.885 -0.2697 -0.0046  0.3737
  148SAPE  H12R16324   6.462   6.241   7.869 -1.0797  1.6632 -1.2369
  148SAPE  C21316325   6.568   6.334   8.029 -0.6141 -0.5275 -0.6409
  148SAPE  H13R16326   6.507   6.425   8.047 -1.1506 -1.4353  2.9276
  148SAPE  H13S16327   6.668   6.374   8.057 -0.8398 -0.9579  0.9008
  148SAPE  C21416328   6.524   6.217   8.116 -0.1805  0.4668 -0.0164
  148SAPE  H14R16329   6.561   6.116   8.093 -1.1600  0.4571 -1.6981
  148SAPE  C21516330   6.436   6.225   8.214  0.2672  0.6363 -0.5815
  148SAPE  H15R16331   6.398   6.136   8.266  2.3564 -0.6272 -1.0730
  148SAPE  C21616332   6.370   6.361   8.263  0.2921 -0.3399  0.1014
  148SAPE  H16R16333   6.282   6.346   8.329 -0.7853 -0.4967 -1.3064
  148SAPE  H16S16334   6.324   6.413   8.176 -1.8525 -2.4863 -0.1593
  148SAPE  C21716335   6.466   6.448   8.338 -0.4171  0.1382  0.0061
  148SAPE  H17R16336   6.425   6.547   8.368  0.7031  1.3193 -2.1415
  148SAPE  H17S16337   6.550   6.473   8.270  1.0376  1.2327  2.0657
  148SAPE  C21816338   6.526   6.384   8.465 -0.4426 -0.6434 -0.5756
  148SAPE  H18R16339   6.563   6.285   8.432 -0.5983 -0.7264 -0.5037
  148SAPE  H18S16340   6.447   6.372   8.543 -1.4031  0.2703 -1.3898
  148SAPE  C21916341   6.640   6.481   8.516 -0.0142  0.3448 -0.5069
  148SAPE  H19R16342   6.596   6.567   8.571  0.6784 -0.6129  1.6788
  148SAPE  H19S16343   6.708   6.513   8.434  0.5891  0.7086  0.1292
  148SAPE  C22016344   6.745   6.422   8.620 -0.1591  0.1394 -0.0585
  148SAPE  H20R16345   6.796   6.502   8.679 -1.0695  1.1885 -0.6673
  148SAPE  H20S16346   6.821   6.361   8.567 -0.5166 -1.2339  0.9408
  148SAPE  H20T16347   6.696   6.343   8.681  0.0062 -1.6915 -2.2028
  148SAPE   C3316348   7.461   6.970   7.042  0.3381  0.1989 -0.4501
  148SAPE   H3X16349   7.368   6.927   7.085  0.2778  1.0106  0.2501
  148SAPE   H3Y16350   7.419   7.055   6.984 -0.5894  0.1987  0.2076
  148SAPE   C3416351   7.563   7.022   7.150  0.6184 -0.4361 -0.1850
  148SAPE   H4X16352   7.662   7.061   7.119  1.0011  1.8760  3.2938
  148SAPE   H4Y16353   7.562   6.936   7.220 -1.9506  0.8878  1.5867
  148SAPE   C3516354   7.497   7.132   7.228  0.0735  0.1558  0.5856
  148SAPE   H5X16355   7.387   7.129   7.210  0.5717 -0.6728 -2.9318
  148SAPE   H5Y16356   7.537   7.232   7.200  1.9093  0.1097  2.7439
  148SAPE   C3616357   7.513   7.118   7.381 -0.1074 -0.4889 -0.0877
  148SAPE   H6X16358   7.465   7.022   7.410 -0.0463 -0.6045 -0.3601
  148SAPE   H6Y16359   7.451   7.189   7.439  0.2269 -0.7400  0.5912
  148SAPE   C3716360   7.659   7.147   7.442  0.2326  1.1251 -0.1499
  148SAPE   H7X16361   7.700   7.249   7.424  0.7510  1.2591  1.6801
  148SAPE   H7Y16362   7.732   7.081   7.391  1.4405  2.5493 -0.3143
  148SAPE   C3816363   7.669   7.130   7.591  0.4824 -0.4687 -0.0404
  148SAPE   H8X16364   7.597   7.190   7.650  1.0306  0.6938 -0.5185
  148SAPE   H8Y16365   7.771   7.162   7.623  0.1429  1.4839 -0.8185
  148SAPE   C3916366   7.647   6.977   7.635 -0.2095  0.1186  0.3554
  148SAPE   H9X16367   7.715   6.921   7.567 -1.7942  1.7527 -2.8486
  148SAPE   H9Y16368   7.540   6.956   7.612 -0.2976  0.9131  0.0163
  148SAPE  C31016369   7.673   6.960   7.788  0.4369  0.3408 -0.5572
  148SAPE  H10X16370   7.761   7.026   7.805  0.7457  0.3532 -2.0969
  148SAPE  H10Y16371   7.693   6.857   7.827  1.7667  1.0868  0.8670
  148SAPE  C31116372   7.553   7.007   7.872 -0.6851  0.1426 -0.3889
  148SAPE  H11X16373   7.462   6.977   7.816  1.4067 -2.3131 -2.7842
  148SAPE  H11Y16374   7.552   7.118   7.877 -0.6524  0.1012  3.3358
  148SAPE  C31216375   7.549   6.959   8.017  0.5680  0.2626 -1.2587
  148SAPE  H12X16376   7.581   6.853   8.031 -0.9556  0.1073  1.9985
  148SAPE  H12Y16377   7.444   6.968   8.052  0.3628 -0.2072 -1.7320
  148SAPE  C31316378   7.633   7.043   8.114 -0.0806  0.0198  0.9979
  148SAPE  H13X16379   7.589   7.144   8.102  0.1634  0.0200 -0.0079
  148SAPE  H13Y16380   7.740   7.049   8.083 -0.0733 -1.1430  0.7290
  148SAPE  C31416381   7.621   7.009   8.265 -0.0449  0.1346 -0.4450
  148SAPE  H14X16382   7.648   6.904   8.287  0.6800  0.8661  2.6044
  148SAPE  H14Y16383   7.518   7.012   8.308  0.1331 -4.0595  0.6987
  148SAPE  C31516384   7.704   7.103   8.356  0.0771 -0.3773 -0.3471
  148SAPE  H15X16385   7.668   7.207   8.343  2.4395  0.7131  1.0994
  148SAPE  H15Y16386   7.808   7.086   8.322  0.2842 -1.7920  0.8783
  148SAPE  C31616387   7.693   7.067   8.501  0.6858  0.6488  0.2915
  148SAPE  H16X16388   7.727   6.962   8.509 -0.2871  0.3457  0.5350
  148SAPE  H16Y16389   7.584   7.081   8.520  0.0996  0.3453 -2.4434
  148SAPE  C31716390   7.770   7.164   8.601  0.0050 -0.2479  0.0786
  148SAPE  H17X16391   7.724   7.265   8.598 -0.5011 -0.4850 -0.1619
  148SAPE  H17Y16392   7.869   7.181   8.553 -0.9793 -2.7059 -3.1416
  148SAPE  C31816393   7.783   7.105   8.741  0.2856  0.4667  0.0781
  148SAPE  H18X16394   7.684   7.083   8.786 -1.2137  1.4297 -2.5008
  148SAPE  H18Y16395   7.841   7.163   8.816  3.0955 -2.6858  0.5850
  148SAPE  H18Z16396   7.842   7.010   8.737  0.8984  0.8788 -1.0660
  149SAPE     N16397   1.012   1.636   6.230 -0.3349  0.0996 -0.6211
  149SAPE   HN116398   1.113   1.654   6.216 -0.0740 -0.0311  0.8939
  149SAPE   HN216399   0.982   1.608   6.325 -0.0878  3.3660  0.5497
  149SAPE   HN316400   0.997   1.553   6.169  1.5845  1.1480 -2.6439
  149SAPE   C1216401   0.929   1.759   6.206 -0.1529 -0.8064  0.2514
  149SAPE  H12A16402   0.938   1.795   6.101  0.6290  0.7883  0.8300
  149SAPE  H12B16403   0.976   1.838   6.267  0.8232 -0.8307 -0.4571
  149SAPE   C1116404   0.780   1.742   6.250 -0.4718 -0.5976  0.0459
  149SAPE  H11A16405   0.722   1.677   6.181 -0.4458  0.5035 -1.0307
  149SAPE  H11B16406   0.737   1.844   6.251 -0.9944 -0.8079  1.4568
  149SAPE     P16407   0.658   1.633   6.455  0.0397  0.0712  0.0562
  149SAPE   O1316408   0.546   1.597   6.362  0.3801  0.3890  0.4674
  149SAPE   O1416409   0.703   1.524   6.544  0.1338 -0.2933 -0.6271
  149SAPE   O1216410   0.783   1.680   6.377  0.0882 -0.2687 -0.4389
  149SAPE   O1116411   0.612   1.753   6.545 -0.2633 -0.7373  0.1214
  149SAPE    C116412   0.720   1.834   6.602 -0.5503 -0.1828 -0.2482
  149SAPE    HA16413   0.820   1.786   6.598 -0.2104  0.4847  0.1338
  149SAPE    HB16414   0.744   1.931   6.553  1.9863 -0.9479 -0.6751
  149SAPE    C216415   0.689   1.851   6.755 -0.5354 -0.1861 -1.0741
  149SAPE    HS16416   0.583   1.882   6.762 -0.6407  0.2411 -3.4747
  149SAPE   O2116417   0.780   1.953   6.807 -0.2980 -0.1155  0.0899
  149SAPE   C2116418   0.726   2.014   6.910  0.8712 -0.8891 -0.0923
  149SAPE   O2216419   0.606   2.015   6.938  0.6429  0.2022 -0.4384
  149SAPE   C2216420   0.822   2.089   6.997 -0.5348  0.8085 -0.1954
  149SAPE   H2R16421   0.887   2.017   7.052 -1.6465  1.2096  1.7139
  149SAPE   H2S16422   0.889   2.150   6.934 -0.2041  0.8633  0.2065
  149SAPE    C316423   0.716   1.713   6.827 -0.6757 -0.0612 -0.0691
  149SAPE    HX16424   0.821   1.687   6.802 -1.2405 -1.3960 -1.1767
  149SAPE    HY16425   0.649   1.637   6.783 -0.6753 -0.0322 -0.1210
  149SAPE   O3116426   0.705   1.723   6.964  0.1744  0.2442  0.9084
  149SAPE   C3116427   0.593   1.699   7.023  0.2434  0.3105 -0.1690
  149SAPE   O3216428   0.488   1.680   6.962  0.2568 -0.2264 -0.2249
  149SAPE   C3216429   0.620   1.696   7.165 -0.6507 -0.0243 -0.4749
  149SAPE   H2X16430   0.699   1.621   7.190  0.6360  1.5036  0.2012
  149SAPE   H2Y16431   0.533   1.660   7.223  1.9850 -2.8053  2.1449
  149SAPE   C2316432   0.762   2.166   7.105 -0.0671 -0.3437  0.2319
  149SAPE   H3R16433   0.720   2.099   7.182 -0.7505  1.1070  1.1757
  149SAPE   H3S16434   0.672   2.227   7.079 -2.4559 -2.1108  3.6383
  149SAPE   C2416435   0.863   2.245   7.191 -0.7531 -0.1434  0.2597
  149SAPE   H4R16436   0.917   2.310   7.120  0.8472 -0.5985  1.0263
  149SAPE   H4S16437   0.938   2.171   7.227  0.2628 -0.1806 -1.8074
  149SAPE   C2516438   0.823   2.328   7.309 -0.1486  0.5378 -0.1127
  149SAPE   H5R16439   0.764   2.271   7.382 -0.5728  1.0651 -0.0393
  149SAPE   C2616440   0.852   2.456   7.336 -0.1763 -0.7146  0.1011
  149SAPE   H6R16441   0.809   2.502   7.427  1.6403  1.5371 -0.0935
  149SAPE   C2716442   0.937   2.551   7.255 -0.7323 -0.2171 -0.1531
  149SAPE   H7R16443   0.954   2.520   7.149 -0.3951  1.5254 -0.6389
  149SAPE   H7S16444   1.041   2.547   7.294 -0.9062  2.4321  0.7560
  149SAPE   C2816445   0.891   2.691   7.246 -0.1544  0.1883  0.4661
  149SAPE   H8R16446   0.859   2.729   7.148 -0.1853  0.3113  0.5237
  149SAPE   C2916447   0.897   2.781   7.342  0.6722  0.5405  0.0418
  149SAPE   H9R16448   0.872   2.885   7.314 -1.9742 -0.3849 -1.4633
  149SAPE  C21016449   0.952   2.755   7.477  0.1732  0.4909  0.3426
  149SAPE  H10R16450   1.033   2.679   7.471  2.3858  2.7815 -0.7505
  149SAPE  H10S16451   0.878   2.713   7.549  0.7709  0.8961  1.2223
  149SAPE  C21116452   1.030   2.873   7.532 -0.1429 -0.4753 -1.0801
  149SAPE  H11R16453   1.087   2.924   7.453 -0.4585 -1.0016 -1.6603
  149SAPE  C21216454   1.045   2.911   7.663 -0.1160 -0.0337  0.8543
  149SAPE  H12R16455   1.116   2.989   7.695 -2.0132  1.4398  1.6837
  149SAPE  C21316456   0.982   2.850   7.783 -0.5991 -0.1067  0.0151
  149SAPE  H13R16457   0.920   2.764   7.750  0.1333 -0.3293 -0.8473
  149SAPE  H13S16458   0.915   2.924   7.830  1.7071  2.4331 -0.4782
  149SAPE  C21416459   1.083   2.798   7.885 -0.1374 -0.1323 -0.4010
  149SAPE  H14R16460   1.089   2.688   7.895  1.0468  0.0524  1.2420
  149SAPE  C21516461   1.158   2.869   7.973 -0.3215  0.2246  0.5741
  149SAPE  H15R16462   1.233   2.826   8.040 -0.0144 -0.3040 -0.1051
  149SAPE  C21616463   1.163   3.018   7.995  0.4511  0.6255  0.8230
  149SAPE  H16R16464   1.075   3.066   7.946 -0.3828 -1.8998 -0.3269
  149SAPE  H16S16465   1.260   3.055   7.955  0.2916  0.4197  0.2383
  149SAPE  C21716466   1.158   3.045   8.148  0.8234 -0.5044  0.3277
  149SAPE  H17R16467   1.236   2.986   8.202  1.3847  0.2015  0.3020
  149SAPE  H17S16468   1.057   3.029   8.192  1.3297 -0.7181  1.4329
  149SAPE  C21816469   1.189   3.202   8.166 -0.7256 -0.2314  0.2960
  149SAPE  H18R16470   1.276   3.226   8.102 -0.1031 -1.2864  0.7304
  149SAPE  H18S16471   1.225   3.215   8.271 -0.8361  0.0082  0.3065
  149SAPE  C21916472   1.082   3.307   8.130  0.0168  0.1138 -0.1685
  149SAPE  H19R16473   1.005   3.290   8.207  0.4732 -1.3493 -0.0041
  149SAPE  H19S16474   1.039   3.288   8.029 -0.1774  0.6167 -0.1870
  149SAPE  C22016475   1.134   3.449   8.159 -0.1416 -0.0957 -0.2965
  149SAPE  H20R16476   1.228   3.458   8.101  0.2834  0.2508  0.4361
  149SAPE  H20S16477   1.152   3.464   8.268 -0.0462  0.2436 -0.3566
  149SAPE  H20T16478   1.060   3.526   8.128  0.6227  0.8083  0.0942
  149SAPE   C3316479   0.654   1.835   7.227  0.5762  0.2805  0.1959
  149SAPE   H3X16480   0.570   1.908   7.229  0.8731  0.6096  0.7719
  149SAPE   H3Y16481   0.737   1.885   7.172  1.6521 -2.2014 -0.6332
  149SAPE   C3416482   0.693   1.821   7.377  0.1947 -0.0460 -0.4155
  149SAPE   H4X16483   0.775   1.747   7.390 -0.7518 -0.9800  0.4147
  149SAPE   H4Y16484   0.609   1.774   7.433  1.3527 -1.5612  0.1001
  149SAPE   C3516485   0.717   1.956   7.441 -0.7980  0.6164 -0.1340
  149SAPE   H5X16486   0.619   2.003   7.420 -1.2598 -1.1005 -2.3258
  149SAPE   H5Y16487   0.797   2.020   7.398 -1.5194  2.5785  1.3181
  149SAPE   C3616488   0.750   1.946   7.595 -0.1369 -0.7760 -0.4580
  149SAPE   H6X16489   0.852   1.901   7.602  0.1872  0.0100  0.0144
  149SAPE   H6Y16490   0.687   1.878   7.656 -1.3944  0.2908 -0.5278
  149SAPE   C3716491   0.745   2.091   7.650 -0.0637  0.0478  0.5134
  149SAPE   H7X16492   0.649   2.138   7.617  0.1097  0.0473  0.0048
  149SAPE   H7Y16493   0.821   2.163   7.612 -0.7969  0.9858  0.7804
  149SAPE   C3816494   0.728   2.081   7.804  0.2229  0.0718  0.8175
  149SAPE   H8X16495   0.641   2.019   7.834  0.7796 -1.4861 -0.6304
  149SAPE   H8Y16496   0.706   2.186   7.832 -1.2901  0.2057 -0.7190
  149SAPE   C3916497   0.837   2.009   7.887 -0.0209 -0.6003  0.7793
  149SAPE   H9X16498   0.938   2.039   7.851 -0.9510  1.1199 -0.5627
  149SAPE   H9Y16499   0.830   1.899   7.876 -1.6430 -0.3155 -2.0073
  149SAPE  C31016500   0.816   2.050   8.036 -0.1207  0.0180 -0.0246
  149SAPE  H10X16501   0.713   2.021   8.067 -0.8659  2.1788 -0.3289
  149SAPE  H10Y16502   0.821   2.159   8.054  4.0015 -0.2114  1.2095
  149SAPE  C31116503   0.918   1.987   8.130 -0.3554  1.0446 -0.1957
  149SAPE  H11X16504   1.009   2.046   8.152 -0.0884  0.2069  1.0669
  149SAPE  H11Y16505   0.951   1.894   8.079 -1.3102  0.2884  0.5209
  149SAPE  C31216506   0.853   1.945   8.265  0.0289 -0.8277 -0.0947
  149SAPE  H12X16507   0.775   1.868   8.244  0.8692 -1.9394  0.7239
  149SAPE  H12Y16508   0.807   2.034   8.313  0.2614 -0.7204 -0.0680
  149SAPE  C31316509   0.966   1.881   8.346  0.3628  0.3936  0.4178
  149SAPE  H13X16510   0.933   1.874   8.452 -1.0784  1.4266  0.0661
  149SAPE  H13Y16511   1.054   1.948   8.352  1.4722 -0.8182 -1.4085
  149SAPE  C31416512   1.017   1.734   8.306  0.0473 -1.2100  0.3951
  149SAPE  H14X16513   1.094   1.704   8.379  1.7588 -2.2882 -1.7364
  149SAPE  H14Y16514   1.071   1.729   8.209 -1.4768 -0.7971 -0.5207
  149SAPE  C31516515   0.908   1.630   8.289 -0.2834  0.2755 -0.0309
  149SAPE  H15X16516   0.842   1.647   8.201 -0.3628 -0.4969 -0.1304
  149SAPE  H15Y16517   0.840   1.627   8.377 -0.2214  2.9839  0.1646
  149SAPE  C31616518   0.969   1.488   8.264 -0.0978 -0.1435  0.1341
  149SAPE  H16X16519   1.058   1.488   8.330 -0.4622  0.5375  0.6312
  149SAPE  H16Y16520   1.018   1.484   8.164 -0.2299 -3.2092  0.0740
  149SAPE  C31716521   0.885   1.370   8.303 -0.0787 -0.2131  0.1518
  149SAPE  H17X16522   0.954   1.286   8.283 -0.5184 -0.0553 -2.3570
  149SAPE  H17Y16523   0.797   1.373   8.235  0.5773  1.6513 -0.7028
  149SAPE  C31816524   0.837   1.367   8.448  0.4298  0.5515 -0.1564
  149SAPE  H18X16525   0.910   1.390   8.529 -0.2684 -2.2406  1.3877
  149SAPE  H18Y16526   0.787   1.269   8.463 -0.6801  1.3076  1.4582
  149SAPE  H18Z16527   0.764   1.447   8.473  1.7307  0.8635  3.1598
  150SAPE     N16528   6.201   2.969   6.698 -0.0681 -0.7332  0.2906
  150SAPE   HN116529   6.278   3.032   6.725  2.1317 -2.1430 -2.1966
  150SAPE   HN216530   6.125   3.014   6.644  1.6304  1.1064 -0.6770
  150SAPE   HN316531   6.161   2.902   6.767 -1.7039  1.6325  1.7854
  150SAPE   C1216532   6.270   2.886   6.600  0.1299 -0.1569  0.4831
  150SAPE  H12A16533   6.190   2.840   6.539 -1.2388  1.4258  1.0110
  150SAPE  H12B16534   6.310   2.801   6.659 -1.1495 -3.1194 -2.5647
  150SAPE   C1116535   6.370   2.961   6.507  0.3821  0.0234  0.6199
  150SAPE  H11A16536   6.432   2.885   6.455  2.5306  2.7632 -1.1329
  150SAPE  H11B16537   6.450   3.012   6.565  0.1050 -1.7185  2.6101
  150SAPE     P16538   6.297   3.184   6.405 -0.2613 -0.3580  0.3127
  150SAPE   O1316539   6.389   3.252   6.316  0.0623  0.4575  0.5984
  150SAPE   O1416540   6.157   3.214   6.379 -0.1485  0.1900 -0.0175
  150SAPE   O1216541   6.314   3.035   6.394 -0.5097  0.4408  0.2476
  150SAPE   O1116542   6.321   3.216   6.558  0.3250 -0.2974 -0.2650
  150SAPE    C116543   6.399   3.328   6.599 -0.3657  0.5172 -0.3338
  150SAPE    HA16544   6.390   3.424   6.544  2.0414  0.4514 -0.9485
  150SAPE    HB16545   6.398   3.351   6.708  2.3049  2.3722 -0.5866
  150SAPE    C216546   6.559   3.314   6.575  0.3652 -0.1018  0.2489
  150SAPE    HS16547   6.580   3.297   6.467 -0.0110  0.7752  0.0263
  150SAPE   O2116548   6.608   3.211   6.660  0.1575 -0.3146  0.3164
  150SAPE   C2116549   6.731   3.158   6.618 -0.0009 -0.2348 -0.1027
  150SAPE   O2216550   6.801   3.201   6.530 -0.0773  0.1554  0.2413
  150SAPE   C2216551   6.752   3.023   6.694  0.1527 -0.5319  0.1214
  150SAPE   H2R16552   6.780   3.057   6.796  1.1939  0.4090 -0.4606
  150SAPE   H2S16553   6.654   2.971   6.699 -0.5392  0.7992  0.7121
  150SAPE    C316554   6.627   3.445   6.627 -0.3976  0.6322 -0.4831
  150SAPE    HX16555   6.573   3.528   6.576 -1.4380  0.1809 -0.1594
  150SAPE    HY16556   6.736   3.445   6.607 -0.6218 -0.3247 -1.7961
  150SAPE   O3116557   6.597   3.463   6.769 -0.4512  0.0939  0.1047
  150SAPE   C3116558   6.697   3.444   6.857 -0.0573 -0.0835  0.2867
  150SAPE   O3216559   6.812   3.423   6.826  0.3184 -0.5383 -0.7806
  150SAPE   C3216560   6.641   3.435   6.998  0.2748  1.0626  0.3075
  150SAPE   H2X16561   6.598   3.334   7.009 -0.9188  1.3799 -1.1582
  150SAPE   H2Y16562   6.555   3.503   7.016 -1.1206 -0.4082 -0.5889
  150SAPE   C2316563   6.853   2.926   6.638 -0.5978  0.1701 -0.1345
  150SAPE   H3R16564   6.938   2.984   6.596 -0.5365 -1.0981 -1.9016
  150SAPE   H3S16565   6.809   2.867   6.554  0.4476 -1.3931  0.3711
  150SAPE   C2416566   6.921   2.836   6.746  0.8813  0.6345  0.1879
  150SAPE   H4R16567   6.965   2.895   6.830  2.3913  0.7196 -0.6483
  150SAPE   H4S16568   7.016   2.809   6.695  1.0431  1.7093 -0.1050
  150SAPE   C2516569   6.842   2.716   6.789 -0.5242 -0.8593  0.6431
  150SAPE   H5R16570   6.789   2.667   6.707 -0.3497 -0.9472  0.5812
  150SAPE   C2616571   6.826   2.677   6.918 -0.8333 -0.9003 -1.1640
  150SAPE   H6R16572   6.761   2.592   6.942  0.5339 -1.7255 -0.2323
  150SAPE   C2716573   6.889   2.732   7.041  0.3791 -1.0573 -0.4340
  150SAPE   H7R16574   6.996   2.753   7.020  0.3634 -0.9270 -0.3890
  150SAPE   H7S16575   6.886   2.655   7.120  0.3115 -1.9802 -1.3154
  150SAPE   C2816576   6.835   2.873   7.089 -0.1297 -0.2442  0.4924
  150SAPE   H8R16577   6.812   2.954   7.019  0.9715  0.8991  1.4203
  150SAPE   C2916578   6.806   2.897   7.218  0.9954 -1.1756 -0.1854
  150SAPE   H9R16579   6.767   2.996   7.248  1.5329 -1.3595  1.1847
  150SAPE  C21016580   6.822   2.800   7.336  0.4053  0.0306 -0.5201
  150SAPE  H10R16581   6.917   2.819   7.391  0.7384 -0.8974 -0.7577
  150SAPE  H10S16582   6.827   2.690   7.319 -3.2269 -0.2139 -0.8216
  150SAPE  C21116583   6.695   2.817   7.412  0.2728 -0.4691 -0.3773
  150SAPE  H11R16584   6.613   2.756   7.372  0.7499 -0.1068 -1.9849
  150SAPE  C21216585   6.663   2.884   7.529 -0.7071 -0.8608 -0.1200
  150SAPE  H12R16586   6.560   2.867   7.563 -1.2873  1.2308 -0.6798
  150SAPE  C21316587   6.751   2.966   7.621  0.1655  0.1511 -0.2911
  150SAPE  H13R16588   6.692   3.053   7.655  1.6677  0.5285  1.4927
  150SAPE  H13S16589   6.844   3.000   7.571  2.1035 -1.4071  2.0653
  150SAPE  C21416590   6.813   2.889   7.735 -0.1820  0.3845 -0.3067
  150SAPE  H14R16591   6.897   2.823   7.710  0.8878  1.4786  0.2753
  150SAPE  C21516592   6.773   2.887   7.868  0.7834  1.1896 -0.2785
  150SAPE  H15R16593   6.829   2.815   7.929 -0.3292 -0.3125 -0.9709
  150SAPE  C21616594   6.649   2.956   7.923 -0.1188  0.2591 -0.5734
  150SAPE  H16R16595   6.569   2.947   7.847 -0.9170 -0.1764  0.3076
  150SAPE  H16S16596   6.683   3.060   7.946 -1.1983  0.8382 -1.5090
  150SAPE  C21716597   6.587   2.908   8.063 -0.2526  0.4219 -0.2069
  150SAPE  H17R16598   6.542   2.807   8.056  0.9655 -0.0448 -2.0511
  150SAPE  H17S16599   6.498   2.966   8.097 -1.5326 -1.4467 -0.2209
  150SAPE  C21816600   6.693   2.918   8.177 -0.4061  0.5199 -0.3973
  150SAPE  H18R16601   6.703   3.023   8.209  0.3282  0.4012 -0.2325
  150SAPE  H18S16602   6.791   2.882   8.140 -1.6107 -0.4865 -2.8670
  150SAPE  C21916603   6.655   2.848   8.308  0.8430 -0.0636 -0.3158
  150SAPE  H19R16604   6.625   2.743   8.289  0.6163 -0.4338  1.9200
  150SAPE  H19S16605   6.564   2.900   8.345  2.0357  1.4528  0.6174
  150SAPE  C22016606   6.752   2.864   8.422 -0.8972  0.6270 -0.1645
  150SAPE  H20R16607   6.779   2.971   8.434  2.3482 -0.0297 -0.7303
  150SAPE  H20S16608   6.848   2.813   8.398 -0.1394  0.2824  3.1598
  150SAPE  H20T16609   6.714   2.814   8.513  1.5125  0.6840  0.9398
  150SAPE   C3316610   6.746   3.450   7.106 -0.2324  0.1324  0.6862
  150SAPE   H3X16611   6.816   3.534   7.086  0.7297 -1.1175 -1.6485
  150SAPE   H3Y16612   6.813   3.361   7.094  1.0227  1.1660 -0.2820
  150SAPE   C3416613   6.685   3.442   7.247  0.3537  0.8097 -0.8757
  150SAPE   H4X16614   6.579   3.476   7.244 -0.2254 -1.0000 -2.3563
  150SAPE   H4Y16615   6.729   3.510   7.323 -0.5837 -0.2195  0.6166
  150SAPE   C3516616   6.695   3.296   7.301 -0.0941  0.1546 -0.3215
  150SAPE   H5X16617   6.803   3.274   7.317  0.2299  1.3038 -0.8304
  150SAPE   H5Y16618   6.662   3.236   7.213 -1.4596  0.4110 -0.0046
  150SAPE   C3616619   6.626   3.266   7.436 -0.0955  0.2303  0.8886
  150SAPE   H6X16620   6.653   3.162   7.466 -0.5468  0.7307  3.2113
  150SAPE   H6Y16621   6.516   3.281   7.436 -0.6016 -2.7046  0.3540
  150SAPE   C3716622   6.682   3.356   7.544 -0.5026 -0.5438 -0.1244
  150SAPE   H7X16623   6.680   3.462   7.513  0.1888 -0.7769 -1.0240
  150SAPE   H7Y16624   6.788   3.328   7.561 -0.0882  0.1716 -1.3815
  150SAPE   C3816625   6.594   3.354   7.668  0.4600  0.0550 -0.5327
  150SAPE   H8X16626   6.590   3.251   7.710  1.5479 -0.9597 -2.7484
  150SAPE   H8Y16627   6.491   3.391   7.646  0.3657  0.4124  0.4686
  150SAPE   C3916628   6.647   3.441   7.782 -0.3048 -0.4442  0.6426
  150SAPE   H9X16629   6.650   3.549   7.756 -1.3124 -0.3828  0.7532
  150SAPE   H9Y16630   6.752   3.408   7.801  1.2205  2.1130 -2.3125
  150SAPE  C31016631   6.556   3.454   7.910 -0.5905  0.7996 -0.4571
  150SAPE  H10X16632   6.514   3.352   7.921 -2.1639  1.5303  0.6307
  150SAPE  H10Y16633   6.471   3.521   7.883 -0.5558  0.8153 -0.5287
  150SAPE  C31116634   6.634   3.495   8.039  0.1948  0.0698  0.5580
  150SAPE  H11X16635   6.673   3.599   8.023 -1.5355  0.8297  1.0857
  150SAPE  H11Y16636   6.722   3.431   8.058 -0.1523 -0.2995  0.9089
  150SAPE  C31216637   6.543   3.512   8.166 -0.0351  0.4302 -0.3020
  150SAPE  H12X16638   6.479   3.421   8.167  0.2163  0.1996 -1.9962
  150SAPE  H12Y16639   6.471   3.596   8.151 -0.5808  0.0610  0.2262
  150SAPE  C31316640   6.622   3.538   8.292 -0.5651  0.1649 -0.6561
  150SAPE  H13X16641   6.705   3.602   8.255  0.7038 -0.7749  0.4858
  150SAPE  H13Y16642   6.662   3.439   8.322 -0.4767  0.3300 -0.2318
  150SAPE  C31416643   6.544   3.590   8.414  0.1416  1.0830  0.1372
  150SAPE  H14X16644   6.508   3.690   8.384  0.2015  0.9749 -0.3081
  150SAPE  H14Y16645   6.594   3.594   8.513  0.7047 -1.3323  0.0155
  150SAPE  C31516646   6.418   3.505   8.437 -0.0043 -0.0944 -0.0780
  150SAPE  H15X16647   6.361   3.505   8.342 -1.3269  0.8484  0.6753
  150SAPE  H15Y16648   6.350   3.566   8.500  1.4650  1.8550 -0.2931
  150SAPE  C31616649   6.446   3.362   8.481  0.8227 -0.1824 -0.1968
  150SAPE  H16X16650   6.510   3.305   8.410 -0.1893  1.0215 -2.1816
  150SAPE  H16Y16651   6.344   3.318   8.489  0.2450  1.2330  0.6130
  150SAPE  C31716652   6.500   3.347   8.627 -0.1695 -0.2059  0.0808
  150SAPE  H17X16653   6.447   3.417   8.694 -0.9191 -0.0861 -0.6276
  150SAPE  H17Y16654   6.606   3.381   8.628 -0.8691  2.1387 -0.0171
  150SAPE  C31816655   6.499   3.202   8.664 -0.3698  0.6234 -0.3954
  150SAPE  H18X16656   6.536   3.139   8.580  2.1562  0.7128  0.5416
  150SAPE  H18Y16657   6.402   3.160   8.699  0.4648 -1.7488 -0.7658
  150SAPE  H18Z16658   6.569   3.182   8.748  2.2361 -0.8044 -2.7553
  151SAPE     N16659   0.660   0.176   6.483 -0.2643  0.4763  0.1329
  151SAPE   HN116660   0.737   0.243   6.503  1.1204 -0.2859 -2.2239
  151SAPE   HN216661   0.582   0.240   6.459 -0.1453  0.3793 -0.5386
  151SAPE   HN316662   0.642   0.127   6.573  0.8341 -2.4673 -1.1252
  151SAPE   C1216663   0.701   0.082   6.375  0.4042  0.6082 -0.9731
  151SAPE  H12A16664   0.751   0.136   6.291 -0.4729  0.5496 -1.5463
  151SAPE  H12B16665   0.614   0.030   6.330  0.0571 -0.0681  0.4224
  151SAPE   C1116666   0.795  -0.031   6.432 -0.0261 -1.3400  0.0936
  151SAPE  H11A16667   0.727  -0.080   6.505 -0.0454  0.7129  1.5395
  151SAPE  H11B16668   0.881   0.012   6.489 -0.3185 -1.1214  0.3694
  151SAPE     P16669   0.966  -0.094   6.239  0.2274  0.3094  0.2368
  151SAPE   O1316670   1.014  -0.212   6.183 -0.1058 -0.0834 -0.1131
  151SAPE   O1416671   0.927   0.013   6.145  0.0576  0.5917  0.4855
  151SAPE   O1216672   0.838  -0.126   6.331  0.4149 -0.4796 -0.0545
  151SAPE   O1116673   1.071  -0.028   6.345  0.1854  0.1731 -0.1022
  151SAPE    C116674   1.216  -0.020   6.329  0.8870 -0.3165 -0.5911
  151SAPE    HA16675   1.253  -0.076   6.240  1.4777 -1.0225  0.0887
  151SAPE    HB16676   1.255   0.080   6.297  0.8239  0.3129  1.1982
  151SAPE    C216677   1.296  -0.061   6.456 -0.0877 -0.5302  0.2658
  151SAPE    HS16678   1.356  -0.146   6.418  1.3302 -0.3054  1.8789
  151SAPE   O2116679   1.202  -0.098   6.556 -0.6615 -0.0088 -0.4473
  151SAPE   C2116680   1.227  -0.204   6.623 -0.2839 -0.0590  0.7378
  151SAPE   O2216681   1.323  -0.282   6.600  0.6834  0.1862 -0.4559
  151SAPE   C2216682   1.124  -0.225   6.726 -0.0831  0.1146 -0.2966
  151SAPE   H2R16683   1.163  -0.262   6.823 -2.1745  0.3497  0.6814
  151SAPE   H2S16684   1.090  -0.123   6.752 -1.5599  0.4439 -3.1199
  151SAPE    C316685   1.392   0.059   6.510  0.8879 -0.1982  0.1047
  151SAPE    HX16686   1.337   0.156   6.505 -0.1512 -0.8281 -1.5209
  151SAPE    HY16687   1.481   0.058   6.443  1.0602 -2.4566  0.2788
  151SAPE   O3116688   1.433   0.038   6.649  0.4246 -0.0140  0.2890
  151SAPE   C3116689   1.542  -0.031   6.666 -0.0562 -0.1002 -0.3177
  151SAPE   O3216690   1.599  -0.086   6.575 -0.8002  0.2506 -0.4681
  151SAPE   C3216691   1.560  -0.055   6.818 -0.1242 -0.1781  0.1621
  151SAPE   H2X16692   1.466  -0.033   6.873 -0.9467 -0.2107 -1.1923
  151SAPE   H2Y16693   1.636   0.016   6.858  0.2268  0.5278 -1.6184
  151SAPE   C2316694   1.004  -0.309   6.690  0.3627  0.1599  0.0411
  151SAPE   H3R16695   1.045  -0.405   6.653 -0.2337 -0.6895  1.4836
  151SAPE   H3S16696   0.946  -0.272   6.602  0.4820  0.3453  0.0413
  151SAPE   C2416697   0.903  -0.326   6.812 -0.6885  0.2309  0.4506
  151SAPE   H4R16698   0.858  -0.226   6.826 -0.1075  0.5752 -0.0605
  151SAPE   H4S16699   0.953  -0.349   6.909 -0.7577  1.9944  0.9335
  151SAPE   C2516700   0.790  -0.422   6.791 -0.4753 -0.1891 -0.3419
  151SAPE   H5R16701   0.772  -0.446   6.685  1.1179  1.9077 -1.1582
  151SAPE   C2616702   0.721  -0.480   6.887 -0.4643  0.2744  0.0367
  151SAPE   H6R16703   0.632  -0.539   6.863 -0.0050  0.0012 -1.0244
  151SAPE   C2716704   0.735  -0.467   7.037 -0.5274 -0.2391 -0.6689
  151SAPE   H7R16705   0.839  -0.458   7.073 -0.8719 -2.3460  1.0554
  151SAPE   H7S16706   0.695  -0.562   7.078  0.9019 -0.6735 -0.2489
  151SAPE   C2816707   0.662  -0.347   7.087  0.2817  0.1412  0.1492
  151SAPE   H8R16708   0.584  -0.309   7.020 -0.7034 -0.8270  0.7126
  151SAPE   C2916709   0.686  -0.275   7.204  0.2337 -0.4952  0.0776
  151SAPE   H9R16710   0.637  -0.179   7.221  1.2365  0.6517 -2.8869
  151SAPE  C21016711   0.789  -0.303   7.304  0.3713  0.5236  0.5539
  151SAPE  H10R16712   0.888  -0.277   7.261 -0.3270  2.1639 -0.1244
  151SAPE  H10S16713   0.801  -0.414   7.311 -0.2620  0.4389  0.3097
  151SAPE  C21116714   0.775  -0.220   7.426  0.1291 -0.1294  0.4253
  151SAPE  H11R16715   0.768  -0.111   7.410  2.3039 -0.1206 -0.9705
  151SAPE  C21216716   0.766  -0.271   7.546 -0.7836  0.4219  0.5369
  151SAPE  H12R16717   0.752  -0.204   7.632  0.0406  1.5179 -0.1552
  151SAPE  C21316718   0.770  -0.417   7.586  0.6018 -0.0117  0.2654
  151SAPE  H13R16719   0.873  -0.449   7.610  0.1929  0.5642  3.1819
  151SAPE  H13S16720   0.735  -0.479   7.501  0.2330 -0.7310  0.9243
  151SAPE  C21416721   0.692  -0.451   7.707  0.1545 -0.1275 -0.4107
  151SAPE  H14R16722   0.602  -0.510   7.684  0.9077 -1.0516 -1.0830
  151SAPE  C21516723   0.737  -0.431   7.831 -0.4471 -0.0636 -0.7717
  151SAPE  H15R16724   0.673  -0.458   7.916 -0.2841  0.9675 -0.3080
  151SAPE  C21616725   0.865  -0.368   7.878  0.5390 -0.2322  0.3170
  151SAPE  H16R16726   0.893  -0.305   7.792 -2.0145  0.4781 -0.0722
  151SAPE  H16S16727   0.942  -0.433   7.924  1.4506  2.3848  2.7396
  151SAPE  C21716728   0.832  -0.271   7.993  0.2561  0.2385 -0.5542
  151SAPE  H17R16729   0.739  -0.215   7.971 -1.0575 -2.0879 -1.2122
  151SAPE  H17S16730   0.926  -0.211   7.994  1.0915 -1.0111  1.5135
  151SAPE  C21816731   0.837  -0.327   8.137 -0.4041  0.4143 -0.4223
  151SAPE  H18R16732   0.946  -0.339   8.158 -0.3131  3.1251  1.0516
  151SAPE  H18S16733   0.784  -0.424   8.145  1.9439 -1.2220 -2.9880
  151SAPE  C21916734   0.780  -0.237   8.246  0.3853  0.1232 -0.1925
  151SAPE  H19R16735   0.681  -0.194   8.222 -0.5463 -2.7974 -2.1248
  151SAPE  H19S16736   0.854  -0.156   8.267 -0.1993 -0.0502  2.9340
  151SAPE  C22016737   0.760  -0.312   8.375  0.0866  0.6517 -0.7665
  151SAPE  H20R16738   0.854  -0.362   8.406  0.4761  1.9712  0.2660
  151SAPE  H20S16739   0.738  -0.238   8.455  2.7340 -0.0005  0.6726
  151SAPE  H20T16740   0.670  -0.377   8.367 -1.3070  2.4209 -0.2132
  151SAPE   C3316741   1.598  -0.203   6.845 -0.1963  0.2781 -0.1898
  151SAPE   H3X16742   1.691  -0.236   6.794 -0.0771 -1.6372  1.1836
  151SAPE   H3Y16743   1.525  -0.274   6.801 -2.7343  0.8157  2.8111
  151SAPE   C3416744   1.621  -0.232   6.995 -0.2161  0.9531 -0.9677
  151SAPE   H4X16745   1.721  -0.203   7.033 -0.7270  1.8863 -0.2969
  151SAPE   H4Y16746   1.620  -0.343   7.000 -0.7627  1.0099  2.0910
  151SAPE   C3516747   1.505  -0.196   7.090 -0.4730  0.1735 -0.0541
  151SAPE   H5X16748   1.509  -0.085   7.096 -0.5687  0.1482  0.5007
  151SAPE   H5Y16749   1.536  -0.230   7.191  0.9820 -0.3049 -0.6278
  151SAPE   C3616750   1.360  -0.245   7.052  0.2736  0.4711 -0.6418
  151SAPE   H6X16751   1.350  -0.355   7.042 -1.9638  0.3704  1.6848
  151SAPE   H6Y16752   1.338  -0.202   6.952  0.8736 -1.2606 -1.5741
  151SAPE   C3716753   1.282  -0.182   7.164 -0.0896  0.0791 -0.0125
  151SAPE   H7X16754   1.175  -0.183   7.135  0.6166 -0.4753 -2.8681
  151SAPE   H7Y16755   1.307  -0.075   7.184 -5.2124  1.3995  0.7391
  151SAPE   C3816756   1.287  -0.246   7.298 -0.5118 -0.0676 -0.0632
  151SAPE   H8X16757   1.391  -0.257   7.337  0.1024 -0.5733 -1.7722
  151SAPE   H8Y16758   1.224  -0.337   7.300 -1.3186  0.4830  0.6315
  151SAPE   C3916759   1.209  -0.153   7.398  0.3051 -0.1527 -0.5116
  151SAPE   H9X16760   1.184  -0.219   7.483  0.7113 -1.5112 -1.4227
  151SAPE   H9Y16761   1.115  -0.124   7.345  0.3333 -0.2272 -0.6001
  151SAPE  C31016762   1.298  -0.056   7.468 -0.2963 -0.4369  0.5268
  151SAPE  H10X16763   1.351   0.011   7.397 -0.7591  0.4731  1.0103
  151SAPE  H10Y16764   1.372  -0.113   7.528  1.6358  1.4071  0.0318
  151SAPE  C31116765   1.225   0.039   7.568 -0.5222  0.0156 -0.9017
  151SAPE  H11X16766   1.147   0.095   7.511 -1.6762  0.0797  0.6978
  151SAPE  H11Y16767   1.304   0.108   7.604 -0.4473 -0.0065 -1.0231
  151SAPE  C31216768   1.149  -0.035   7.679 -0.0589  0.3594 -0.2723
  151SAPE  H12X16769   1.067  -0.091   7.630 -0.9237  0.2496  1.2234
  151SAPE  H12Y16770   1.106   0.033   7.756  2.0842 -0.4328  1.7494
  151SAPE  C31316771   1.240  -0.128   7.767 -0.2718  0.1913  0.1068
  151SAPE  H13X16772   1.296  -0.200   7.704 -0.3569 -1.2608  1.6161
  151SAPE  H13Y16773   1.168  -0.180   7.834  0.0878  0.2972  0.5775
  151SAPE  C31416774   1.337  -0.049   7.848 -0.2831 -0.2119 -0.1472
  151SAPE  H14X16775   1.396   0.018   7.783  0.2991 -0.2947  0.2792
  151SAPE  H14Y16776   1.404  -0.127   7.893  1.6515  2.4186  1.8745
  151SAPE  C31516777   1.288   0.027   7.975  0.2664  0.2554 -0.1065
  151SAPE  H15X16778   1.236  -0.040   8.046  1.4342 -1.8629 -1.1632
  151SAPE  H15Y16779   1.216   0.099   7.930  1.3096  0.3897 -1.6489
  151SAPE  C31616780   1.397   0.094   8.053  0.3684 -0.1660 -0.4057
  151SAPE  H16X16781   1.450   0.167   7.989  0.6308 -1.1580 -1.3459
  151SAPE  H16Y16782   1.465   0.017   8.096  0.2559  0.4381  0.8976
  151SAPE  C31716783   1.346   0.185   8.174  0.4916  0.6329  0.1680
  151SAPE  H17X16784   1.264   0.244   8.129  0.4194  0.8479  0.5783
  151SAPE  H17Y16785   1.433   0.253   8.189  2.9856 -2.1295 -0.8419
  151SAPE  C31816786   1.297   0.130   8.303  0.1852 -0.3735 -0.4125
  151SAPE  H18X16787   1.273   0.202   8.385 -0.4106  0.6780 -1.4715
  151SAPE  H18Y16788   1.370   0.057   8.342 -1.6226 -1.6189  0.8526
  151SAPE  H18Z16789   1.206   0.070   8.280  0.5715 -0.8191 -0.7966
  152SAPE     N16790   6.480   1.740   6.058 -0.4293 -0.2605 -0.1466
  152SAPE   HN116791   6.556   1.730   5.987  1.3262  1.0656  1.4483
  152SAPE   HN216792   6.510   1.815   6.123  2.2077 -0.8451 -0.5856
  152SAPE   HN316793   6.469   1.654   6.116  0.8000  0.8799  1.8961
  152SAPE   C1216794   6.349   1.785   5.995  0.8653  0.1915  0.6030
  152SAPE  H12A16795   6.315   1.715   5.915  0.4003  2.5650 -1.4172
  152SAPE  H12B16796   6.354   1.882   5.941  0.0354  0.9572  1.8468
  152SAPE   C1116797   6.240   1.789   6.103  0.7640 -0.7967  0.1032
  152SAPE  H11A16798   6.228   1.687   6.145  2.5287 -0.7248  0.8781
  152SAPE  H11B16799   6.150   1.815   6.043  0.9347 -1.6354 -0.5343
  152SAPE     P16800   6.160   1.972   6.268  0.3014  0.1767 -0.0034
  152SAPE   O1316801   6.149   2.089   6.181  0.0443 -0.0601  0.5745
  152SAPE   O1416802   6.031   1.896   6.294  0.0028  0.2646  0.1350
  152SAPE   O1216803   6.273   1.881   6.211 -0.4528 -0.3556  0.0819
  152SAPE   O1116804   6.219   2.021   6.406  0.3074 -0.3479  0.3100
  152SAPE    C116805   6.332   2.111   6.384 -0.0989 -0.2517  0.2136
  152SAPE    HA16806   6.395   2.077   6.299  1.2077  0.9797  0.6513
  152SAPE    HB16807   6.297   2.215   6.367  1.9601  0.2362 -1.4906
  152SAPE    C216808   6.431   2.123   6.502 -0.8195  0.8229  0.3595
  152SAPE    HS16809   6.529   2.076   6.479  0.1069  3.7776 -2.3816
  152SAPE   O2116810   6.371   2.082   6.627 -0.4554 -0.1348 -0.1453
  152SAPE   C2116811   6.388   1.953   6.649 -0.4884 -0.4638 -0.8449
  152SAPE   O2216812   6.443   1.875   6.577  0.0529 -0.0934 -0.1342
  152SAPE   C2216813   6.323   1.922   6.785 -0.6418 -0.1158  0.2849
  152SAPE   H2R16814   6.215   1.945   6.786 -1.0479 -1.8949  1.3074
  152SAPE   H2S16815   6.341   1.814   6.804 -0.7440 -0.2072 -0.1248
  152SAPE    C316816   6.495   2.267   6.523  0.3483  0.7773 -0.3856
  152SAPE    HX16817   6.415   2.329   6.570 -0.5998 -0.9720  0.3720
  152SAPE    HY16818   6.523   2.316   6.427 -0.9557  1.9345 -0.2126
  152SAPE   O3116819   6.596   2.246   6.622  0.2154 -0.6133 -0.5582
  152SAPE   C3116820   6.609   2.348   6.704  0.1908  0.0478  0.2572
  152SAPE   O3216821   6.563   2.460   6.684 -0.2035 -0.8531  0.4308
  152SAPE   C3216822   6.705   2.313   6.826  1.1511  0.0946 -0.2892
  152SAPE   H2X16823   6.807   2.354   6.807  1.3328 -1.1458 -2.2576
  152SAPE   H2Y16824   6.727   2.204   6.834  1.2824  0.0848 -0.7564
  152SAPE   C2316825   6.380   2.001   6.906 -0.1453 -0.5151 -0.4437
  152SAPE   H3R16826   6.401   2.105   6.872 -1.4115 -0.4208 -0.9790
  152SAPE   H3S16827   6.483   1.962   6.923  1.1146  1.3608 -2.9844
  152SAPE   C2416828   6.299   1.984   7.029 -0.2670 -0.5353  0.2163
  152SAPE   H4R16829   6.208   2.047   7.025  1.1912  1.6863  0.2070
  152SAPE   H4S16830   6.355   2.013   7.120 -1.6495 -1.4346  1.3796
  152SAPE   C2516831   6.251   1.846   7.061  0.2927 -0.7795  0.2822
  152SAPE   H5R16832   6.204   1.790   6.978 -1.8198  0.6168  0.4526
  152SAPE   C2616833   6.259   1.786   7.179 -0.0004 -0.9357 -0.9243
  152SAPE   H6R16834   6.220   1.683   7.180 -0.5855 -0.7167  0.2460
  152SAPE   C2716835   6.312   1.835   7.315 -0.5745 -0.2401  0.1932
  152SAPE   H7R16836   6.353   1.939   7.308  1.6389 -1.0401  0.2992
  152SAPE   H7S16837   6.390   1.758   7.334 -0.0726 -0.2156 -1.5530
  152SAPE   C2816838   6.201   1.834   7.422 -0.2717 -0.0426 -0.3837
  152SAPE   H8R16839   6.112   1.887   7.385 -1.7197 -1.8691  0.3361
  152SAPE   C2916840   6.195   1.794   7.552  0.2338  0.3458 -0.3098
  152SAPE   H9R16841   6.104   1.800   7.614 -0.3694  0.1289 -1.1543
  152SAPE  C21016842   6.306   1.729   7.630 -0.4285 -0.2084 -0.3515
  152SAPE  H10R16843   6.384   1.701   7.556 -1.0077  1.1908 -1.5499
  152SAPE  H10S16844   6.273   1.631   7.671  2.3816 -0.6307  1.1911
  152SAPE  C21116845   6.364   1.825   7.731 -0.3535 -0.2485 -0.4625
  152SAPE  H11R16846   6.390   1.920   7.682  3.7394  0.1642  2.0144
  152SAPE  C21216847   6.392   1.808   7.868 -0.0064  0.0153 -0.4645
  152SAPE  H12R16848   6.419   1.887   7.939  0.5705 -0.6090  0.0226
  152SAPE  C21316849   6.364   1.674   7.935  0.2430 -0.4968  0.0750
  152SAPE  H13R16850   6.445   1.604   7.906  0.6145  0.5512 -1.5234
  152SAPE  H13S16851   6.267   1.630   7.906  0.6797  0.2294 -2.7563
  152SAPE  C21416852   6.360   1.681   8.084 -0.2411  0.2066 -0.1378
  152SAPE  H14R16853   6.324   1.775   8.129 -0.2717 -0.4389  1.2512
  152SAPE  C21516854   6.388   1.580   8.166  0.1847 -0.0498 -0.1415
  152SAPE  H15R16855   6.366   1.578   8.274  0.7127 -1.5632 -0.0318
  152SAPE  C21616856   6.424   1.436   8.131 -0.0044  0.1021  0.3944
  152SAPE  H16R16857   6.525   1.405   8.165 -0.8042 -1.5964  1.3461
  152SAPE  H16S16858   6.425   1.416   8.021  0.9755 -0.5285  0.4951
  152SAPE  C21716859   6.325   1.324   8.180  0.0915 -1.5117 -0.1092
  152SAPE  H17R16860   6.335   1.232   8.118  2.4608 -1.5207  0.1846
  152SAPE  H17S16861   6.220   1.358   8.173 -0.0791 -2.0711 -0.3183
  152SAPE  C21816862   6.362   1.276   8.321  0.1095  0.5730 -0.4557
  152SAPE  H18R16863   6.406   1.363   8.373  1.2075 -0.7017  0.8379
  152SAPE  H18S16864   6.445   1.202   8.311 -0.1416 -0.0571  1.6352
  152SAPE  C21916865   6.240   1.220   8.398 -0.0074 -0.1341 -0.3734
  152SAPE  H19R16866   6.185   1.152   8.329  0.0563 -0.3238 -0.2383
  152SAPE  H19S16867   6.169   1.300   8.430 -1.8392 -2.1182  0.8642
  152SAPE  C22016868   6.285   1.145   8.528 -0.0015 -0.1162 -0.2911
  152SAPE  H20R16869   6.342   1.055   8.497 -1.3369 -1.2424  0.4076
  152SAPE  H20S16870   6.201   1.115   8.595 -0.6630 -2.2768 -1.9704
  152SAPE  H20T16871   6.335   1.219   8.594  1.6861 -1.8272  0.4358
  152SAPE   C3316872   6.632   2.360   6.953  0.3411  0.2100  0.2829
  152SAPE   H3X16873   6.536   2.307   6.974  0.4383  0.3206  1.0302
  152SAPE   H3Y16874   6.609   2.468   6.942  0.5575  0.1945 -0.3325
  152SAPE   C3416875   6.724   2.342   7.073  0.1383 -0.1390  0.4501
  152SAPE   H4X16876   6.818   2.401   7.061 -1.0242  1.6916 -0.1959
  152SAPE   H4Y16877   6.751   2.237   7.098  2.8751  0.9703  2.7098
  152SAPE   C3516878   6.653   2.381   7.201 -0.0413 -0.6242 -0.5530
  152SAPE   H5X16879   6.569   2.312   7.223 -0.3500  0.2683  1.2794
  152SAPE   H5Y16880   6.615   2.485   7.193 -1.6836 -1.3220 -2.7296
  152SAPE   C3616881   6.750   2.383   7.322 -0.1315 -0.2693 -0.5606
  152SAPE   H6X16882   6.815   2.471   7.306 -0.5123  0.5880  2.0430
  152SAPE   H6Y16883   6.816   2.294   7.328  1.9952  1.2053 -1.0691
  152SAPE   C3716884   6.688   2.415   7.459 -0.3310 -0.1043  0.1929
  152SAPE   H7X16885   6.606   2.343   7.480  0.8945 -1.7897 -0.6716
  152SAPE   H7Y16886   6.652   2.520   7.471  0.4910 -0.0263  2.7254
  152SAPE   C3816887   6.779   2.395   7.579  0.6479  0.1361  0.2669
  152SAPE   H8X16888   6.859   2.472   7.580  2.4987 -1.6747 -0.3375
  152SAPE   H8Y16889   6.836   2.300   7.570  0.5809  0.3136 -4.4998
  152SAPE   C3916890   6.714   2.391   7.720  0.3182  0.1266  0.1441
  152SAPE   H9X16891   6.649   2.301   7.729  0.0506  0.1027 -1.6762
  152SAPE   H9Y16892   6.640   2.474   7.721  0.8771  0.6272  0.4494
  152SAPE  C31016893   6.825   2.407   7.825  0.2364  0.0843 -0.3328
  152SAPE  H10X16894   6.885   2.498   7.804  0.7045  0.4162  2.1391
  152SAPE  H10Y16895   6.901   2.327   7.819 -0.3660 -0.5094 -0.2398
  152SAPE  C31116896   6.770   2.417   7.974 -0.2469  0.4209 -0.6009
  152SAPE  H11X16897   6.721   2.317   7.975  1.9407 -0.7086  0.6499
  152SAPE  H11Y16898   6.696   2.500   7.983 -1.1731 -0.5498  1.6498
  152SAPE  C31216899   6.883   2.425   8.077 -0.1293  0.2471  0.4632
  152SAPE  H12X16900   6.949   2.509   8.047  0.3489 -0.4931 -0.6536
  152SAPE  H12Y16901   6.937   2.329   8.063  0.8355  0.8063  0.2004
  152SAPE  C31316902   6.829   2.441   8.220  0.0504 -0.7711  0.8711
  152SAPE  H13X16903   6.751   2.363   8.233  0.0221 -1.1013 -1.0051
  152SAPE  H13Y16904   6.811   2.550   8.237  0.6952  0.0884 -2.8875
  152SAPE  C31416905   6.935   2.385   8.322  0.1532 -0.6223 -0.3910
  152SAPE  H14X16906   7.032   2.439   8.320 -0.7407  1.2819  1.8118
  152SAPE  H14Y16907   6.941   2.276   8.299 -4.1665 -1.3750  1.0332
  152SAPE  C31516908   6.891   2.395   8.469  0.0272  0.2262  1.1284
  152SAPE  H15X16909   6.784   2.374   8.490  0.2033 -0.5606  1.2908
  152SAPE  H15Y16910   6.886   2.505   8.480  1.9484  0.8049 -2.2147
  152SAPE  C31616911   6.998   2.341   8.567 -0.1570 -0.3211  0.2778
  152SAPE  H16X16912   7.100   2.376   8.539 -0.5384  0.6396  0.0448
  152SAPE  H16Y16913   6.993   2.230   8.556 -0.2639 -0.4093  1.1481
  152SAPE  C31716914   6.962   2.378   8.709 -0.3444  0.5798  0.0764
  152SAPE  H17X16915   6.868   2.326   8.737  0.8648 -0.4077  2.5893
  152SAPE  H17Y16916   6.954   2.489   8.707 -0.4272  0.5820  0.4272
  152SAPE  C31816917   7.080   2.358   8.802 -0.0189 -0.5329 -0.1546
  152SAPE  H18X16918   7.079   2.250   8.831  2.9871 -0.7845 -0.6155
  152SAPE  H18Y16919   7.069   2.414   8.897 -2.0715 -2.6173  0.9209
  152SAPE  H18Z16920   7.180   2.374   8.757  0.7080 -1.7176  0.9578
  153SAPE     N16921   2.915   4.021   6.303 -0.0424  0.0764  0.2583
  153SAPE   HN116922   2.817   4.000   6.275  0.5004 -2.1830 -0.2218
  153SAPE   HN216923   2.915   4.093   6.377 -1.4099  0.8576 -0.4719
  153SAPE   HN316924   2.971   4.053   6.221 -1.1380  0.2048 -0.4678
  153SAPE   C1216925   2.969   3.898   6.367 -0.6880  0.3987  0.1107
  153SAPE  H12A16926   3.072   3.932   6.387  0.3365 -2.0222 -0.6399
  153SAPE  H12B16927   2.973   3.812   6.297  2.3076 -0.8503  1.6495
  153SAPE   C1116928   2.903   3.852   6.497 -0.4542  0.2771 -0.0124
  153SAPE  H11A16929   2.792   3.857   6.488 -0.4980 -0.3381  0.1416
  153SAPE  H11B16930   2.923   3.931   6.572  0.3991  1.7265 -1.6929
  153SAPE     P16931   2.898   3.594   6.523  0.0929  0.0978 -0.4412
  153SAPE   O1316932   2.769   3.599   6.452 -1.0832 -0.3686  0.9941
  153SAPE   O1416933   3.002   3.505   6.463  0.3781 -0.4198 -0.1775
  153SAPE   O1216934   2.964   3.736   6.545 -0.1798 -0.1208  0.0397
  153SAPE   O1116935   2.869   3.532   6.664 -0.5452  0.3807  0.4313
  153SAPE    C116936   2.942   3.561   6.775 -0.2958  0.1930 -0.3735
  153SAPE    HA16937   2.989   3.470   6.817 -0.1433 -0.1436 -1.2395
  153SAPE    HB16938   3.023   3.636   6.764  0.3743 -0.3774  0.5509
  153SAPE    C216939   2.853   3.621   6.883 -0.0978  0.3911 -0.1832
  153SAPE    HS16940   2.907   3.619   6.980 -1.6357  0.2088  0.6950
  153SAPE   O2116941   2.732   3.550   6.897  0.1538  0.1205  0.5175
  153SAPE   C2116942   2.733   3.449   6.975  0.5739  0.4706  0.3221
  153SAPE   O2216943   2.832   3.412   7.035 -0.4613  0.2021  0.3045
  153SAPE   C2216944   2.592   3.376   6.977 -1.0113 -0.6836  0.3557
  153SAPE   H2R16945   2.509   3.444   6.948  0.0094 -0.3573 -2.0387
  153SAPE   H2S16946   2.590   3.290   6.907 -1.8556 -0.7775  0.4887
  153SAPE    C316947   2.814   3.770   6.855  0.1469 -0.1144 -0.9137
  153SAPE    HX16948   2.767   3.767   6.754  1.0625  1.6289 -1.4297
  153SAPE    HY16949   2.905   3.832   6.841  0.0527  0.5069  0.8958
  153SAPE   O3116950   2.714   3.812   6.956  0.1905  0.2901 -0.4924
  153SAPE   C3116951   2.770   3.840   7.076  0.2694 -0.1420  0.3536
  153SAPE   O3216952   2.885   3.848   7.106  0.1279  0.1473 -0.1930
  153SAPE   C3216953   2.660   3.852   7.174  0.3036 -0.1479  0.6359
  153SAPE   H2X16954   2.573   3.890   7.116  2.1170  0.3991 -1.9216
  153SAPE   H2Y16955   2.678   3.930   7.251  1.1266 -1.4140  1.7638
  153SAPE   C2316956   2.555   3.319   7.115  0.4878 -0.3871  0.1676
  153SAPE   H3R16957   2.574   3.395   7.194 -2.5696  1.7076 -0.9136
  153SAPE   H3S16958   2.622   3.232   7.129  0.8917  0.1542  1.7354
  153SAPE   C2416959   2.412   3.266   7.122  0.4490 -0.0707  0.7847
  153SAPE   H4R16960   2.339   3.340   7.082 -0.1625 -0.8208  0.5038
  153SAPE   H4S16961   2.376   3.260   7.228 -2.9144 -2.6496 -0.3344
  153SAPE   C2516962   2.399   3.135   7.050  0.4069  0.2156  0.3238
  153SAPE   H5R16963   2.397   3.143   6.940  1.1879 -1.6839  0.1311
  153SAPE   C2616964   2.360   3.016   7.102 -0.2794  0.7101 -0.1752
  153SAPE   H6R16965   2.358   2.921   7.047 -0.5761 -0.4939  1.7994
  153SAPE   C2716966   2.328   2.999   7.251 -0.2949  0.4913 -0.0764
  153SAPE   H7R16967   2.248   2.923   7.266  1.7710 -1.8802 -0.3158
  153SAPE   H7S16968   2.277   3.093   7.280  1.1079  0.9782  0.9048
  153SAPE   C2816969   2.444   2.981   7.340  0.0181  0.7630  0.0803
  153SAPE   H8R16970   2.530   3.045   7.316 -0.4893  1.5557  0.3587
  153SAPE   C2916971   2.437   2.904   7.453  0.2461 -0.4631 -0.6741
  153SAPE   H9R16972   2.526   2.893   7.517 -0.5751  1.3344  0.8518
  153SAPE  C21016973   2.311   2.837   7.506  0.1690  0.0934  0.1532
  153SAPE  H10R16974   2.271   2.769   7.428  2.8514 -2.4484  0.8084
  153SAPE  H10S16975   2.231   2.913   7.515  0.1278  0.0749 -0.0551
  153SAPE  C21116976   2.316   2.762   7.640 -0.7092 -0.5268 -0.2580
  153SAPE  H11R16977   2.413   2.739   7.685 -1.2369 -0.6649  0.8387
  153SAPE  C21216978   2.215   2.696   7.686  0.1211  0.2553 -0.0479
  153SAPE  H12R16979   2.221   2.625   7.769 -3.3954  1.0267  1.0646
  153SAPE  C21316980   2.071   2.708   7.631 -0.8769  0.4322  0.6202
  153SAPE  H13R16981   2.039   2.813   7.614 -2.0455  0.0127  0.1300
  153SAPE  H13S16982   2.009   2.667   7.713  0.8949 -2.1487  0.8019
  153SAPE  C21416983   2.049   2.606   7.520 -0.5319 -0.4317 -0.0477
  153SAPE  H14R16984   2.071   2.502   7.548  0.9479 -0.1637 -0.1297
  153SAPE  C21516985   2.006   2.631   7.396 -0.6981  0.1802  0.5380
  153SAPE  H15R16986   1.995   2.550   7.323  1.1832 -0.0421  0.4671
  153SAPE  C21616987   1.965   2.757   7.329 -1.0940 -0.7496 -0.2901
  153SAPE  H16R16988   2.013   2.843   7.381 -1.0340 -0.4156 -0.8913
  153SAPE  H16S16989   1.856   2.769   7.349 -0.8750  1.0051  0.0508
  153SAPE  C21716990   1.988   2.749   7.174  0.7062  0.0829  0.7268
  153SAPE  H17R16991   2.093   2.747   7.138 -0.3161  2.1486 -2.9394
  153SAPE  H17S16992   1.950   2.842   7.124 -2.1285 -1.1627  0.3384
  153SAPE  C21816993   1.917   2.630   7.100 -0.4972 -0.2094 -0.0659
  153SAPE  H18R16994   1.815   2.632   7.143  0.2946 -2.0064  2.1107
  153SAPE  H18S16995   1.964   2.529   7.105  1.2295  0.4933 -1.2408
  153SAPE  C21916996   1.912   2.675   6.952  0.1685 -0.7631  0.5052
  153SAPE  H19R16997   2.011   2.643   6.913 -0.2771 -0.8998 -0.5433
  153SAPE  H19S16998   1.888   2.782   6.936  0.4973 -0.9230 -1.2694
  153SAPE  C22016999   1.811   2.608   6.865  0.8002 -0.5530  0.1246
  153SAPE  H20R17000   1.710   2.616   6.912  0.0461  1.2765 -1.6531
  153SAPE  H20S17001   1.832   2.499   6.867  0.4523 -0.6286 -0.3437
  153SAPE  H20T17002   1.813   2.645   6.760 -0.4899 -1.4149 -0.2282
  153SAPE   C3317003   2.636   3.720   7.242  0.3689  0.3737  0.6525
  153SAPE   H3X17004   2.646   3.633   7.173  2.2935  0.9800  0.1036
  153SAPE   H3Y17005   2.535   3.729   7.288  0.6136  0.0602  1.2674
  153SAPE   C3417006   2.739   3.713   7.349  0.0372 -0.4830  0.0228
  153SAPE   H4X17007   2.840   3.718   7.302 -0.4730  1.2480 -0.9724
  153SAPE   H4Y17008   2.735   3.612   7.395 -1.7343  0.0756  1.1692
  153SAPE   C3517009   2.727   3.813   7.472  0.0023 -0.5789  0.3908
  153SAPE   H5X17010   2.779   3.909   7.453  0.0676 -0.4617  1.1206
  153SAPE   H5Y17011   2.784   3.765   7.555  0.2567  0.1649  0.6519
  153SAPE   C3617012   2.595   3.851   7.526  0.2500  0.3759  0.6093
  153SAPE   H6X17013   2.533   3.759   7.537 -0.1648  0.5906  0.1178
  153SAPE   H6Y17014   2.538   3.919   7.458 -0.0280 -0.0611  0.3982
  153SAPE   C3717015   2.592   3.917   7.663  0.3514  0.3265 -0.1917
  153SAPE   H7X17016   2.507   3.989   7.670 -0.7224 -0.5690 -2.7357
  153SAPE   H7Y17017   2.676   3.989   7.655 -0.2490  0.9247 -1.2389
  153SAPE   C3817018   2.585   3.817   7.777  0.3932 -0.3147  0.3613
  153SAPE   H8X17019   2.659   3.735   7.772  0.6716 -0.1614  1.5658
  153SAPE   H8Y17020   2.486   3.767   7.772 -0.3434  1.2077 -0.9790
  153SAPE   C3917021   2.612   3.879   7.923 -0.1859 -0.3886 -0.1483
  153SAPE   H9X17022   2.714   3.917   7.941  0.2457 -2.5029  2.5814
  153SAPE   H9Y17023   2.600   3.802   8.003  0.4626  0.2934  0.6197
  153SAPE  C31017024   2.527   4.013   7.949 -0.6287  0.9439 -0.8615
  153SAPE  H10X17025   2.422   4.000   7.917 -1.0174  1.9159 -0.0198
  153SAPE  H10Y17026   2.563   4.101   7.890  3.7691  0.1253  0.2573
  153SAPE  C31117027   2.523   4.053   8.101  0.1016  0.2408  0.0460
  153SAPE  H11X17028   2.621   4.042   8.151  0.0514  0.5911  0.2257
  153SAPE  H11Y17029   2.460   3.986   8.163  2.2488 -2.3263 -0.3919
  153SAPE  C31217030   2.474   4.196   8.111  0.4507  0.3188 -0.3761
  153SAPE  H12X17031   2.372   4.201   8.067  0.8087  0.7939 -1.1758
  153SAPE  H12Y17032   2.535   4.258   8.042  1.4317  1.2145  1.2234
  153SAPE  C31317033   2.488   4.269   8.242 -0.3177  0.5847  0.4509
  153SAPE  H13X17034   2.596   4.258   8.267 -0.1579  0.6044 -0.2079
  153SAPE  H13Y17035   2.430   4.208   8.314 -1.5373 -1.2790 -1.9381
  153SAPE  C31417036   2.460   4.421   8.233 -0.3577 -0.1468 -0.6537
  153SAPE  H14X17037   2.522   4.464   8.151  0.8276  2.6646  1.5445
  153SAPE  H14Y17038   2.473   4.462   8.335 -0.4542  0.4664 -0.8843
  153SAPE  C31517039   2.317   4.457   8.188 -1.2809 -0.2225 -0.0395
  153SAPE  H15X17040   2.311   4.438   8.079 -0.3753 -1.8595  0.1613
  153SAPE  H15Y17041   2.298   4.565   8.204  1.1371  0.6342 -2.1992
  153SAPE  C31617042   2.216   4.371   8.251  0.4421  0.2852 -0.7974
  153SAPE  H16X17043   2.231   4.374   8.361 -2.5958 -0.4434 -0.2559
  153SAPE  H16Y17044   2.217   4.262   8.228  0.0199 -0.2219  1.3534
  153SAPE  C31717045   2.071   4.416   8.203 -0.7602 -0.0764  0.3523
  153SAPE  H17X17046   2.085   4.451   8.099  0.8589 -0.5315  0.3937
  153SAPE  H17Y17047   2.030   4.499   8.265 -0.5666  0.8938 -0.7929
  153SAPE  C31817048   1.972   4.297   8.197 -0.0610  0.4650 -0.0676
  153SAPE  H18X17049   1.943   4.264   8.298 -0.2605 -1.8549 -0.8415
  153SAPE  H18Y17050   2.009   4.214   8.133 -1.3731 -0.1954  0.0041
  153SAPE  H18Z17051   1.882   4.342   8.150 -0.4003 -0.9476 -0.8253
  154SAPE     N17052   6.394   4.518   6.244  0.0993 -0.4916 -0.1100
  154SAPE   HN117053   6.345   4.595   6.193 -0.0869 -1.0996 -0.8640
  154SAPE   HN217054   6.312   4.474   6.290 -0.5869 -0.7610 -1.5334
  154SAPE   HN317055   6.462   4.561   6.311  0.3693 -3.9223  2.0384
  154SAPE   C1217056   6.468   4.438   6.139 -0.1458  0.4437  0.1353
  154SAPE  H12A17057   6.550   4.505   6.107 -0.7689  0.7256 -0.9230
  154SAPE  H12B17058   6.400   4.425   6.052 -0.2676  3.3493 -0.2961
  154SAPE   C1117059   6.509   4.300   6.195  0.2353  0.2252 -0.1564
  154SAPE  H11A17060   6.419   4.262   6.247  1.3069 -2.1398  0.0919
  154SAPE  H11B17061   6.593   4.310   6.267 -0.4509  0.1422  0.6774
  154SAPE     P17062   6.587   4.060   6.130 -0.1684  0.3563 -0.1245
  154SAPE   O1317063   6.461   3.995   6.177 -0.3036  0.8092  0.1263
  154SAPE   O1417064   6.650   4.006   6.005  0.3919 -0.2594  0.1353
  154SAPE   O1217065   6.560   4.213   6.101 -0.3004  0.5030  0.2248
  154SAPE   O1117066   6.698   4.060   6.237 -0.2052 -0.0240 -0.5064
  154SAPE    C117067   6.720   3.955   6.330 -0.9092 -0.1414 -0.1839
  154SAPE    HA17068   6.716   3.853   6.285 -1.8409 -0.1194 -0.1713
  154SAPE    HB17069   6.822   3.976   6.371 -0.9177  0.8913 -0.6621
  154SAPE    C217070   6.634   3.965   6.456  0.1129 -0.0971 -0.7560
  154SAPE    HS17071   6.532   3.933   6.427  0.9073 -2.0671 -1.5322
  154SAPE   O2117072   6.635   4.108   6.496  0.1318 -0.5609 -0.3094
  154SAPE   C2117073   6.542   4.142   6.584 -0.0697  0.6242  0.1029
  154SAPE   O2217074   6.450   4.067   6.622 -0.0447  0.0455  0.1468
  154SAPE   C2217075   6.553   4.284   6.633 -0.1123  0.0600  0.5209
  154SAPE   H2R17076   6.653   4.302   6.678 -0.3028 -0.1581  1.0284
  154SAPE   H2S17077   6.548   4.348   6.542 -0.6175 -0.3661  0.2409
  154SAPE    C317078   6.680   3.856   6.568 -0.4505  0.1150 -0.0542
  154SAPE    HX17079   6.658   3.762   6.512 -1.0012  0.4703 -0.4533
  154SAPE    HY17080   6.617   3.873   6.658 -0.4001 -0.9098  0.1849
  154SAPE   O3117081   6.819   3.877   6.599  0.0906  0.4325  0.2306
  154SAPE   C3117082   6.893   3.763   6.596 -0.3491 -0.4372 -0.5441
  154SAPE   O3217083   6.864   3.661   6.551  0.4256 -0.0667  0.8988
  154SAPE   C3217084   7.010   3.792   6.686  0.3576  0.2659  0.0520
  154SAPE   H2X17085   7.025   3.901   6.694 -1.8806  0.4690  4.5024
  154SAPE   H2Y17086   7.104   3.750   6.642  1.2043  1.2202  0.9179
  154SAPE   C2317087   6.437   4.326   6.724 -0.5212 -0.0571 -0.2974
  154SAPE   H3R17088   6.454   4.283   6.826 -0.4065  2.3594  0.7722
  154SAPE   H3S17089   6.343   4.279   6.688 -0.8929  0.5119 -0.0784
  154SAPE   C2417090   6.411   4.475   6.727 -0.1968  0.0962 -0.8227
  154SAPE   H4R17091   6.425   4.518   6.625 -1.5826  1.5127 -0.4555
  154SAPE   H4S17092   6.488   4.516   6.795 -0.8571 -0.1299  0.0823
  154SAPE   C2517093   6.272   4.504   6.782 -0.5146  0.5310  0.2234
  154SAPE   H5R17094   6.196   4.481   6.706 -0.7142  2.4878 -0.2077
  154SAPE   C2617095   6.239   4.550   6.903 -0.2957  0.0430  0.4715
  154SAPE   H6R17096   6.133   4.560   6.930 -0.1210 -0.0192  1.1911
  154SAPE   C2717097   6.334   4.586   7.011  0.2613 -0.2169  0.4517
  154SAPE   H7R17098   6.276   4.650   7.081  2.3658  3.4280 -0.8487
  154SAPE   H7S17099   6.418   4.653   6.981 -1.0953  0.8845 -1.0892
  154SAPE   C2817100   6.399   4.473   7.089  0.4917 -0.5220  0.8148
  154SAPE   H8R17101   6.474   4.422   7.027 -1.3349  0.4905 -2.4771
  154SAPE   C2917102   6.386   4.442   7.220 -0.8493  0.9068  0.2541
  154SAPE   H9R17103   6.456   4.365   7.258 -0.3569  0.2361 -1.8448
  154SAPE  C21017104   6.309   4.502   7.327 -0.0822 -1.0377  0.7160
  154SAPE  H10R17105   6.321   4.435   7.415  1.4390  0.1177  1.4139
  154SAPE  H10S17106   6.206   4.474   7.296 -0.4417 -2.0149  2.6321
  154SAPE  C21117107   6.326   4.651   7.353  0.6970  0.7071  0.0300
  154SAPE  H11R17108   6.241   4.715   7.327  0.0455  1.0461  2.7289
  154SAPE  C21217109   6.430   4.707   7.409 -0.4957 -0.1605  0.2831
  154SAPE  H12R17110   6.424   4.816   7.421 -0.5702  0.6350 -4.6447
  154SAPE  C21317111   6.564   4.634   7.442 -0.0684  0.1389 -0.4775
  154SAPE  H13R17112   6.643   4.664   7.371  0.5823  0.8242  0.5188
  154SAPE  H13S17113   6.554   4.525   7.424  1.4677 -0.1609  0.3436
  154SAPE  C21417114   6.617   4.656   7.582  0.6696 -0.2795  0.2489
  154SAPE  H14R17115   6.679   4.745   7.600 -0.3792  0.2985  1.1181
  154SAPE  C21517116   6.596   4.584   7.695  0.1266 -0.5703 -0.0403
  154SAPE  H15R17117   6.646   4.618   7.787  0.5264 -2.4527  0.4810
  154SAPE  C21617118   6.499   4.471   7.699 -0.1482 -0.5586 -0.2427
  154SAPE  H16R17119   6.514   4.399   7.616 -0.0896 -1.0516  0.1937
  154SAPE  H16S17120   6.396   4.511   7.703 -0.4596 -1.3471 -0.3439
  154SAPE  C21717121   6.518   4.397   7.831  0.3030  0.5427  0.7910
  154SAPE  H17R17122   6.618   4.351   7.840  0.8361  1.2280 -1.0361
  154SAPE  H17S17123   6.447   4.311   7.829 -0.3466  1.0500 -1.4489
  154SAPE  C21817124   6.473   4.474   7.961 -0.4652  0.0443 -0.4157
  154SAPE  H18R17125   6.365   4.499   7.955 -0.2669  1.0075 -0.1199
  154SAPE  H18S17126   6.531   4.568   7.969  0.9655 -0.5307 -2.7562
  154SAPE  C21917127   6.496   4.409   8.096 -0.5868  0.5504  0.1153
  154SAPE  H19R17128   6.451   4.477   8.172  1.0335  0.1670  1.4594
  154SAPE  H19S17129   6.606   4.412   8.112 -0.4037  0.1507 -0.9453
  154SAPE  C22017130   6.444   4.264   8.114 -0.4591 -0.0236  0.7382
  154SAPE  H20R17131   6.487   4.198   8.036  0.5729  2.3204 -0.7860
  154SAPE  H20S17132   6.333   4.261   8.103 -0.3965  0.9619 -0.2513
  154SAPE  H20T17133   6.471   4.233   8.218 -0.9490  1.1658  1.2340
  154SAPE   C3317134   6.985   3.746   6.836 -0.1580  0.8556  0.7501
  154SAPE   H3X17135   6.965   3.637   6.829 -3.0032  1.3636 -0.2201
  154SAPE   H3Y17136   6.899   3.803   6.875 -0.5830  0.8253 -0.1295
  154SAPE   C3417137   7.110   3.773   6.915 -0.5394 -0.3000 -0.3804
  154SAPE   H4X17138   7.125   3.883   6.919 -2.7134  0.0018  0.5736
  154SAPE   H4Y17139   7.195   3.721   6.865 -0.0516  1.3736 -1.3638
  154SAPE   C3517140   7.101   3.716   7.065  0.7631 -0.1234  0.3281
  154SAPE   H5X17141   7.198   3.753   7.105  0.6559  0.5900 -0.0459
  154SAPE   H5Y17142   7.093   3.607   7.049  2.0519 -0.0153 -1.3337
  154SAPE   C3617143   6.984   3.767   7.157 -0.1781 -0.0792 -0.1584
  154SAPE   H6X17144   6.890   3.740   7.105 -0.3687 -0.9968  0.6447
  154SAPE   H6Y17145   6.978   3.878   7.161 -0.0073 -0.0979  0.9857
  154SAPE   C3717146   6.972   3.704   7.297 -0.4136 -0.5175 -0.6647
  154SAPE   H7X17147   6.973   3.594   7.286 -2.1208 -0.4271 -2.3532
  154SAPE   H7Y17148   6.881   3.733   7.353  0.6519  0.7821  0.4618
  154SAPE   C3817149   7.093   3.753   7.385  0.5587  1.1720  0.2289
  154SAPE   H8X17150   7.105   3.861   7.361  0.7339  0.7665 -1.7144
  154SAPE   H8Y17151   7.186   3.701   7.353  1.1253  1.7660  0.8642
  154SAPE   C3917152   7.067   3.725   7.531  0.3481 -1.1168  0.5251
  154SAPE   H9X17153   6.970   3.766   7.566  0.5152 -1.2525  1.1523
  154SAPE   H9Y17154   7.142   3.788   7.584 -1.0355 -0.4904  1.8244
  154SAPE  C31017155   7.080   3.576   7.582  0.0343  0.5959  0.5741
  154SAPE  H10X17156   7.141   3.522   7.507  0.6257  0.0047  1.4617
  154SAPE  H10Y17157   6.976   3.543   7.603 -0.4644  0.8069 -1.3227
  154SAPE  C31117158   7.157   3.576   7.715  0.0984  0.1819 -1.3123
  154SAPE  H11X17159   7.120   3.649   7.791  0.2777 -0.6009 -0.4526
  154SAPE  H11Y17160   7.260   3.600   7.684  0.2553 -1.2815 -1.9970
  154SAPE  C31217161   7.165   3.438   7.781  0.0802 -0.7669  0.2624
  154SAPE  H12X17162   7.235   3.425   7.866 -0.3819  1.4293  1.0371
  154SAPE  H12Y17163   7.174   3.362   7.700 -2.7362 -0.0384 -0.8166
  154SAPE  C31317164   7.031   3.400   7.846  0.1749 -0.2622  0.0307
  154SAPE  H13X17165   6.958   3.392   7.762  0.7249  0.2255 -0.5043
  154SAPE  H13Y17166   7.001   3.472   7.924  1.4644 -0.5395  0.8124
  154SAPE  C31417167   7.039   3.264   7.926  0.1083 -1.1283 -0.3540
  154SAPE  H14X17168   7.148   3.247   7.936  0.2928  0.0874 -0.2168
  154SAPE  H14Y17169   6.991   3.181   7.870 -2.4815 -0.7690  1.1583
  154SAPE  C31517170   6.984   3.285   8.072  0.0668  0.1654  0.4822
  154SAPE  H15X17171   6.876   3.305   8.051  0.1496 -0.0968 -0.2046
  154SAPE  H15Y17172   7.025   3.377   8.118 -2.0713  0.7126  1.4438
  154SAPE  C31617173   7.010   3.166   8.157  0.3206 -1.0194  0.4090
  154SAPE  H16X17174   7.115   3.136   8.179  0.1362 -1.2199  1.0487
  154SAPE  H16Y17175   6.964   3.081   8.103 -1.5305 -0.3528  0.8713
  154SAPE  C31717176   6.933   3.192   8.294  0.1175  0.4641  0.1816
  154SAPE  H17X17177   6.948   3.095   8.347  3.8052 -0.6363 -2.4942
  154SAPE  H17Y17178   6.825   3.191   8.267 -0.1335 -3.1308  0.7169
  154SAPE  C31817179   6.972   3.317   8.367 -0.1472  0.7755 -0.4156
  154SAPE  H18X17180   6.956   3.412   8.312 -2.5451  0.2191 -0.8045
  154SAPE  H18Y17181   7.075   3.313   8.408 -0.7561  1.8629  1.3179
  154SAPE  H18Z17182   6.907   3.327   8.456  1.0444  0.6387  0.4929
  155SAPE     N17183   5.880   4.414   6.099 -0.7579 -0.0236 -0.0190
  155SAPE   HN117184   5.911   4.487   6.032  0.1743 -1.5128 -1.2720
  155SAPE   HN217185   5.933   4.325   6.088  1.1324  1.2036 -1.4324
  155SAPE   HN317186   5.783   4.400   6.064 -1.4220  1.3132  1.1475
  155SAPE   C1217187   5.866   4.461   6.243 -0.3253  0.1384  0.3130
  155SAPE  H12A17188   5.772   4.518   6.257  0.2586  1.1887  0.1099
  155SAPE  H12B17189   5.957   4.522   6.264  0.4456 -0.3874 -1.3019
  155SAPE   C1117190   5.867   4.343   6.341  0.7349  0.0839  0.2242
  155SAPE  H11A17191   5.773   4.284   6.331 -0.0932  1.3613  0.1269
  155SAPE  H11B17192   5.866   4.376   6.447 -0.1945 -0.9137  0.5385
  155SAPE     P17193   6.120   4.267   6.388 -0.1551 -0.7989 -0.0094
  155SAPE   O1317194   6.190   4.141   6.357 -0.8451 -0.2747 -0.0232
  155SAPE   O1417195   6.183   4.388   6.344 -0.2193 -1.2590  0.0065
  155SAPE   O1217196   5.975   4.263   6.320 -0.0417  0.5459  0.4319
  155SAPE   O1117197   6.081   4.279   6.543  0.2772 -0.3751 -0.0509
  155SAPE    C117198   6.108   4.168   6.629 -0.2184 -0.2149 -0.9919
  155SAPE    HA17199   6.208   4.128   6.599  0.3346  0.3806  0.0247
  155SAPE    HB17200   6.105   4.203   6.734 -1.3332 -1.6363 -0.5227
  155SAPE    C217201   6.005   4.050   6.598 -0.8817 -0.2837  0.0870
  155SAPE    HS17202   6.023   4.020   6.492 -2.3475  1.1382 -0.6017
  155SAPE   O2117203   5.878   4.110   6.603 -0.4840 -0.0443 -0.1940
  155SAPE   C2117204   5.771   4.039   6.564 -0.1369  0.4706  0.3907
  155SAPE   O2217205   5.778   3.931   6.505  0.4654  0.3727 -0.0638
  155SAPE   C2217206   5.654   4.111   6.625 -0.7273  0.4601 -0.0108
  155SAPE   H2R17207   5.675   4.161   6.721 -0.7211  0.7845 -0.1791
  155SAPE   H2S17208   5.631   4.192   6.552  0.9889 -0.1339 -1.2795
  155SAPE    C317209   6.013   3.928   6.687  0.3073 -0.0054  0.1468
  155SAPE    HX17210   6.118   3.894   6.700  0.0564 -0.4142  1.2503
  155SAPE    HY17211   5.961   3.853   6.625  1.8889 -0.2936 -0.8845
  155SAPE   O3117212   5.954   3.938   6.819  0.6964 -0.0221 -0.1089
  155SAPE   C3117213   5.951   3.823   6.882 -0.0681  0.1918  0.8224
  155SAPE   O3217214   6.011   3.721   6.853 -0.3867 -0.1847 -0.1764
  155SAPE   C3217215   5.846   3.827   6.990 -0.3658  0.1044 -0.0059
  155SAPE   H2X17216   5.815   3.725   7.019  0.3613 -0.2187 -0.3343
  155SAPE   H2Y17217   5.755   3.875   6.948 -1.5766 -1.7026  0.4550
  155SAPE   C2317218   5.531   4.016   6.639 -0.2400 -0.2452  0.0452
  155SAPE   H3R17219   5.556   3.925   6.698  3.7091  1.8547  1.9602
  155SAPE   H3S17220   5.475   4.000   6.544 -1.4324  0.4657  0.6025
  155SAPE   C2417221   5.416   4.081   6.735 -0.3616  1.1122  0.1321
  155SAPE   H4R17222   5.409   4.189   6.709  2.5180  1.1125 -1.0091
  155SAPE   H4S17223   5.458   4.073   6.837  0.6584  0.7965 -0.2986
  155SAPE   C2517224   5.284   4.005   6.729  0.3257 -0.4138 -0.1043
  155SAPE   H5R17225   5.288   3.903   6.689 -0.9839 -0.4115 -0.3038
  155SAPE   C2617226   5.164   4.056   6.772 -0.0666 -0.1944 -0.1762
  155SAPE   H6R17227   5.074   3.993   6.768  0.4392 -0.9220 -0.2900
  155SAPE   C2717228   5.136   4.192   6.833 -0.5141  0.0754 -0.0236
  155SAPE   H7R17229   5.062   4.249   6.772 -2.3020  1.0547  2.7980
  155SAPE   H7S17230   5.231   4.248   6.842 -0.3462 -0.1889 -0.1597
  155SAPE   C2817231   5.070   4.184   6.972 -0.1323 -0.2424  0.9086
  155SAPE   H8R17232   4.962   4.162   6.968  0.0863 -1.2016 -2.7043
  155SAPE   C2917233   5.137   4.185   7.087  0.4902 -0.0581 -0.8055
  155SAPE   H9R17234   5.080   4.182   7.181  0.9806  2.4321 -0.3485
  155SAPE  C21017235   5.283   4.196   7.101  0.6174  0.1176 -0.0851
  155SAPE  H10R17236   5.319   4.302   7.103  1.5863 -0.2160  1.3563
  155SAPE  H10S17237   5.336   4.156   7.011  0.0925  2.1332 -1.3739
  155SAPE  C21117238   5.328   4.109   7.215  1.0798  0.0514  0.5321
  155SAPE  H11R17239   5.327   4.000   7.204 -0.0806  0.1342 -0.3426
  155SAPE  C21217240   5.374   4.152   7.332  0.2309 -0.5318 -0.1195
  155SAPE  H12R17241   5.405   4.081   7.410  0.5844  0.4601  0.6680
  155SAPE  C21317242   5.389   4.300   7.371 -0.0319  0.0060 -0.1480
  155SAPE  H13R17243   5.293   4.355   7.374 -0.0269  0.0514 -0.6675
  155SAPE  H13S17244   5.459   4.352   7.301  0.8791 -0.2363  0.5684
  155SAPE  C21417245   5.441   4.317   7.514 -0.2081  0.1962  0.1285
  155SAPE  H14R17246   5.546   4.350   7.518 -0.3482  0.6866 -0.1666
  155SAPE  C21517247   5.384   4.306   7.631  0.7241  0.0155  0.2914
  155SAPE  H15R17248   5.443   4.333   7.720 -0.0636 -0.0689  0.8425
  155SAPE  C21617249   5.237   4.266   7.654  0.1229  0.1162 -0.1558
  155SAPE  H16R17250   5.184   4.210   7.573 -1.4448 -0.7158  1.3684
  155SAPE  H16S17251   5.170   4.353   7.668 -0.3079 -0.4868  1.8528
  155SAPE  C21717252   5.215   4.186   7.785  1.0150 -0.3321  0.2711
  155SAPE  H17R17253   5.259   4.084   7.777 -2.3217 -1.7797 -3.0729
  155SAPE  H17S17254   5.107   4.161   7.791  0.8215  0.3486 -0.2176
  155SAPE  C21817255   5.261   4.259   7.909 -0.3416 -0.4565 -0.1361
  155SAPE  H18R17256   5.217   4.361   7.907 -2.2011 -1.1897  0.5245
  155SAPE  H18S17257   5.370   4.277   7.897 -0.2545 -0.6125  0.3683
  155SAPE  C21917258   5.238   4.188   8.043  0.0942  0.2394 -0.7034
  155SAPE  H19R17259   5.309   4.227   8.119 -0.0408  0.5100 -0.7144
  155SAPE  H19S17260   5.269   4.083   8.024 -1.3589 -0.1107 -1.2671
  155SAPE  C22017261   5.089   4.182   8.085  0.7237  0.0638 -0.3185
  155SAPE  H20R17262   5.021   4.128   8.015 -1.3093  2.5581 -0.4378
  155SAPE  H20S17263   5.039   4.281   8.099  0.9829  0.1619 -0.0794
  155SAPE  H20T17264   5.080   4.125   8.180 -0.3740  1.2344  0.3188
  155SAPE   C3317265   5.880   3.911   7.114  0.3540 -0.3795  0.6747
  155SAPE   H3X17266   5.908   4.018   7.105  2.4469 -0.7775  1.7126
  155SAPE   H3Y17267   5.961   3.861   7.172  0.7319 -1.7288 -0.9508
  155SAPE   C3417268   5.754   3.915   7.202  0.0254  0.4371 -0.4819
  155SAPE   H4X17269   5.696   3.821   7.186  1.4881 -0.2837 -1.8789
  155SAPE   H4Y17270   5.695   4.007   7.186 -0.3341  0.6115  1.6248
  155SAPE   C3517271   5.788   3.908   7.348 -0.2451 -0.5693  0.3786
  155SAPE   H5X17272   5.850   3.995   7.379 -1.1699  0.0961  0.3828
  155SAPE   H5Y17273   5.855   3.819   7.356 -0.2385 -0.4830  1.3648
  155SAPE   C3617274   5.660   3.894   7.426 -0.4220  0.8345  0.3451
  155SAPE   H6X17275   5.620   3.791   7.430 -0.7526  0.9476 -0.0424
  155SAPE   H6Y17276   5.584   3.953   7.371  1.4009  0.4796 -2.7476
  155SAPE   C3717277   5.671   3.920   7.575  0.7739 -0.4745 -0.9435
  155SAPE   H7X17278   5.705   3.831   7.633 -3.6315  0.0339  3.0413
  155SAPE   H7Y17279   5.572   3.944   7.617  1.7852  0.2295  1.1920
  155SAPE   C3817280   5.746   4.050   7.618  0.4237 -0.0759  0.9064
  155SAPE   H8X17281   5.699   4.136   7.566  0.3149  1.1190  2.8545
  155SAPE   H8Y17282   5.848   4.041   7.575  0.9160  2.0312  1.5125
  155SAPE   C3917283   5.765   4.078   7.771  0.5223  0.0824  0.1690
  155SAPE   H9X17284   5.845   4.152   7.793 -1.8534  2.6354  0.8199
  155SAPE   H9Y17285   5.796   3.980   7.811 -1.5422 -1.0957 -0.9386
  155SAPE  C31017286   5.635   4.130   7.840  0.2102 -0.0785  0.1719
  155SAPE  H10X17287   5.550   4.073   7.797 -1.0997  1.0269  1.1866
  155SAPE  H10Y17288   5.614   4.238   7.823 -0.3003 -0.0575  0.8709
  155SAPE  C31117289   5.631   4.115   7.995  0.4267 -0.2525  0.7494
  155SAPE  H11X17290   5.721   4.055   8.021  0.5951 -0.6802 -0.7079
  155SAPE  H11Y17291   5.537   4.059   8.015 -0.7708  0.5886 -2.0122
  155SAPE  C31217292   5.621   4.240   8.078  0.2417 -0.4966  0.0241
  155SAPE  H12X17293   5.530   4.293   8.045  1.0396  1.1870  0.4300
  155SAPE  H12Y17294   5.705   4.308   8.053 -1.2279  1.6208  0.6086
  155SAPE  C31317295   5.603   4.219   8.227  0.2989  0.2225 -0.1579
  155SAPE  H13X17296   5.653   4.127   8.263 -0.3717 -0.5072 -1.0388
  155SAPE  H13Y17297   5.494   4.203   8.243  0.2849  1.0952  0.7214
  155SAPE  C31417298   5.651   4.333   8.318  0.1989 -0.1788 -0.0338
  155SAPE  H14X17299   5.743   4.369   8.268  1.1553 -0.1374  1.6910
  155SAPE  H14Y17300   5.678   4.286   8.414  0.5062 -1.6077 -0.7978
  155SAPE  C31517301   5.550   4.444   8.336 -0.4799 -0.1507  0.3158
  155SAPE  H15X17302   5.464   4.389   8.379 -0.8510  0.3047  0.1638
  155SAPE  H15Y17303   5.507   4.467   8.236 -0.8970 -1.7977  0.0785
  155SAPE  C31617304   5.586   4.554   8.431 -0.1207  0.4130  0.5303
  155SAPE  H16X17305   5.685   4.590   8.396  0.3715 -1.4417 -0.1067
  155SAPE  H16Y17306   5.623   4.509   8.525 -0.1613  0.5882  0.6319
  155SAPE  C31717307   5.488   4.661   8.461 -0.3893  0.4850  0.0741
  155SAPE  H17X17308   5.402   4.609   8.508  0.7067 -0.6214  0.9202
  155SAPE  H17Y17309   5.461   4.706   8.363 -2.0122 -0.6836 -0.0462
  155SAPE  C31817310   5.531   4.780   8.551 -0.0467 -0.0612 -0.0695
  155SAPE  H18X17311   5.616   4.830   8.500  0.6419 -0.0783  1.0223
  155SAPE  H18Y17312   5.565   4.747   8.652 -1.2093 -0.1691  0.3078
  155SAPE  H18Z17313   5.455   4.859   8.568  1.0792  1.0918 -0.2431
  156SAPE     N17314   5.625   3.192   6.370  0.4365  0.5328 -0.3131
  156SAPE   HN117315   5.570   3.113   6.410  0.2251  1.3015  0.9676
  156SAPE   HN217316   5.665   3.156   6.281 -1.7481  0.7978 -1.4750
  156SAPE   HN317317   5.701   3.231   6.429 -0.0992  2.0842 -0.6070
  156SAPE   C1217318   5.537   3.311   6.323 -0.0526 -0.1067  0.2362
  156SAPE  H12A17319   5.598   3.387   6.269  0.9758  0.4755  2.1295
  156SAPE  H12B17320   5.502   3.364   6.414 -0.4124  0.4241 -0.2086
  156SAPE   C1117321   5.409   3.268   6.240  0.0070 -0.3592  0.1547
  156SAPE  H11A17322   5.426   3.252   6.131 -0.4265 -5.1000  0.5882
  156SAPE  H11B17323   5.343   3.356   6.228  1.6690  1.5274  3.3630
  156SAPE     P17324   5.197   3.126   6.295 -0.2814  0.1782 -0.2524
  156SAPE   O1317325   5.151   3.134   6.153  0.1796  0.4510  0.2994
  156SAPE   O1417326   5.177   3.000   6.373 -0.3528 -0.7558 -0.0146
  156SAPE   O1217327   5.348   3.158   6.296 -0.1600  0.3108 -0.4467
  156SAPE   O1117328   5.145   3.248   6.378 -0.3844 -0.4742  0.3647
  156SAPE    C117329   5.223   3.325   6.469 -0.1632  0.1435 -0.5318
  156SAPE    HA17330   5.321   3.279   6.497  0.0148  0.4212 -0.6933
  156SAPE    HB17331   5.260   3.419   6.421  1.1630 -0.9322 -1.7054
  156SAPE    C217332   5.142   3.346   6.604 -0.4919 -0.8428  0.2969
  156SAPE    HS17333   5.055   3.412   6.583 -0.1221 -0.1057  1.0035
  156SAPE   O2117334   5.235   3.389   6.704 -0.4201 -0.0892 -0.2616
  156SAPE   C2117335   5.243   3.525   6.705 -0.6713  0.2926 -0.1120
  156SAPE   O2217336   5.202   3.602   6.619 -0.6102  0.5203  0.5348
  156SAPE   C2217337   5.347   3.564   6.818  0.1929 -0.5291 -0.2896
  156SAPE   H2R17338   5.410   3.477   6.848 -0.2282 -0.7047  0.0912
  156SAPE   H2S17339   5.398   3.651   6.771 -2.4698  1.0346 -0.4826
  156SAPE    C317340   5.066   3.218   6.648 -0.0722  0.3422  0.0561
  156SAPE    HX17341   5.131   3.128   6.657 -0.4256  0.2796  2.7901
  156SAPE    HY17342   4.984   3.208   6.574 -0.1366  3.0911 -0.3604
  156SAPE   O3117343   4.996   3.244   6.774  0.4492 -0.2549  0.5491
  156SAPE   C3117344   5.070   3.217   6.885 -0.0896  0.0692  0.5735
  156SAPE   O3217345   5.171   3.151   6.877 -0.2519  0.0232 -0.0924
  156SAPE   C3217346   5.008   3.262   7.017  0.5168 -0.6456 -0.1683
  156SAPE   H2X17347   4.931   3.188   7.047 -0.5509 -0.7152 -2.8089
  156SAPE   H2Y17348   4.965   3.364   7.021  1.3655 -0.3268  2.1934
  156SAPE   C2317349   5.287   3.634   6.945  1.0688  0.3496 -0.1909
  156SAPE   H3R17350   5.244   3.559   7.016  0.5872  1.0250  0.2433
  156SAPE   H3S17351   5.199   3.689   6.904  0.0658 -0.4203  0.8664
  156SAPE   C2417352   5.374   3.736   7.023  0.1935  0.6824 -0.2689
  156SAPE   H4R17353   5.308   3.808   7.075  1.4384  1.1158  0.7518
  156SAPE   H4S17354   5.440   3.784   6.948  0.7236 -0.7793 -0.7897
  156SAPE   C2517355   5.464   3.663   7.124 -0.0748 -0.5548  0.1237
  156SAPE   H5R17356   5.538   3.605   7.067 -0.2057 -0.1198 -0.5101
  156SAPE   C2617357   5.450   3.647   7.256 -0.0738  0.1332 -0.4001
  156SAPE   H6R17358   5.511   3.584   7.324  1.8277  0.7649 -1.4434
  156SAPE   C2717359   5.340   3.719   7.335 -0.2138 -0.2795  0.3899
  156SAPE   H7R17360   5.254   3.706   7.267  0.7232 -0.0108 -0.8725
  156SAPE   H7S17361   5.366   3.826   7.351 -1.3840  0.1074 -0.1464
  156SAPE   C2817362   5.304   3.660   7.466 -0.3850  0.6646 -0.8188
  156SAPE   H8R17363   5.344   3.562   7.494 -0.3210  1.1058  0.7324
  156SAPE   C2917364   5.251   3.733   7.568 -1.3604 -0.5279 -0.3479
  156SAPE   H9R17365   5.227   3.680   7.662 -0.0786  0.8690  0.8253
  156SAPE  C21017366   5.206   3.878   7.574 -0.8956  0.0243 -0.5892
  156SAPE  H10R17367   5.220   3.922   7.473  0.5864  0.4295 -0.2303
  156SAPE  H10S17368   5.267   3.932   7.650 -0.9240 -0.8462  0.0655
  156SAPE  C21117369   5.063   3.896   7.618 -0.1981  0.1648 -0.1179
  156SAPE  H11R17370   4.995   3.904   7.532  0.2089 -0.2784 -0.4944
  156SAPE  C21217371   5.012   3.891   7.743 -0.8138 -0.2135  0.1912
  156SAPE  H12R17372   4.903   3.900   7.748 -0.8537 -0.5377 -0.0236
  156SAPE  C21317373   5.090   3.866   7.870 -0.3783 -0.5723 -0.1263
  156SAPE  H13R17374   5.076   3.947   7.944  3.9441  0.4634 -0.1628
  156SAPE  H13S17375   5.197   3.857   7.838  0.1754 -1.2776  1.8116
  156SAPE  C21417376   5.048   3.734   7.926 -0.5864 -0.7076 -0.1491
  156SAPE  H14R17377   4.943   3.703   7.916 -0.3815 -1.2949 -0.5081
  156SAPE  C21517378   5.126   3.655   8.004 -0.0160  0.5396  0.3114
  156SAPE  H15R17379   5.082   3.566   8.052  0.4555 -0.1144 -0.4518
  156SAPE  C21617380   5.271   3.689   8.048  1.4745  0.1895  0.8112
  156SAPE  H16R17381   5.290   3.652   8.152 -2.2686  0.5152  1.7691
  156SAPE  H16S17382   5.293   3.796   8.031 -0.1345  0.4669  0.2784
  156SAPE  C21717383   5.369   3.621   7.946  0.3103  0.1389  0.4156
  156SAPE  H17R17384   5.469   3.633   7.994 -0.6421  0.6131  2.3758
  156SAPE  H17S17385   5.381   3.674   7.849  3.5750 -1.4279 -0.1932
  156SAPE  C21817386   5.336   3.466   7.930 -1.0804 -0.8679 -0.9248
  156SAPE  H18R17387   5.264   3.453   7.847 -2.0663  3.3424 -0.9369
  156SAPE  H18S17388   5.290   3.423   8.021 -2.4009  2.4612  0.1321
  156SAPE  C21917389   5.465   3.396   7.890  0.7887 -0.4579 -0.1584
  156SAPE  H19R17390   5.555   3.444   7.934 -0.7161  0.4937  2.0756
  156SAPE  H19S17391   5.468   3.417   7.781  0.0859 -0.8147 -0.2541
  156SAPE  C22017392   5.465   3.249   7.905 -0.7079 -0.1699 -0.5234
  156SAPE  H20R17393   5.410   3.211   7.994  1.5401 -0.7797  0.6817
  156SAPE  H20S17394   5.568   3.208   7.910 -0.4026  0.5153 -1.1787
  156SAPE  H20T17395   5.420   3.199   7.816 -1.9728 -1.0453  0.5553
  156SAPE   C3317396   5.115   3.259   7.128  0.2198 -0.0202 -0.9379
  156SAPE   H3X17397   5.193   3.334   7.102  1.6666 -0.6864  1.2319
  156SAPE   H3Y17398   5.165   3.162   7.145 -0.2198 -0.2099 -0.7108
  156SAPE   C3417399   5.064   3.305   7.269  0.2285 -0.8159 -0.4388
  156SAPE   H4X17400   4.982   3.239   7.304 -0.8319  0.8264  0.2705
  156SAPE   H4Y17401   5.012   3.401   7.247 -1.1451 -0.9948  1.6908
  156SAPE   C3517402   5.174   3.325   7.378 -0.3859 -0.1713 -0.0461
  156SAPE   H5X17403   5.247   3.397   7.335 -2.9081  1.2261 -2.2909
  156SAPE   H5Y17404   5.212   3.221   7.380 -0.1906 -0.1094 -0.4650
  156SAPE   C3617405   5.132   3.379   7.507  0.0214  0.4522 -0.7616
  156SAPE   H6X17406   5.081   3.476   7.490  0.6441  0.8793 -0.2559
  156SAPE   H6Y17407   5.218   3.385   7.578 -0.6302 -2.3188  0.3934
  156SAPE   C3717408   5.035   3.295   7.595 -0.1343 -0.0639  0.3820
  156SAPE   H7X17409   5.061   3.187   7.584  0.0841 -0.0135  0.4065
  156SAPE   H7Y17410   4.929   3.301   7.562 -0.5561  0.6598  1.8033
  156SAPE   C3817411   5.045   3.328   7.746  0.1910 -0.0602 -0.4773
  156SAPE   H8X17412   5.046   3.439   7.746 -1.7906 -0.0048 -0.1418
  156SAPE   H8Y17413   5.140   3.294   7.792 -0.0382  1.2380  1.0220
  156SAPE   C3917414   4.923   3.285   7.825  0.6383  0.3103  0.2257
  156SAPE   H9X17415   4.898   3.184   7.787  0.6605  0.4159 -0.0671
  156SAPE   H9Y17416   4.827   3.341   7.820 -1.5588 -2.9420  1.9151
  156SAPE  C31017417   4.953   3.263   7.971  0.4141 -0.4757 -0.2863
  156SAPE  H10X17418   5.006   3.352   8.010  1.5165 -1.5101  0.6763
  156SAPE  H10Y17419   5.019   3.173   7.975 -0.3420 -1.0333 -0.2505
  156SAPE  C31117420   4.832   3.238   8.058  0.0001 -0.1830 -0.9868
  156SAPE  H11X17421   4.779   3.142   8.036 -1.1916  0.6342 -1.8393
  156SAPE  H11Y17422   4.763   3.325   8.060  1.1298  0.7672  2.3028
  156SAPE  C31217423   4.876   3.231   8.213  0.0716 -0.0767 -0.7036
  156SAPE  H12X17424   4.919   3.327   8.248  2.6490 -1.2351 -0.4940
  156SAPE  H12Y17425   4.961   3.161   8.223 -0.3768 -0.8490 -2.1258
  156SAPE  C31317426   4.771   3.176   8.310 -0.2264  0.3458 -1.2339
  156SAPE  H13X17427   4.764   3.065   8.306  2.4911  0.1192 -1.6310
  156SAPE  H13Y17428   4.675   3.224   8.280 -0.0470  2.3274  1.1047
  156SAPE  C31417429   4.801   3.209   8.455 -0.0222  0.7146  0.6423
  156SAPE  H14X17430   4.781   3.318   8.458 -0.3212  0.7397 -1.2597
  156SAPE  H14Y17431   4.909   3.194   8.475  0.5361  1.7843 -1.3209
  156SAPE  C31517432   4.710   3.137   8.565  0.0250  0.2549  0.3258
  156SAPE  H15X17433   4.722   3.029   8.543  2.9353  0.7136 -0.7721
  156SAPE  H15Y17434   4.606   3.161   8.534  0.7249  3.3876  0.0143
  156SAPE  C31617435   4.722   3.175   8.710 -0.4065 -0.3406  0.9214
  156SAPE  H16X17436   4.722   3.285   8.728  0.0480 -0.4747  1.7833
  156SAPE  H16Y17437   4.824   3.137   8.734  1.1667  1.1315 -2.7483
  156SAPE  C31717438   4.613   3.111   8.798  0.4936 -0.2240 -0.1623
  156SAPE  H17X17439   4.609   3.003   8.773  3.5503 -0.6380  0.8219
  156SAPE  H17Y17440   4.515   3.162   8.784 -0.1273 -0.7388  1.9797
  156SAPE  C31817441   4.650   3.116   8.948 -0.3305  0.4970 -0.0110
  156SAPE  H18X17442   4.559   3.071   8.993 -0.8803  0.3323 -1.2401
  156SAPE  H18Y17443   4.663   3.217   8.993 -0.1384  0.1038  0.8148
  156SAPE  H18Z17444   4.726   3.039   8.970  0.5343  1.1212 -0.7353
  157SAPE     N17445   1.966   6.590   6.180 -0.7696 -0.4671  0.0618
  157SAPE   HN117446   1.880   6.632   6.140  1.1329  1.5655 -2.2023
  157SAPE   HN217447   2.042   6.628   6.120 -0.1206  1.1385  1.8200
  157SAPE   HN317448   1.971   6.486   6.180 -0.9872 -0.5338  2.3149
  157SAPE   C1217449   1.999   6.634   6.318  0.5186  0.4697  0.2711
  157SAPE  H12A17450   2.102   6.603   6.345  0.5000 -0.4394 -0.6723
  157SAPE  H12B17451   1.924   6.583   6.383 -2.2115 -1.0590 -3.6866
  157SAPE   C1117452   1.979   6.789   6.332  0.3118 -0.2497  0.7714
  157SAPE  H11A17453   2.062   6.852   6.292 -0.5574 -2.0016 -4.5861
  157SAPE  H11B17454   1.972   6.820   6.438 -0.1233  0.9153  0.4230
  157SAPE     P17455   1.808   6.968   6.248 -0.1679  0.2536 -0.0040
  157SAPE   O1317456   1.900   7.047   6.165 -0.5864 -0.7100 -1.0237
  157SAPE   O1417457   1.667   6.962   6.204  0.4056  0.6950 -0.4785
  157SAPE   O1217458   1.856   6.821   6.257  0.1883 -0.2528  0.4780
  157SAPE   O1117459   1.825   7.007   6.394  0.4288 -0.7297 -0.3735
  157SAPE    C117460   1.748   7.112   6.447 -0.5338 -0.2806 -0.0967
  157SAPE    HA17461   1.724   7.195   6.378 -3.4705 -1.7034 -0.9467
  157SAPE    HB17462   1.648   7.070   6.471 -1.6330  2.1365 -0.1796
  157SAPE    C217463   1.817   7.162   6.581 -0.5663  0.3414 -0.0965
  157SAPE    HS17464   1.913   7.208   6.548 -0.2801 -0.4399 -0.3810
  157SAPE   O2117465   1.831   7.054   6.672  0.0572 -0.0944  0.4186
  157SAPE   C2117466   1.934   6.972   6.656  0.1583  0.4200 -0.3187
  157SAPE   O2217467   2.037   6.997   6.591  0.0414  0.7128  0.2677
  157SAPE   C2217468   1.898   6.838   6.725 -0.1929  0.5815 -0.6241
  157SAPE   H2R17469   1.872   6.861   6.830  1.3066 -0.8753  0.1049
  157SAPE   H2S17470   1.821   6.775   6.675  1.3626 -0.8434 -1.3377
  157SAPE    C317471   1.729   7.273   6.654  0.3533 -0.1822  0.3668
  157SAPE    HX17472   1.716   7.353   6.577  2.6804 -0.9457 -0.9274
  157SAPE    HY17473   1.781   7.311   6.744  2.0908 -0.5243 -0.4531
  157SAPE   O3117474   1.607   7.213   6.701 -0.0367 -0.4858  0.2110
  157SAPE   C3117475   1.490   7.272   6.669  0.1789 -0.2740 -0.1044
  157SAPE   O3217476   1.481   7.379   6.611 -0.3104  0.1440  1.0703
  157SAPE   C3217477   1.379   7.213   6.756  0.5151  0.1497  0.6202
  157SAPE   H2X17478   1.417   7.154   6.842 -1.6500 -0.7866  1.0127
  157SAPE   H2Y17479   1.329   7.137   6.691 -0.0324  2.7273 -2.2412
  157SAPE   C2317480   2.034   6.755   6.737  0.0947  0.6878  0.4579
  157SAPE   H3R17481   2.105   6.807   6.805 -0.7150  0.9769  1.1066
  157SAPE   H3S17482   2.087   6.730   6.643  4.6038 -0.4437  2.9973
  157SAPE   C2417483   2.008   6.611   6.804 -0.2822  0.1000 -0.1391
  157SAPE   H4R17484   1.967   6.553   6.718  1.9132  0.3088 -1.4093
  157SAPE   H4S17485   1.938   6.617   6.890 -0.3348  3.2391 -0.2846
  157SAPE   C2517486   2.145   6.551   6.836  0.1446  0.1062  0.0294
  157SAPE   H5R17487   2.211   6.530   6.750 -1.2782  0.4240 -1.1752
  157SAPE   C2617488   2.191   6.531   6.960 -0.0934  0.0373 -0.2350
  157SAPE   H6R17489   2.295   6.495   6.970  0.4875  1.7428  0.1108
  157SAPE   C2717490   2.110   6.553   7.090 -0.2884  0.0938 -0.4975
  157SAPE   H7R17491   2.157   6.501   7.176  0.4126 -0.5568 -1.2599
  157SAPE   H7S17492   2.007   6.520   7.066  0.5482 -1.6874 -1.9504
  157SAPE   C2817493   2.108   6.695   7.124 -0.0768 -0.5577  0.5047
  157SAPE   H8R17494   2.152   6.773   7.060 -2.6840  0.1013 -0.6503
  157SAPE   C2917495   2.045   6.748   7.233 -0.0222  0.1752  0.2907
  157SAPE   H9R17496   2.035   6.856   7.250  0.7582  0.3261 -0.1522
  157SAPE  C21017497   1.983   6.660   7.340  0.0057 -0.4065  0.1064
  157SAPE  H10R17498   2.032   6.697   7.432  0.8144  0.4859 -0.6560
  157SAPE  H10S17499   2.019   6.555   7.330  2.8767  0.5352 -0.3265
  157SAPE  C21117500   1.831   6.652   7.363 -0.3054  0.2502 -0.7304
  157SAPE  H11R17501   1.771   6.628   7.274  0.1170  0.2057 -1.0037
  157SAPE  C21217502   1.758   6.673   7.476 -0.7828  0.6353 -0.0669
  157SAPE  H12R17503   1.649   6.673   7.481 -0.8079  2.4099  0.0787
  157SAPE  C21317504   1.815   6.714   7.614 -0.4254  0.9557 -0.5027
  157SAPE  H13R17505   1.924   6.727   7.598  0.0833 -0.9829  0.9440
  157SAPE  H13S17506   1.815   6.623   7.677  0.3659  0.6146 -0.9682
  157SAPE  C21417507   1.767   6.821   7.706  0.2051  0.1385 -0.6611
  157SAPE  H14R17508   1.774   6.800   7.813  0.3180  2.5095 -0.1519
  157SAPE  C21517509   1.723   6.944   7.673 -0.5278  0.0256 -0.2867
  157SAPE  H15R17510   1.674   7.012   7.744 -1.0378  0.1639 -0.7636
  157SAPE  C21617511   1.726   6.991   7.537 -0.3501 -0.5322 -0.4486
  157SAPE  H16R17512   1.802   6.938   7.475 -1.7226 -0.6533 -2.1240
  157SAPE  H16S17513   1.770   7.093   7.533  0.2573 -0.8090 -1.5268
  157SAPE  C21717514   1.596   6.997   7.465  0.5610  0.1807 -0.1091
  157SAPE  H17R17515   1.506   7.044   7.510  1.3739 -0.9866  2.9618
  157SAPE  H17S17516   1.564   6.892   7.447 -0.8949  0.3717  1.1254
  157SAPE  C21817517   1.610   7.060   7.319 -0.1129  0.5895  0.3531
  157SAPE  H18R17518   1.659   7.160   7.326  0.1603  0.7742 -2.9385
  157SAPE  H18S17519   1.512   7.062   7.267 -0.2116 -0.7330  0.4494
  157SAPE  C21917520   1.702   6.988   7.222 -0.2207  0.1314 -0.1861
  157SAPE  H19R17521   1.707   6.877   7.232  0.1841  0.0931 -0.7698
  157SAPE  H19S17522   1.802   7.025   7.252 -1.0077  1.0026  1.5308
  157SAPE  C22017523   1.675   7.026   7.071  0.1480 -0.0503 -0.4746
  157SAPE  H20R17524   1.575   7.005   7.026 -0.9506  2.4831  0.6056
  157SAPE  H20S17525   1.760   6.979   7.016  0.4815  0.4077 -0.3556
  157SAPE  H20T17526   1.682   7.136   7.058  0.5593  0.2593  1.9388
  157SAPE   C3317527   1.273   7.315   6.801  0.0587  0.7559  0.1021
  157SAPE   H3X17528   1.248   7.385   6.719  2.5068  2.1043  0.4094
  157SAPE   H3Y17529   1.313   7.380   6.881 -2.8721  1.1150  1.3876
  157SAPE   C3417530   1.147   7.245   6.857 -0.2944  0.4658  0.8749
  157SAPE   H4X17531   1.103   7.181   6.778  1.4579 -1.0841  1.0835
  157SAPE   H4Y17532   1.067   7.318   6.882 -2.2198 -1.3315  0.2662
  157SAPE   C3517533   1.173   7.161   6.987  0.0451  0.2829 -0.2048
  157SAPE   H5X17534   1.250   7.082   6.978 -2.7903 -2.6736 -0.3127
  157SAPE   H5Y17535   1.081   7.100   7.003  0.1131  0.9086  3.5281
  157SAPE   C3617536   1.194   7.247   7.112 -0.3503 -0.2517  0.0962
  157SAPE   H6X17537   1.116   7.322   7.135 -0.9530 -0.6226 -0.6689
  157SAPE   H6Y17538   1.292   7.299   7.103 -1.5915  2.6707  2.0786
  157SAPE   C3717539   1.199   7.176   7.259  0.0008 -0.3920  1.5799
  157SAPE   H7X17540   1.285   7.105   7.263  0.3811  0.0619  1.4659
  157SAPE   H7Y17541   1.109   7.115   7.281 -0.3935 -0.3290  0.2126
  157SAPE   C3817542   1.238   7.276   7.368  0.2585 -0.0228 -0.5845
  157SAPE   H8X17543   1.157   7.352   7.366  0.7977  0.6132  0.7670
  157SAPE   H8Y17544   1.330   7.333   7.345 -1.0205  1.2543 -2.9869
  157SAPE   C3917545   1.235   7.211   7.508  0.0289  0.7777 -0.0987
  157SAPE   H9X17546   1.317   7.136   7.517 -1.0307 -0.3311  0.4448
  157SAPE   H9Y17547   1.135   7.170   7.532 -1.7857  4.2749 -1.0003
  157SAPE  C31017548   1.249   7.312   7.620 -0.2333 -0.2006 -0.3460
  157SAPE  H10X17549   1.330   7.386   7.599 -0.4048 -0.0040 -0.3123
  157SAPE  H10Y17550   1.285   7.260   7.711 -0.9940  1.0728  0.7114
  157SAPE  C31117551   1.124   7.383   7.659  0.0622 -0.3246  0.5374
  157SAPE  H11X17552   1.065   7.311   7.719 -0.5281 -0.3348 -0.0526
  157SAPE  H11Y17553   1.071   7.403   7.564 -0.7792  0.6126  1.1894
  157SAPE  C31217554   1.147   7.518   7.727  0.2663  0.0568  0.0080
  157SAPE  H12X17555   1.053   7.562   7.766  0.2762  0.9501 -0.9620
  157SAPE  H12Y17556   1.193   7.586   7.653 -1.4123 -0.9959 -2.1366
  157SAPE  C31317557   1.241   7.495   7.847  0.3373  0.0074 -0.2007
  157SAPE  H13X17558   1.270   7.594   7.888  0.1302 -0.8992  2.3221
  157SAPE  H13Y17559   1.337   7.446   7.820  0.5158  0.1090  0.2304
  157SAPE  C31417560   1.179   7.402   7.957  0.3971  0.5797 -0.1021
  157SAPE  H14X17561   1.174   7.304   7.903  2.4871  1.7094 -2.5891
  157SAPE  H14Y17562   1.075   7.432   7.981 -0.7732 -1.9291 -1.5650
  157SAPE  C31517563   1.262   7.399   8.085  0.0969  0.1178 -0.4255
  157SAPE  H15X17564   1.368   7.413   8.056  0.5015 -0.0152  0.9398
  157SAPE  H15Y17565   1.235   7.299   8.127 -4.0383  0.1255 -2.5193
  157SAPE  C31617566   1.211   7.495   8.188 -0.8127  0.0414 -0.3969
  157SAPE  H16X17567   1.102   7.484   8.173 -1.2547 -0.2350  2.4441
  157SAPE  H16Y17568   1.240   7.602   8.179  0.7855 -0.3661 -0.4562
  157SAPE  C31717569   1.261   7.468   8.334  0.2127 -0.6186  0.8770
  157SAPE  H17X17570   1.229   7.370   8.374 -3.1429  1.3573  3.7025
  157SAPE  H17Y17571   1.215   7.538   8.408  0.3885  0.0052  0.4084
  157SAPE  C31817572   1.409   7.489   8.355 -0.2620  0.1867 -0.4076
  157SAPE  H18X17573   1.473   7.437   8.280 -0.6551  0.5568 -1.0153
  157SAPE  H18Y17574   1.441   7.442   8.450 -1.7939 -2.6812 -1.1548
  157SAPE  H18Z17575   1.429   7.598   8.348  1.0571 -0.0461 -0.4442
  158SAPE     N17576   3.880   3.366   6.420  0.1668 -0.1043  0.1624
  158SAPE   HN117577   3.867   3.462   6.381  1.2724  0.5026  1.2041
  158SAPE   HN217578   3.967   3.364   6.476 -1.8652 -0.7797  3.5951
  158SAPE   HN317579   3.898   3.295   6.346  0.9884 -1.7359  1.8690
  158SAPE   C1217580   3.760   3.325   6.497 -0.9201  0.3643 -0.0732
  158SAPE  H12A17581   3.762   3.382   6.593 -2.9901  1.6230 -0.7184
  158SAPE  H12B17582   3.770   3.217   6.521  2.8595  0.8318  1.1515
  158SAPE   C1117583   3.634   3.325   6.408 -0.4041  0.2894 -0.8646
  158SAPE  H11A17584   3.558   3.277   6.473  0.1375 -0.3517 -0.6850
  158SAPE  H11B17585   3.642   3.252   6.324  1.0024 -0.3468 -0.2099
  158SAPE     P17586   3.494   3.553   6.404  0.2410  0.2707 -0.2177
  158SAPE   O1317587   3.571   3.680   6.410  0.0534 -0.1149 -0.2521
  158SAPE   O1417588   3.379   3.556   6.314 -0.0998 -0.3194 -0.2195
  158SAPE   O1217589   3.601   3.451   6.355 -0.3698 -0.5515  0.2899
  158SAPE   O1117590   3.437   3.503   6.545  0.1604 -0.1441  0.0563
  158SAPE    C117591   3.510   3.538   6.666  0.5569  0.3326 -0.5442
  158SAPE    HA17592   3.575   3.453   6.697 -1.9188 -0.6058  2.6622
  158SAPE    HB17593   3.583   3.619   6.648 -0.6450  2.0637  1.8520
  158SAPE    C217594   3.410   3.570   6.779 -0.6684 -0.5794  0.1457
  158SAPE    HS17595   3.465   3.584   6.875  0.5433  0.6813 -0.7038
  158SAPE   O2117596   3.314   3.460   6.789 -0.0432  0.0127  0.8487
  158SAPE   C2117597   3.354   3.358   6.865 -0.8070 -0.2100  0.4664
  158SAPE   O2217598   3.467   3.341   6.905 -0.2265  0.3321  0.0592
  158SAPE   C2217599   3.237   3.276   6.902  0.9203  0.2511  0.0153
  158SAPE   H2R17600   3.172   3.264   6.812 -0.9922  0.9388  1.2356
  158SAPE   H2S17601   3.267   3.172   6.928 -0.7966 -1.0150 -2.6173
  158SAPE    C317602   3.337   3.705   6.755 -0.2370  0.5917 -0.0070
  158SAPE    HX17603   3.267   3.692   6.670  1.3042  2.4049 -1.6283
  158SAPE    HY17604   3.411   3.778   6.716 -2.1258  1.5849 -1.9486
  158SAPE   O3117605   3.262   3.749   6.868 -0.0190  0.0941 -0.3838
  158SAPE   C3117606   3.335   3.807   6.959 -0.2854  0.4204 -0.4154
  158SAPE   O3217607   3.458   3.823   6.949  0.4747 -0.3584 -0.2387
  158SAPE   C3217608   3.252   3.845   7.072  0.2059 -0.3655 -0.0404
  158SAPE   H2X17609   3.144   3.831   7.053  0.5578 -1.6958 -1.1927
  158SAPE   H2Y17610   3.282   3.951   7.084 -2.2099  0.4657 -0.6905
  158SAPE   C2317611   3.135   3.330   7.003 -0.5593 -0.7469 -1.2903
  158SAPE   H3R17612   3.042   3.270   7.006 -0.4409 -0.8982 -0.2749
  158SAPE   H3S17613   3.115   3.437   6.982  0.6893 -0.4059 -0.8399
  158SAPE   C2417614   3.201   3.327   7.146  0.0920  0.5241 -0.4474
  158SAPE   H4R17615   3.296   3.384   7.138 -0.0096  0.4903 -2.2570
  158SAPE   H4S17616   3.237   3.224   7.162  1.6188  1.1062 -0.0210
  158SAPE   C2517617   3.128   3.395   7.263 -0.1391 -0.0195  0.6101
  158SAPE   H5R17618   3.129   3.504   7.254 -0.2649 -0.1795 -2.1798
  158SAPE   C2617619   3.054   3.333   7.360 -0.1056  0.0469  0.6623
  158SAPE   H6R17620   3.001   3.402   7.427 -2.6660 -2.3199  1.2633
  158SAPE   C2717621   3.025   3.184   7.366  0.4624 -1.3195 -0.9041
  158SAPE   H7R17622   3.019   3.152   7.472 -0.1531 -0.2204 -0.5874
  158SAPE   H7S17623   3.110   3.127   7.323  0.3470 -3.4270  1.4735
  158SAPE   C2817624   2.893   3.169   7.287  0.6035  0.3561 -0.2484
  158SAPE   H8R17625   2.875   3.242   7.207 -2.2354 -1.7508 -1.7106
  158SAPE   C2917626   2.806   3.070   7.311  0.0714  0.4156  0.1732
  158SAPE   H9R17627   2.726   3.050   7.238 -0.9509  0.3885  1.2706
  158SAPE  C21017628   2.820   2.954   7.408  0.1026 -0.2182 -0.0235
  158SAPE  H10R17629   2.748   2.981   7.489  0.0944  0.5057 -0.2686
  158SAPE  H10S17630   2.921   2.958   7.455  0.2347  2.4524 -0.3409
  158SAPE  C21117631   2.770   2.835   7.344  0.3217  0.3138 -0.2045
  158SAPE  H11R17632   2.719   2.849   7.247  0.1428 -1.5234 -0.3990
  158SAPE  C21217633   2.775   2.706   7.386 -0.8267 -0.3484  0.0305
  158SAPE  H12R17634   2.723   2.626   7.334  1.0328 -0.2131 -2.1871
  158SAPE  C21317635   2.842   2.665   7.513 -0.6950 -0.1640 -0.2617
  158SAPE  H13R17636   2.887   2.741   7.580  1.1923 -0.4450 -1.1446
  158SAPE  H13S17637   2.938   2.623   7.476 -0.1016  0.9002  0.0388
  158SAPE  C21417638   2.778   2.555   7.589 -0.6852 -0.0642  0.2162
  158SAPE  H14R17639   2.760   2.470   7.522  1.0039 -0.8448  0.7134
  158SAPE  C21517640   2.742   2.555   7.719  1.0101  0.1296  0.3423
  158SAPE  H15R17641   2.694   2.459   7.745  2.1752 -0.2734  1.0752
  158SAPE  C21617642   2.759   2.658   7.826  0.8038 -1.0311  0.4455
  158SAPE  H16R17643   2.690   2.637   7.910 -1.4710 -1.7956 -1.5045
  158SAPE  H16S17644   2.731   2.759   7.791 -2.1104 -1.4552  1.3074
  158SAPE  C21717645   2.908   2.653   7.887  0.2442  0.5947  0.1115
  158SAPE  H17R17646   2.932   2.751   7.934 -1.6108  0.5273  1.3036
  158SAPE  H17S17647   2.973   2.645   7.798 -0.2037 -1.1210 -0.0884
  158SAPE  C21817648   2.935   2.531   7.982 -0.9184  0.0827 -0.1402
  158SAPE  H18R17649   3.043   2.548   8.002 -0.7691  1.3881 -1.8191
  158SAPE  H18S17650   2.920   2.435   7.929  1.2148  0.1553 -1.0056
  158SAPE  C21917651   2.858   2.529   8.121 -0.6169  0.1469  0.0907
  158SAPE  H19R17652   2.753   2.498   8.104 -1.0840  1.6954 -0.0840
  158SAPE  H19S17653   2.870   2.633   8.159  1.1270 -0.0611  0.2103
  158SAPE  C22017654   2.934   2.439   8.225  0.1217 -0.0832 -0.6736
  158SAPE  H20R17655   2.868   2.438   8.315  1.1845 -0.7363  0.1244
  158SAPE  H20S17656   3.021   2.500   8.258 -1.3885  0.8753  1.8312
  158SAPE  H20T17657   2.966   2.340   8.186 -2.5156 -0.4807 -2.0470
  158SAPE   C3317658   3.287   3.757   7.195  0.7339 -0.5216 -0.3248
  158SAPE   H3X17659   3.391   3.777   7.230  1.7883 -2.1420 -2.3240
  158SAPE   H3Y17660   3.290   3.649   7.170  1.7061 -0.4926 -0.3631
  158SAPE   C3417661   3.177   3.779   7.309  0.1219  0.0886  0.0337
  158SAPE   H4X17662   3.084   3.746   7.257  0.0458 -0.9471  0.7819
  158SAPE   H4Y17663   3.157   3.884   7.338  1.7991  0.0685  1.4153
  158SAPE   C3517664   3.198   3.700   7.447 -0.0778 -0.7099 -0.5911
  158SAPE   H5X17665   3.287   3.742   7.498  0.6619 -3.0530  0.1970
  158SAPE   H5Y17666   3.212   3.591   7.431 -0.6902 -0.7791 -0.7064
  158SAPE   C3617667   3.079   3.724   7.538 -0.0669  0.0232  0.6614
  158SAPE   H6X17668   2.992   3.702   7.473  0.0548  0.7108  0.2479
  158SAPE   H6Y17669   3.083   3.832   7.565 -1.3154 -0.1162  1.4380
  158SAPE   C3717670   3.092   3.649   7.671  0.2641  0.8161 -0.8406
  158SAPE   H7X17671   3.118   3.542   7.656  3.9292  1.5273 -0.4162
  158SAPE   H7Y17672   3.179   3.685   7.728 -0.7276  2.4458 -0.3100
  158SAPE   C3817673   2.969   3.655   7.757  0.0326  0.3457 -0.5627
  158SAPE   H8X17674   2.883   3.623   7.694  0.9788 -0.4654 -1.4778
  158SAPE   H8Y17675   2.943   3.753   7.804  0.5956  0.0838  0.3190
  158SAPE   C3917676   2.976   3.563   7.879  0.1906 -0.1955 -0.4667
  158SAPE   H9X17677   3.023   3.465   7.855  0.2611 -0.6065  1.2041
  158SAPE   H9Y17678   2.868   3.550   7.903  0.1933  0.6908  0.0843
  158SAPE  C31017679   3.046   3.621   8.008 -0.9003  0.4870  0.4511
  158SAPE  H10X17680   2.980   3.697   8.054  0.0084  0.9632  1.0032
  158SAPE  H10Y17681   3.134   3.680   7.974  0.3112 -0.7435  1.3229
  158SAPE  C31117682   3.098   3.509   8.088 -0.0700 -0.3514 -0.2177
  158SAPE  H11X17683   3.169   3.542   8.167  0.3531  0.5193 -0.9415
  158SAPE  H11Y17684   3.164   3.440   8.032  0.9854 -0.5502  1.2403
  158SAPE  C31217685   2.994   3.430   8.159 -0.4322  0.2327 -0.4951
  158SAPE  H12X17686   3.050   3.342   8.197  0.4130  0.7739 -0.4697
  158SAPE  H12Y17687   2.902   3.396   8.107 -0.1648  0.3342 -1.0417
  158SAPE  C31317688   2.953   3.509   8.281 -0.4303  0.2847 -0.1651
  158SAPE  H13X17689   2.935   3.616   8.258  1.7076  0.1423 -3.0415
  158SAPE  H13Y17690   3.036   3.530   8.352 -1.4065  1.9227  0.5620
  158SAPE  C31417691   2.843   3.437   8.361  0.0867 -0.1845  0.5309
  158SAPE  H14X17692   2.870   3.472   8.463 -1.3520  1.8456  0.2755
  158SAPE  H14Y17693   2.861   3.327   8.364  0.4429 -0.2043 -1.2481
  158SAPE  C31517694   2.700   3.466   8.326 -0.2685 -1.0125 -0.1891
  158SAPE  H15X17695   2.677   3.572   8.347 -2.9356 -1.5567 -0.0633
  158SAPE  H15Y17696   2.641   3.393   8.385  2.4644 -1.6912  1.9412
  158SAPE  C31617697   2.670   3.453   8.176 -0.4670  0.3839 -0.0238
  158SAPE  H16X17698   2.676   3.348   8.140 -0.2296  0.2193  0.4931
  158SAPE  H16Y17699   2.734   3.523   8.118 -3.3384  2.5612 -0.7900
  158SAPE  C31717700   2.521   3.492   8.142  0.0547 -0.6770 -0.6431
  158SAPE  H17X17701   2.498   3.597   8.169 -2.3618 -0.7682 -2.0252
  158SAPE  H17Y17702   2.463   3.428   8.212  0.5712 -1.8095 -1.2225
  158SAPE  C31817703   2.483   3.469   7.998 -0.5870  0.4587 -0.3320
  158SAPE  H18X17704   2.377   3.484   7.969  0.1674  3.2959 -2.0575
  158SAPE  H18Y17705   2.511   3.362   7.983  0.8226  0.7872 -0.1366
  158SAPE  H18Z17706   2.543   3.524   7.922 -0.3592  0.8121  0.1069
  159SAPE     N17707   2.241   6.351   5.773  0.2192  0.9960  0.4807
  159SAPE   HN117708   2.201   6.427   5.831 -0.5047  0.9683  0.0319
  159SAPE   HN217709   2.327   6.383   5.724  0.6955 -0.7396  0.1169
  159SAPE   HN317710   2.173   6.336   5.696  1.0567  0.5552 -0.1827
  159SAPE   C1217711   2.236   6.219   5.852  0.0490  0.1263  0.0501
  159SAPE  H12A17712   2.274   6.139   5.784  1.6231  1.2304 -0.4224
  159SAPE  H12B17713   2.129   6.199   5.874 -0.2894  1.2903 -0.4818
  159SAPE   C1117714   2.319   6.229   5.988 -0.4568  0.2250 -0.2719
  159SAPE  H11A17715   2.422   6.208   5.949 -0.9650 -0.6069 -1.2192
  159SAPE  H11B17716   2.296   6.163   6.074 -0.2955  0.6941  0.1377
  159SAPE     P17717   2.434   6.450   6.084 -0.1434 -0.0504 -0.0955
  159SAPE   O1317718   2.494   6.508   5.958 -0.2170  0.2537  0.0076
  159SAPE   O1417719   2.392   6.549   6.185 -0.1987  0.0533 -0.3573
  159SAPE   O1217720   2.309   6.354   6.057 -0.4971  0.7651 -0.2190
  159SAPE   O1117721   2.545   6.357   6.156 -0.0644  0.9529  0.1501
  159SAPE    C117722   2.505   6.286   6.269  0.6096  0.4311 -0.8695
  159SAPE    HA17723   2.402   6.311   6.302  1.1398 -0.5142  1.7376
  159SAPE    HB17724   2.497   6.179   6.242 -0.6129 -0.5466  2.7980
  159SAPE    C217725   2.598   6.308   6.399  0.0850 -0.1967 -0.0131
  159SAPE    HS17726   2.688   6.243   6.394  0.0836 -0.2038  0.0609
  159SAPE   O2117727   2.535   6.309   6.529  0.0218  0.0182 -0.6623
  159SAPE   C2117728   2.502   6.179   6.560 -0.0912  0.2353 -0.4628
  159SAPE   O2217729   2.529   6.082   6.491 -0.1045 -0.0611  0.4558
  159SAPE   C2217730   2.436   6.171   6.704 -0.0777 -0.0903  0.1664
  159SAPE   H2R17731   2.382   6.266   6.719 -2.3375 -1.3683  0.5664
  159SAPE   H2S17732   2.354   6.097   6.696  0.9596 -1.5866  2.2655
  159SAPE    C317733   2.666   6.453   6.387 -0.1117 -0.2816 -0.0043
  159SAPE    HX17734   2.599   6.534   6.351 -0.2370  0.5224  1.9648
  159SAPE    HY17735   2.737   6.449   6.302  0.6093 -1.3168  0.6268
  159SAPE   O3117736   2.736   6.490   6.507 -0.4347  0.2146  0.2407
  159SAPE   C3117737   2.668   6.559   6.589 -0.1713 -0.1333  0.2624
  159SAPE   O3217738   2.552   6.598   6.572 -0.3446  0.2901  0.1059
  159SAPE   C3217739   2.759   6.575   6.714  0.3857 -0.0219 -0.7049
  159SAPE   H2X17740   2.840   6.650   6.698 -0.4108  0.6033 -1.9752
  159SAPE   H2Y17741   2.808   6.482   6.748  1.2080  0.5791 -0.1825
  159SAPE   C2317742   2.554   6.150   6.811  0.0985  0.4783  0.4437
  159SAPE   H3R17743   2.650   6.172   6.760  0.3394  0.3671  0.8444
  159SAPE   H3S17744   2.547   6.041   6.830 -2.2008  0.5960  0.5287
  159SAPE   C2417745   2.553   6.247   6.932 -0.3596 -0.4195  0.0176
  159SAPE   H4R17746   2.522   6.347   6.894 -0.7459 -0.3534  0.5047
  159SAPE   H4S17747   2.650   6.261   6.985  0.3712  3.2456 -1.9264
  159SAPE   C2517748   2.437   6.204   7.014  0.4173 -0.0960 -0.7091
  159SAPE   H5R17749   2.367   6.132   6.970  0.7673 -0.3435 -0.8633
  159SAPE   C2617750   2.413   6.230   7.144 -0.0339  0.0227  0.3237
  159SAPE   H6R17751   2.327   6.178   7.188 -0.4200  0.5183  0.1578
  159SAPE   C2717752   2.500   6.314   7.236  0.1989 -1.0262  0.8270
  159SAPE   H7R17753   2.588   6.353   7.181 -0.7755  2.1925  1.2866
  159SAPE   H7S17754   2.543   6.258   7.321  4.2275 -1.2475 -1.1559
  159SAPE   C2817755   2.412   6.430   7.286  0.1852  0.8803 -0.4419
  159SAPE   H8R17756   2.379   6.498   7.206 -1.0689 -1.0531 -1.6561
  159SAPE   C2917757   2.372   6.457   7.412  0.7230  0.2170 -0.0443
  159SAPE   H9R17758   2.298   6.533   7.441 -0.1463 -1.1127  1.3342
  159SAPE  C21017759   2.409   6.376   7.529 -0.1238 -0.4552 -0.5147
  159SAPE  H10R17760   2.412   6.268   7.505  0.0292 -0.7177  0.6570
  159SAPE  H10S17761   2.332   6.382   7.608  0.7650 -1.3228  0.4514
  159SAPE  C21117762   2.551   6.410   7.584 -0.2164  0.3518 -0.2714
  159SAPE  H11R17763   2.615   6.455   7.508 -2.3439  0.3693 -2.1862
  159SAPE  C21217764   2.585   6.407   7.712  0.3877  0.4211 -1.0832
  159SAPE  H12R17765   2.684   6.435   7.750 -0.3636 -0.6222  1.9540
  159SAPE  C21317766   2.491   6.348   7.818 -0.0946  0.2569  0.0845
  159SAPE  H13R17767   2.463   6.242   7.805 -2.9216  1.0851 -1.4593
  159SAPE  H13S17768   2.393   6.400   7.808 -0.7342 -1.0210 -0.3981
  159SAPE  C21417769   2.548   6.366   7.959 -0.5885 -0.1214 -0.1700
  159SAPE  H14R17770   2.604   6.457   7.983  1.8521 -1.9291  1.4340
  159SAPE  C21517771   2.537   6.281   8.064  0.7153 -0.2095 -0.2488
  159SAPE  H15R17772   2.581   6.307   8.161  1.9416 -1.4365 -0.4496
  159SAPE  C21617773   2.462   6.154   8.068 -0.4647 -1.0114 -0.3917
  159SAPE  H16R17774   2.520   6.074   8.016  2.2487 -0.4333  1.5049
  159SAPE  H16S17775   2.369   6.165   8.008  0.2987  1.6207 -1.2421
  159SAPE  C21717776   2.445   6.120   8.220  0.2088 -0.0147  0.2333
  159SAPE  H17R17777   2.356   6.055   8.238 -0.1440  0.1530 -0.8328
  159SAPE  H17S17778   2.430   6.213   8.279  3.9409  1.9791 -1.6432
  159SAPE  C21817779   2.569   6.061   8.274  0.1412  0.2990  0.6058
  159SAPE  H18R17780   2.661   6.120   8.257  0.1865  0.0613  0.0102
  159SAPE  H18S17781   2.604   5.964   8.232  1.3753 -0.2885  2.8679
  159SAPE  C21917782   2.554   6.033   8.423 -0.2509  0.3393  0.0816
  159SAPE  H19R17783   2.491   5.942   8.435  3.0760 -2.5428 -2.1011
  159SAPE  H19S17784   2.515   6.122   8.476  1.7064  1.3671 -0.1563
  159SAPE  C22017785   2.687   6.002   8.492 -0.2427  0.7992  0.1552
  159SAPE  H20R17786   2.764   6.072   8.455  1.0704 -0.6037  0.1446
  159SAPE  H20S17787   2.714   5.896   8.471 -0.9935  0.2248  1.8869
  159SAPE  H20T17788   2.680   6.021   8.601  1.6742  0.7365  0.3205
  159SAPE   C3317789   2.680   6.616   6.841  0.3149  1.0520 -0.0596
  159SAPE   H3X17790   2.747   6.602   6.928  1.4461  0.1277 -1.0373
  159SAPE   H3Y17791   2.585   6.558   6.851  0.0205  1.1278 -2.0066
  159SAPE   C3417792   2.629   6.764   6.828  0.6922 -0.0233 -0.0653
  159SAPE   H4X17793   2.585   6.788   6.729  1.0718  0.1608 -0.1933
  159SAPE   H4Y17794   2.714   6.833   6.849 -0.0521  0.2264  2.5525
  159SAPE   C3517795   2.535   6.814   6.939 -0.4651 -0.0951  0.2666
  159SAPE   H5X17796   2.454   6.738   6.950  1.4507 -2.1815  0.6505
  159SAPE   H5Y17797   2.489   6.909   6.905  0.0789 -0.6524 -2.2077
  159SAPE   C3617798   2.591   6.828   7.084 -0.5087  0.2956 -0.0926
  159SAPE   H6X17799   2.664   6.912   7.086  0.5679 -0.5976 -0.7384
  159SAPE   H6Y17800   2.649   6.738   7.112  1.6300  1.7122  0.2515
  159SAPE   C3717801   2.484   6.875   7.190 -1.1893  0.6896 -0.1303
  159SAPE   H7X17802   2.413   6.789   7.189  0.0524 -0.3810 -1.7254
  159SAPE   H7Y17803   2.426   6.959   7.145 -4.0577 -0.4625  1.1435
  159SAPE   C3817804   2.541   6.913   7.326  0.2580 -0.8656  0.7824
  159SAPE   H8X17805   2.642   6.959   7.321 -0.4897  0.7224 -0.7993
  159SAPE   H8Y17806   2.550   6.813   7.373 -0.5824 -0.7897  1.1223
  159SAPE   C3917807   2.449   7.009   7.410  0.0037  0.1977  0.5047
  159SAPE   H9X17808   2.418   7.100   7.354  0.1076 -0.2882 -0.3700
  159SAPE   H9Y17809   2.510   7.055   7.490  0.6740  1.4505 -0.6670
  159SAPE  C31017810   2.317   6.947   7.472  0.0243 -0.5227 -0.0451
  159SAPE  H10X17811   2.263   6.893   7.391 -1.2979 -0.2320  0.6175
  159SAPE  H10Y17812   2.250   7.019   7.523 -1.9512 -0.9712 -1.8820
  159SAPE  C31117813   2.353   6.844   7.581 -0.2417 -0.3083 -0.2189
  159SAPE  H11X17814   2.432   6.880   7.651 -0.2309  0.3667 -0.5762
  159SAPE  H11Y17815   2.399   6.756   7.531  1.7371  0.0005  0.9546
  159SAPE  C31217816   2.230   6.791   7.654  0.2050  0.0323  0.5308
  159SAPE  H12X17817   2.168   6.746   7.574 -1.7482 -2.6600  3.3076
  159SAPE  H12Y17818   2.178   6.878   7.701  0.2249  0.6101 -0.4871
  159SAPE  C31317819   2.252   6.680   7.758 -0.2958 -0.2367 -0.0846
  159SAPE  H13X17820   2.307   6.595   7.711 -0.1294 -0.2969  0.2210
  159SAPE  H13Y17821   2.150   6.647   7.788 -0.4421  1.7448  1.8412
  159SAPE  C31417822   2.319   6.738   7.886  0.7199  0.4364 -0.2113
  159SAPE  H14X17823   2.428   6.746   7.865  0.5739 -0.4296 -1.3989
  159SAPE  H14Y17824   2.312   6.658   7.962 -4.4408  1.3522  0.6061
  159SAPE  C31517825   2.256   6.857   7.958  0.3010  0.2900 -0.2504
  159SAPE  H15X17826   2.261   6.945   7.891  1.0256  1.0683  0.7993
  159SAPE  H15Y17827   2.315   6.879   8.050  2.7012 -1.1494 -1.3291
  159SAPE  C31617828   2.113   6.826   8.001  0.4815  0.6840 -0.9090
  159SAPE  H16X17829   2.116   6.744   8.076 -1.8368  1.5814  0.2596
  159SAPE  H16Y17830   2.051   6.791   7.916 -0.2476  1.0398 -0.5344
  159SAPE  C31717831   2.033   6.941   8.061  0.0076 -0.5311 -0.5030
  159SAPE  H17X17832   2.047   7.033   8.000  2.3418  1.2360  2.4257
  159SAPE  H17Y17833   2.086   6.959   8.156 -2.3937  0.5715  0.7100
  159SAPE  C31817834   1.886   6.909   8.091 -1.0452 -0.4988 -0.5611
  159SAPE  H18X17835   1.833   7.005   8.104 -2.0199 -0.8511 -1.7132
  159SAPE  H18Y17836   1.882   6.851   8.186 -1.2643 -0.1426 -0.3518
  159SAPE  H18Z17837   1.832   6.857   8.009 -0.9328 -1.2940 -0.1487
  160SAPE     N17838   4.444   5.011   6.508 -0.1960 -0.0927  0.2035
  160SAPE   HN117839   4.458   5.113   6.494  0.6987 -0.4339 -1.6726
  160SAPE   HN217840   4.535   4.962   6.518 -0.7079 -0.9361  0.9130
  160SAPE   HN317841   4.403   4.972   6.421 -0.2055  1.6831 -0.6277
  160SAPE   C1217842   4.366   4.986   6.635 -0.8774 -0.0999  0.0423
  160SAPE  H12A17843   4.425   5.019   6.723 -1.4277  1.9942 -0.3028
  160SAPE  H12B17844   4.354   4.876   6.639 -0.8423 -0.1089 -0.0877
  160SAPE   C1117845   4.234   5.063   6.631 -0.4766  0.2073 -0.8537
  160SAPE  H11A17846   4.249   5.171   6.610  2.1157  0.2650  0.9591
  160SAPE  H11B17847   4.193   5.059   6.734  0.0296  2.0452 -0.5483
  160SAPE     P17848   4.003   5.056   6.507 -0.2510 -0.2793 -0.3888
  160SAPE   O1317849   4.026   5.194   6.466  0.3236  0.5161 -0.0081
  160SAPE   O1417850   3.940   4.963   6.411 -0.6396 -0.1575  0.3187
  160SAPE   O1217851   4.147   5.001   6.534  0.0359  0.2138 -0.3666
  160SAPE   O1117852   3.940   5.038   6.655 -0.2121 -0.2346 -0.2742
  160SAPE    C117853   3.879   4.912   6.704 -0.0585  0.0000  0.3282
  160SAPE    HA17854   3.789   4.882   6.647  0.2146  2.2970 -1.4750
  160SAPE    HB17855   3.953   4.831   6.685 -0.0956 -0.2062  1.0508
  160SAPE    C217856   3.846   4.915   6.857  0.1657  0.6506  0.4128
  160SAPE    HS17857   3.810   4.818   6.897 -2.3965  1.6772  0.7781
  160SAPE   O2117858   3.755   5.022   6.888  0.1584  0.2092  0.0073
  160SAPE   C2117859   3.628   4.978   6.860 -0.1673 -0.5436  0.4983
  160SAPE   O2217860   3.602   4.873   6.807  0.3942  0.3583  0.2383
  160SAPE   C2217861   3.524   5.086   6.903 -0.0185 -0.1339  0.0274
  160SAPE   H2R17862   3.563   5.189   6.890  2.8076 -1.1984 -0.6490
  160SAPE   H2S17863   3.427   5.074   6.851 -0.8009 -1.1503  1.6415
  160SAPE    C317864   3.976   4.935   6.932 -0.1688  0.7884 -0.2447
  160SAPE    HX17865   4.013   5.037   6.906  1.1369  0.9060  1.8417
  160SAPE    HY17866   4.045   4.862   6.885 -2.0963 -0.1102 -1.8742
  160SAPE   O3117867   3.950   4.926   7.071  0.4082  0.3963 -0.8746
  160SAPE   C3117868   4.058   4.943   7.152 -0.1074  0.2707  0.4159
  160SAPE   O3217869   4.178   4.957   7.125  1.0084 -0.4707 -0.4461
  160SAPE   C3217870   4.010   4.930   7.298  0.4327 -0.1780 -0.3927
  160SAPE   H2X17871   3.955   4.836   7.319  0.2520  0.3131  1.5276
  160SAPE   H2Y17872   3.929   5.004   7.311 -0.4077 -1.3465  1.4797
  160SAPE   C2317873   3.492   5.076   7.052 -0.2942 -0.4790 -0.3758
  160SAPE   H3R17874   3.582   5.070   7.116 -0.2425 -1.8633 -0.5534
  160SAPE   H3S17875   3.452   4.973   7.067 -0.2386 -0.6161 -1.1361
  160SAPE   C2417876   3.390   5.180   7.104  0.2150 -0.3981 -0.1172
  160SAPE   H4R17877   3.358   5.139   7.202 -1.4327 -0.9862 -0.8612
  160SAPE   H4S17878   3.298   5.201   7.044 -2.0625 -2.0879  2.5732
  160SAPE   C2517879   3.469   5.307   7.126  0.1230 -0.3952  0.4416
  160SAPE   H5R17880   3.518   5.346   7.035  2.6347  3.1253  3.0390
  160SAPE   C2617881   3.497   5.366   7.249 -0.2454  0.1272 -0.2555
  160SAPE   H6R17882   3.567   5.451   7.256 -1.6227  1.4683 -1.7840
  160SAPE   C2717883   3.446   5.318   7.383  0.9548 -0.5708  0.2352
  160SAPE   H7R17884   3.335   5.311   7.383  0.8689 -0.6512 -2.5949
  160SAPE   H7S17885   3.471   5.395   7.459 -2.3942  0.4552  0.4826
  160SAPE   C2817886   3.496   5.186   7.432  0.7693 -0.3155 -0.3368
  160SAPE   H8R17887   3.562   5.134   7.361  1.9974  1.3825 -0.5083
  160SAPE   C2917888   3.466   5.139   7.552  0.5330  0.7145  0.3749
  160SAPE   H9R17889   3.492   5.034   7.576  1.5435  0.6888 -0.7729
  160SAPE  C21017890   3.369   5.206   7.643 -0.3455  0.3538 -0.9590
  160SAPE  H10R17891   3.302   5.132   7.691 -0.8832  0.4305 -1.5761
  160SAPE  H10S17892   3.289   5.253   7.583 -2.1384 -1.6887 -0.2968
  160SAPE  C21117893   3.434   5.295   7.743 -0.5046 -0.1032 -0.2860
  160SAPE  H11R17894   3.447   5.397   7.703 -0.2296 -0.0959 -0.1800
  160SAPE  C21217895   3.486   5.274   7.868  0.4290  0.2474  0.0983
  160SAPE  H12R17896   3.516   5.363   7.924  0.1302 -1.4613  3.2040
  160SAPE  C21317897   3.486   5.140   7.942  0.3947 -0.2351 -0.2375
  160SAPE  H13R17898   3.388   5.089   7.945  0.0795  0.3903  0.4625
  160SAPE  H13S17899   3.510   5.163   8.048 -2.6579 -2.7090  1.1379
  160SAPE  C21417900   3.588   5.050   7.883 -0.3263 -0.5605 -0.0288
  160SAPE  H14R17901   3.667   5.118   7.847 -1.8101  1.5543  0.5393
  160SAPE  C21517902   3.592   4.914   7.863 -0.5305  0.4016 -0.1910
  160SAPE  H15R17903   3.672   4.860   7.810 -1.2936  1.3550 -2.4527
  160SAPE  C21617904   3.479   4.828   7.910 -0.6782  0.0515 -0.7781
  160SAPE  H16R17905   3.423   4.869   7.997 -1.6298 -1.5008 -0.6097
  160SAPE  H16S17906   3.532   4.736   7.946  2.2150  1.4677 -1.1134
  160SAPE  C21717907   3.382   4.785   7.799  0.2844 -0.1729 -0.9756
  160SAPE  H17R17908   3.326   4.873   7.763  0.1985  0.0115 -0.4022
  160SAPE  H17S17909   3.309   4.715   7.845 -1.0105  1.6496 -0.1867
  160SAPE  C21817910   3.446   4.722   7.677 -0.6284  0.2224  0.0044
  160SAPE  H18R17911   3.477   4.624   7.718 -0.2347  1.0322  1.7270
  160SAPE  H18S17912   3.537   4.770   7.634 -1.5954  0.9335 -1.3391
  160SAPE  C21917913   3.357   4.692   7.555  0.5292  0.0445 -0.7182
  160SAPE  H19R17914   3.257   4.651   7.580  0.4116  0.3589 -0.6754
  160SAPE  H19S17915   3.409   4.616   7.493  0.5547 -0.5847  0.0585
  160SAPE  C22017916   3.341   4.811   7.467  0.0680 -0.3011  0.1555
  160SAPE  H20R17917   3.283   4.769   7.382  1.0647 -2.4062  0.4512
  160SAPE  H20S17918   3.437   4.844   7.421  0.3249 -1.8222 -0.4869
  160SAPE  H20T17919   3.281   4.891   7.514 -0.2030  0.7392 -1.8625
  160SAPE   C3317920   4.129   4.955   7.397 -0.2431  0.4850 -0.5370
  160SAPE   H3X17921   4.179   5.052   7.376  0.5734  0.4127  0.9373
  160SAPE   H3Y17922   4.204   4.875   7.380 -1.2282 -0.5465 -0.1631
  160SAPE   C3417923   4.081   4.938   7.544  0.3117 -0.3244  0.5747
  160SAPE   H4X17924   4.073   4.828   7.554  0.8246 -0.4457 -0.1962
  160SAPE   H4Y17925   3.989   4.999   7.559  0.6575  0.6729 -1.0485
  160SAPE   C3517926   4.198   4.977   7.631 -0.1055 -0.6348 -0.1527
  160SAPE   H5X17927   4.214   5.087   7.628 -0.1947 -0.6499 -1.6322
  160SAPE   H5Y17928   4.294   4.932   7.596  1.9161  2.7360  0.5436
  160SAPE   C3617929   4.178   4.939   7.782 -0.1116  0.5974  0.3894
  160SAPE   H6X17930   4.262   4.992   7.832  0.1626  1.2444 -0.7226
  160SAPE   H6Y17931   4.199   4.830   7.789 -1.0338  0.4256  0.5778
  160SAPE   C3717932   4.044   4.982   7.839  0.4781 -0.1150  0.6900
  160SAPE   H7X17933   3.963   4.915   7.802  1.2588 -0.3209 -0.7258
  160SAPE   H7Y17934   4.021   5.080   7.793 -0.1628 -0.9948 -0.9324
  160SAPE   C3817935   4.037   4.993   7.992  0.2197 -0.1219 -0.2314
  160SAPE   H8X17936   3.956   5.058   8.031  0.8487  1.1737 -0.9997
  160SAPE   H8Y17937   4.136   5.037   8.018 -1.3041  2.4928  1.7098
  160SAPE   C3917938   4.023   4.856   8.063  0.1406  0.2608  0.0434
  160SAPE   H9X17939   4.114   4.798   8.036 -1.0075 -2.0773  0.8733
  160SAPE   H9Y17940   3.924   4.818   8.029 -1.6932  1.4443  3.5238
  160SAPE  C31017941   4.028   4.874   8.218 -0.3053  0.5240 -0.2914
  160SAPE  H10X17942   4.133   4.888   8.252 -0.2501  0.8549 -0.5835
  160SAPE  H10Y17943   3.990   4.778   8.259  1.1564 -0.0288 -0.1477
  160SAPE  C31117944   3.936   4.978   8.281 -0.1670 -0.3167 -0.6366
  160SAPE  H11X17945   3.973   5.082   8.266  1.3559 -0.3059  2.4411
  160SAPE  H11Y17946   3.946   4.968   8.391 -1.9797  0.2541 -0.3898
  160SAPE  C31217947   3.791   4.967   8.253 -0.7059  0.1770  0.2624
  160SAPE  H12X17948   3.757   4.866   8.284 -0.0881 -0.2002 -0.2661
  160SAPE  H12Y17949   3.776   4.976   8.144  0.3785 -2.0001 -0.0988
  160SAPE  C31317950   3.712   5.066   8.342  0.3815 -0.4864  0.4741
  160SAPE  H13X17951   3.716   5.165   8.292 -0.4838 -0.6288  0.0964
  160SAPE  H13Y17952   3.739   5.077   8.449  0.1825 -0.7446  0.5535
  160SAPE  C31417953   3.561   5.030   8.333 -0.5640 -0.7910  0.0143
  160SAPE  H14X17954   3.550   4.939   8.397  1.2048  0.2634  1.9399
  160SAPE  H14Y17955   3.529   5.017   8.228  1.2071 -0.3045 -0.6184
  160SAPE  C31517956   3.471   5.141   8.397 -0.2000  0.4303 -0.1347
  160SAPE  H15X17957   3.486   5.237   8.344  1.5547 -0.1537 -0.7519
  160SAPE  H15Y17958   3.498   5.149   8.504 -1.1278  2.4480 -0.0036
  160SAPE  C31617959   3.331   5.088   8.392  0.2412  0.2713  0.1005
  160SAPE  H16X17960   3.325   4.990   8.444 -0.7108  0.0262 -0.4330
  160SAPE  H16Y17961   3.299   5.078   8.286  1.5203  0.1782 -0.2848
  160SAPE  C31717962   3.246   5.188   8.461 -0.2057  0.0877 -0.2406
  160SAPE  H17X17963   3.290   5.285   8.430 -0.3591  0.6878  1.3323
  160SAPE  H17Y17964   3.277   5.169   8.567 -1.1717  1.0245  0.2217
  160SAPE  C31817965   3.093   5.169   8.449 -0.5133 -0.5083  0.2408
  160SAPE  H18X17966   3.056   5.187   8.346 -0.8336  0.0115  0.4385
  160SAPE  H18Y17967   3.043   5.242   8.517 -0.3689 -2.2019  2.2775
  160SAPE  H18Z17968   3.071   5.064   8.478  2.5441 -1.4660 -0.6248
  161SOPE     N17969   3.027   0.384  10.669 -0.2512  0.0316 -0.2814
  161SOPE   HN117970   3.063   0.455  10.602  1.9426 -0.0679  0.7080
  161SOPE   HN217971   3.052   0.287  10.644  1.2526  0.2800  0.1383
  161SOPE   HN317972   2.926   0.387  10.692 -0.9472  1.6472 -3.0544
  161SOPE   C1217973   3.105   0.412  10.795 -0.2951  0.2367 -0.8661
  161SOPE  H12A17974   3.066   0.344  10.874  1.3806  0.0190 -0.1763
  161SOPE  H12B17975   3.094   0.518  10.825  0.3726 -0.2470  1.3198
  161SOPE   C1117976   3.254   0.387  10.760  0.3436  0.2098 -0.0811
  161SOPE  H11A17977   3.271   0.284  10.721  2.9293  0.6952 -0.4264
  161SOPE  H11B17978   3.307   0.398  10.857 -0.2637 -0.7769  0.3830
  161SOPE     P17979   3.455   0.489  10.626 -0.7790  0.1979 -0.2507
  161SOPE   O1317980   3.542   0.449  10.743  0.0968  0.6301 -0.1853
  161SOPE   O1417981   3.481   0.618  10.564 -0.8287 -0.4148  0.4177
  161SOPE   O1217982   3.306   0.486  10.670 -0.2347  0.1458 -0.1745
  161SOPE   O1117983   3.466   0.371  10.511  0.3297 -0.5079 -0.4428
  161SOPE    C117984   3.345   0.362  10.426  0.8109 -0.4579 -0.1750
  161SOPE    HA17985   3.304   0.464  10.409  0.0616 -0.7108  0.0837
  161SOPE    HB17986   3.270   0.303  10.482  1.5440  1.0790  2.5977
  161SOPE    C217987   3.371   0.293  10.295  0.1803  0.3612  0.3184
  161SOPE    HS17988   3.271   0.272  10.251  0.5268 -0.7863  0.0319
  161SOPE   O2117989   3.443   0.170  10.324  0.1989  0.8755  0.0177
  161SOPE   C2117990   3.418   0.063  10.252  0.1148  0.8269 -0.2481
  161SOPE   O2217991   3.339   0.047  10.162 -0.1977 -0.3319 -0.3095
  161SOPE   C2217992   3.504  -0.057  10.302 -0.2573 -0.3076  0.1004
  161SOPE   H2R17993   3.462  -0.102  10.395 -2.5326  1.7480  0.1488
  161SOPE   H2S17994   3.599  -0.005  10.330  0.1023 -1.9984  2.2707
  161SOPE    C317995   3.444   0.379  10.186  0.2998  0.4654 -0.6146
  161SOPE    HX17996   3.537   0.421  10.230  0.4608  0.8074 -1.2630
  161SOPE    HY17997   3.388   0.469  10.153  0.4842  1.2418  1.0641
  161SOPE   O3117998   3.481   0.288  10.073  0.2747  0.1337 -0.5533
  161SOPE   C3117999   3.389   0.278   9.975  0.4205  0.7424 -0.3513
  161SOPE   O3218000   3.279   0.335   9.973 -0.2761  0.0160  0.0772
  161SOPE   C3218001   3.428   0.187   9.864  0.2765 -0.2387 -0.1662
  161SOPE   H2X18002   3.399   0.082   9.888 -1.1743 -0.1640 -1.4199
  161SOPE   H2Y18003   3.539   0.190   9.855  0.2746 -0.0166 -0.1147
  161SOPE   C2318004   3.530  -0.166  10.199 -0.2439  0.3897  0.0756
  161SOPE   H3R18005   3.446  -0.220  10.149  0.4410 -0.0619 -0.6169
  161SOPE   H3S18006   3.579  -0.253  10.246 -0.8652 -0.8452 -1.4566
  161SOPE   C2418007   3.613  -0.115  10.081  0.2614 -0.3598 -0.1664
  161SOPE   H4R18008   3.563  -0.038  10.018 -0.9143 -0.2677  0.8576
  161SOPE   H4S18009   3.693  -0.053  10.128  0.7094  0.2452 -1.6667
  161SOPE   C2518010   3.669  -0.228   9.993 -0.3137  1.0931 -0.1525
  161SOPE   H5R18011   3.698  -0.308  10.064 -0.9955  0.3488 -0.6973
  161SOPE   H5S18012   3.592  -0.266   9.923 -0.0962  0.3047  0.0360
  161SOPE   C2618013   3.799  -0.194   9.915 -0.4072 -0.0801  0.5410
  161SOPE   H6R18014   3.877  -0.153   9.983  0.2762  4.0575 -2.3277
  161SOPE   H6S18015   3.839  -0.286   9.867 -0.3743 -0.1851  0.7681
  161SOPE   C2718016   3.784  -0.085   9.805 -0.0929 -0.1815  0.4572
  161SOPE   H7R18017   3.742   0.008   9.848  2.2094  1.3765 -0.4876
  161SOPE   H7S18018   3.891  -0.061   9.786  0.2746 -0.1291  2.4005
  161SOPE   C2818019   3.708  -0.119   9.674 -0.2403  0.2270 -0.1687
  161SOPE   H8R18020   3.608  -0.161   9.698  0.1985 -0.8514 -0.1675
  161SOPE   H8S18021   3.697  -0.025   9.616  0.2153  0.2615 -0.2055
  161SOPE   C2918022   3.788  -0.219   9.588 -0.2121  0.3782  0.2157
  161SOPE   H9118023   3.830  -0.299   9.650 -1.0118  0.8480  1.3915
  161SOPE  C21018024   3.834  -0.209   9.457 -0.1785 -0.4668 -0.4311
  161SOPE  H10118025   3.902  -0.283   9.412  0.9490 -1.1482  2.2178
  161SOPE  C21118026   3.797  -0.095   9.367  0.2933  0.1286  0.4646
  161SOPE  H11R18027   3.890  -0.038   9.348 -1.3748  2.6143 -0.8189
  161SOPE  H11S18028   3.746  -0.016   9.427  1.6136  0.5808  1.0304
  161SOPE  C21218029   3.722  -0.135   9.236 -0.9198  0.3544 -1.0365
  161SOPE  H12R18030   3.664  -0.052   9.191 -2.5329 -0.9078 -1.3725
  161SOPE  H12S18031   3.646  -0.208   9.272  0.3377 -0.6906 -0.4527
  161SOPE  C21318032   3.799  -0.194   9.126 -0.5320 -0.1868  0.1415
  161SOPE  H13R18033   3.717  -0.241   9.067  0.3373 -0.6670 -0.7060
  161SOPE  H13S18034   3.871  -0.270   9.164 -0.5070  0.8098  2.2610
  161SOPE  C21418035   3.872  -0.097   9.028  0.5923 -0.0083  0.3694
  161SOPE  H14R18036   3.962  -0.146   8.985  0.6108  0.7599 -0.5121
  161SOPE  H14S18037   3.902  -0.000   9.073 -2.0626  0.4161  1.4192
  161SOPE  C21518038   3.779  -0.066   8.908  0.8692 -0.3043 -0.0873
  161SOPE  H15R18039   3.710   0.015   8.940  1.7870  0.0729  1.0307
  161SOPE  H15S18040   3.725  -0.156   8.871  1.4678 -0.7556  0.1245
  161SOPE  C21618041   3.868  -0.014   8.788  0.6138 -0.7738 -0.0928
  161SOPE  H16R18042   3.954  -0.084   8.777  1.6679  0.7008 -1.7533
  161SOPE  H16S18043   3.904   0.087   8.817 -0.1597 -0.0710 -1.4741
  161SOPE  C21718044   3.789   0.009   8.657 -0.2864 -0.3140 -0.0315
  161SOPE  H17R18045   3.739  -0.086   8.630  0.7255 -0.8291 -0.1112
  161SOPE  H17S18046   3.860   0.038   8.577 -1.1552  3.3151  0.3167
  161SOPE  C21818047   3.684   0.127   8.665  0.4047  0.4333  0.0117
  161SOPE  H18R18048   3.630   0.136   8.569  1.2168  0.5800 -0.4431
  161SOPE  H18S18049   3.744   0.217   8.689 -0.6905  2.4763 -4.0883
  161SOPE  H18T18050   3.600   0.106   8.734 -0.6061 -0.1070 -1.3381
  161SOPE   C3318051   3.368   0.229   9.727 -0.4312  0.2123 -0.7177
  161SOPE   H3X18052   3.416   0.325   9.696  1.5887 -0.8353 -0.9375
  161SOPE   H3Y18053   3.260   0.253   9.740 -0.4587 -0.8193  1.2567
  161SOPE   C3418054   3.406   0.125   9.629  0.0138 -0.2246  0.0062
  161SOPE   H4X18055   3.383   0.020   9.657  2.9890 -1.2804 -1.0679
  161SOPE   H4Y18056   3.517   0.126   9.617  0.0108 -0.3583 -0.0391
  161SOPE   C3518057   3.338   0.155   9.493  0.4275  0.7828 -0.2649
  161SOPE   H5X18058   3.344   0.260   9.455 -2.7035  1.8771  1.9017
  161SOPE   H5Y18059   3.229   0.135   9.505  0.7064  0.3536  1.7523
  161SOPE   C3618060   3.385   0.049   9.389 -0.2154 -0.6765  0.1792
  161SOPE   H6X18061   3.370  -0.056   9.421 -2.0796 -0.9480 -1.4077
  161SOPE   H6Y18062   3.492   0.075   9.375 -0.3324 -0.0997  0.3172
  161SOPE   C3718063   3.305   0.066   9.260  0.5118  0.2463 -0.4490
  161SOPE   H7X18064   3.332   0.158   9.204  2.7669  0.1271  0.3471
  161SOPE   H7Y18065   3.198   0.060   9.289  0.0764 -0.2653 -2.0623
  161SOPE   C3818066   3.333  -0.052   9.162  0.7307  0.2432 -0.6112
  161SOPE   H8X18067   3.311  -0.154   9.199  1.3226  0.1164 -0.6041
  161SOPE   H8Y18068   3.442  -0.068   9.153  0.4579 -1.7442 -0.8535
  161SOPE   C3918069   3.289  -0.032   9.013  0.0296 -0.6265 -0.2349
  161SOPE   H9X18070   3.303   0.072   8.978  0.8337 -0.9533 -0.9267
  161SOPE   H9Y18071   3.186  -0.072   8.998 -0.2760  0.1114 -0.1453
  161SOPE  C31018072   3.370  -0.106   8.899 -0.8102 -0.2147 -0.6382
  161SOPE  H10X18073   3.333  -0.211   8.903  1.3033 -1.0091 -0.5639
  161SOPE  H10Y18074   3.475  -0.099   8.936 -1.2561 -1.3620  0.9482
  161SOPE  C31118075   3.356  -0.043   8.757 -0.4548  0.4852  0.0477
  161SOPE  H11X18076   3.435  -0.083   8.690 -0.2397  2.2895 -0.8287
  161SOPE  H11Y18077   3.366   0.067   8.764 -1.6110  0.6735 -0.9258
  161SOPE  C31218078   3.219  -0.070   8.688  0.6786  0.0795 -0.2156
  161SOPE  H12X18079   3.136  -0.026   8.748  1.7966  1.8290  0.1466
  161SOPE  H12Y18080   3.205  -0.175   8.657 -0.6236 -0.5165  2.1637
  161SOPE  C31318081   3.208   0.009   8.560 -0.1067  0.1983 -0.3135
  161SOPE  H13X18082   3.306   0.002   8.509 -0.3794 -3.0651 -0.6571
  161SOPE  H13Y18083   3.200   0.117   8.584  0.2110  0.2136 -0.2713
  161SOPE  C31418084   3.094  -0.034   8.460  0.6443 -0.2117 -0.7645
  161SOPE  H14X18085   3.067  -0.139   8.485  0.7445 -0.3487 -1.2344
  161SOPE  H14Y18086   3.122  -0.032   8.353  1.2098  2.4775 -0.6385
  161SOPE  C31518087   2.968   0.049   8.489  0.3365  0.7860 -0.8125
  161SOPE  H15X18088   2.966   0.158   8.467 -1.5142  0.5011 -2.2829
  161SOPE  H15Y18089   2.947   0.040   8.598 -1.0754 -0.6335 -1.1661
  161SOPE  C31618090   2.837  -0.008   8.419 -0.1244  0.2701  0.0169
  161SOPE  H16X18091   2.748   0.017   8.480 -0.4557 -0.1102 -0.3079
  161SOPE  H16Y18092   2.855  -0.117   8.413 -0.2410  0.2172  0.6083
  161SOPE  C31718093   2.815   0.037   8.274 -0.6490 -0.0394  0.7946
  161SOPE  H17X18094   2.894  -0.009   8.212 -1.2166 -0.4950  0.3982
  161SOPE  H17Y18095   2.843   0.144   8.262  0.0521 -0.1160  1.6800
  161SOPE  C31818096   2.672   0.000   8.232 -0.7171 -0.0945  0.7265
  161SOPE  H18X18097   2.645   0.014   8.125 -0.8837  1.7126  0.9752
  161SOPE  H18Y18098   2.592   0.036   8.300  0.7921 -1.4213  3.3799
  161SOPE  H18Z18099   2.665  -0.110   8.242 -0.3704  0.0135  2.3550
  162SOPE     N18100   2.022   0.522  10.599 -0.0502  0.3161  1.1589
  162SOPE   HN118101   2.043   0.440  10.539 -2.3391  1.7886 -1.9299
  162SOPE   HN218102   2.108   0.580  10.596  2.5674 -3.2224  2.0262
  162SOPE   HN318103   1.999   0.485  10.694 -2.7144 -2.9999 -0.5595
  162SOPE   C1218104   1.897   0.585  10.535  0.2037  0.2852 -0.2308
  162SOPE  H12A18105   1.826   0.505  10.505  1.7500 -0.8668 -1.0091
  162SOPE  H12B18106   1.930   0.644  10.447 -1.0107 -1.0091 -1.6067
  162SOPE   C1118107   1.821   0.671  10.636  0.1112  0.0598  0.2331
  162SOPE  H11A18108   1.747   0.739  10.589  0.4699 -0.6983 -1.4970
  162SOPE  H11B18109   1.890   0.741  10.688 -1.7277  1.7502  0.5343
  162SOPE     P18110   1.678   0.642  10.857 -0.0899  0.4973 -0.5512
  162SOPE   O1318111   1.748   0.762  10.913 -0.2737 -0.3930  0.1661
  162SOPE   O1418112   1.650   0.527  10.953  0.4729  0.0283  0.2162
  162SOPE   O1218113   1.752   0.583  10.729 -0.0070 -0.0259 -0.2105
  162SOPE   O1118114   1.542   0.686  10.796 -0.1506  0.6713  0.2827
  162SOPE    C118115   1.449   0.601  10.734  0.0998 -0.0162 -0.0256
  162SOPE    HA18116   1.353   0.657  10.742  1.7953  2.7469  3.4786
  162SOPE    HB18117   1.419   0.510  10.791 -0.8625  0.9014  0.9771
  162SOPE    C218118   1.464   0.570  10.583 -0.2056 -0.2576 -0.3078
  162SOPE    HS18119   1.543   0.492  10.577 -1.4573 -1.9546  2.8693
  162SOPE   O2118120   1.507   0.693  10.509 -0.2984  0.0458 -0.1027
  162SOPE   C2118121   1.557   0.675  10.395 -0.4662  0.5155 -0.5539
  162SOPE   O2218122   1.590   0.568  10.350  0.5338 -0.4882  0.1397
  162SOPE   C2218123   1.578   0.805  10.318  0.3573  0.4093 -0.3095
  162SOPE   H2R18124   1.672   0.850  10.356 -0.1959  1.2460  0.1156
  162SOPE   H2S18125   1.494   0.868  10.356  1.2343  1.3747  0.0671
  162SOPE    C318126   1.328   0.522  10.527 -0.7310  0.2022  0.4010
  162SOPE    HX18127   1.248   0.592  10.560  0.1159  1.4997 -0.1979
  162SOPE    HY18128   1.306   0.421  10.568 -1.2382 -0.5831 -1.6660
  162SOPE   O3118129   1.310   0.509  10.379  0.0403 -0.4172 -0.4241
  162SOPE   C3118130   1.364   0.402  10.323 -0.3296 -0.1260  0.3371
  162SOPE   O3218131   1.417   0.309  10.381 -0.4789  0.3371 -0.1707
  162SOPE   C3218132   1.348   0.401  10.169 -0.5671 -0.2851 -0.7242
  162SOPE   H2X18133   1.353   0.506  10.135 -4.0305  0.6982  1.2945
  162SOPE   H2Y18134   1.240   0.378  10.158 -0.5858 -0.2687 -0.5780
  162SOPE   C2318135   1.581   0.774  10.164 -0.1940 -0.0213  0.3541
  162SOPE   H3R18136   1.483   0.746  10.120  0.4184  1.4936 -2.1550
  162SOPE   H3S18137   1.651   0.691  10.138 -0.5329  0.3349 -1.8502
  162SOPE   C2418138   1.640   0.888  10.075  0.0541 -0.5208 -0.0760
  162SOPE   H4R18139   1.556   0.958  10.056  2.1680  2.0739 -0.6735
  162SOPE   H4S18140   1.724   0.937  10.131 -1.2952  3.3825 -1.1254
  162SOPE   C2518141   1.694   0.830   9.941 -0.3293 -0.5619  0.0997
  162SOPE   H5R18142   1.785   0.771   9.964 -0.4062 -0.9210 -0.4910
  162SOPE   H5S18143   1.621   0.765   9.889 -1.1088 -0.7673  1.4166
  162SOPE   C2618144   1.735   0.934   9.838 -0.4851  0.4243  0.4235
  162SOPE   H6R18145   1.650   0.995   9.801  0.3292  0.7707 -0.9470
  162SOPE   H6S18146   1.812   0.998   9.886 -1.3497  0.4345  1.8553
  162SOPE   C2718147   1.799   0.858   9.716  0.0705  0.3318  0.0068
  162SOPE   H7R18148   1.890   0.815   9.762  2.7041  3.8065 -1.4761
  162SOPE   H7S18149   1.736   0.771   9.686 -0.2586  0.4926  0.2294
  162SOPE   C2818150   1.831   0.946   9.602  0.7115 -0.3531 -0.1313
  162SOPE   H8R18151   1.733   0.983   9.565 -0.4223  0.0443  3.0022
  162SOPE   H8S18152   1.880   1.036   9.645  1.6372 -2.0881  2.7322
  162SOPE   C2918153   1.909   0.882   9.491 -1.0124 -0.3419 -0.3322
  162SOPE   H9118154   1.967   0.794   9.523 -0.9959 -0.3736 -0.4509
  162SOPE  C21018155   1.887   0.904   9.359  0.5620  0.3410  0.3607
  162SOPE  H10118156   1.939   0.848   9.280  0.5285  0.4787  0.2404
  162SOPE  C21118157   1.788   0.994   9.287  0.0449 -0.5391 -0.1893
  162SOPE  H11R18158   1.787   1.096   9.331  1.7432 -0.0139 -1.2407
  162SOPE  H11S18159   1.684   0.962   9.307  0.2451 -1.0019  0.1295
  162SOPE  C21218160   1.809   1.016   9.137 -0.5982  0.1064  0.8983
  162SOPE  H12R18161   1.919   1.027   9.127 -0.6939  0.6095  0.3695
  162SOPE  H12S18162   1.763   1.113   9.109  0.2141  0.3712  0.4589
  162SOPE  C21318163   1.775   0.896   9.046  0.3224 -0.7499  0.3162
  162SOPE  H13R18164   1.676   0.857   9.080 -0.5272 -0.5803 -1.8133
  162SOPE  H13S18165   1.848   0.817   9.075  0.4204 -0.9988 -0.5835
  162SOPE  C21418166   1.791   0.935   8.906  1.1472 -0.0967 -0.3439
  162SOPE  H14R18167   1.897   0.954   8.879  0.6423  1.1610 -1.6182
  162SOPE  H14S18168   1.748   1.036   8.887  0.2542 -0.4610 -0.3217
  162SOPE  C21518169   1.745   0.833   8.796 -0.0250  0.0485  0.5162
  162SOPE  H15R18170   1.640   0.806   8.817  0.1315 -0.4981  0.6125
  162SOPE  H15S18171   1.808   0.742   8.801  2.0016  1.3314 -0.3085
  162SOPE  C21618172   1.753   0.903   8.662 -0.1559 -0.5019  0.9287
  162SOPE  H16R18173   1.854   0.941   8.636  0.3304 -1.7054  0.9772
  162SOPE  H16S18174   1.682   0.988   8.649 -1.5453 -1.9087 -1.6956
  162SOPE  C21718175   1.730   0.809   8.548  0.3465  0.4837  0.3664
  162SOPE  H17R18176   1.632   0.759   8.551 -0.6392  2.3548  1.1650
  162SOPE  H17S18177   1.810   0.732   8.544  0.3784  0.5490 -0.4925
  162SOPE  C21818178   1.727   0.881   8.408  0.5083 -1.0209 -0.3819
  162SOPE  H18R18179   1.826   0.925   8.382  2.1333 -3.7079  0.8049
  162SOPE  H18S18180   1.651   0.962   8.407 -1.0322 -2.3763  0.6941
  162SOPE  H18T18181   1.695   0.814   8.325  1.0588  0.3855 -1.7941
  162SOPE   C3318182   1.438   0.305  10.091 -0.3063 -0.0288  0.3143
  162SOPE   H3X18183   1.415   0.199  10.113  0.0012 -0.3278 -0.7819
  162SOPE   H3Y18184   1.546   0.320  10.112 -0.6432  1.5167  1.1429
  162SOPE   C3418185   1.433   0.325   9.945  0.4826 -0.1883  1.6891
  162SOPE   H4X18186   1.410   0.431   9.924  0.4540 -0.5014  0.0484
  162SOPE   H4Y18187   1.354   0.255   9.909 -1.1215  1.1345  2.5181
  162SOPE   C3518188   1.556   0.272   9.878 -0.1453 -0.3046  0.0971
  162SOPE   H5X18189   1.555   0.165   9.906  2.1919  0.1779  2.5282
  162SOPE   H5Y18190   1.644   0.322   9.923  0.0891 -1.2091  0.6626
  162SOPE   C3618191   1.558   0.295   9.730 -0.1228 -0.8649  0.0570
  162SOPE   H6X18192   1.646   0.251   9.677  1.8892  0.8263  1.7912
  162SOPE   H6Y18193   1.585   0.402   9.718 -0.5130 -0.7096  0.5767
  162SOPE   C3718194   1.421   0.273   9.654 -0.4210  0.2516  0.3123
  162SOPE   H7X18195   1.334   0.335   9.683 -1.5807 -1.3003  0.3190
  162SOPE   H7Y18196   1.402   0.164   9.665  0.2394 -0.0097 -0.9393
  162SOPE   C3818197   1.443   0.292   9.503  0.0610 -0.2240 -0.3708
  162SOPE   H8X18198   1.515   0.215   9.467 -1.2454 -0.9829 -1.5281
  162SOPE   H8Y18199   1.483   0.394   9.491  1.1973 -0.5857  0.2667
  162SOPE   C3918200   1.317   0.280   9.423  0.3883 -0.1037 -0.1201
  162SOPE   H9X18201   1.234   0.348   9.449  2.1337  1.5724  1.4085
  162SOPE   H9Y18202   1.262   0.184   9.430 -0.5638  0.5457  1.6597
  162SOPE  C31018203   1.357   0.311   9.282  0.5599  0.2813  0.0363
  162SOPE  H10X18204   1.425   0.232   9.245 -2.4666 -1.9265 -1.3198
  162SOPE  H10Y18205   1.408   0.409   9.284  0.1814  0.4732  0.8607
  162SOPE  C31118206   1.243   0.318   9.181 -0.4079 -0.0862  0.4128
  162SOPE  H11X18207   1.181   0.407   9.202 -0.7199  0.1487 -1.3639
  162SOPE  H11Y18208   1.171   0.233   9.184  0.5905 -1.0087 -0.4528
  162SOPE  C31218209   1.295   0.327   9.035  0.5501  0.2036  0.3563
  162SOPE  H12X18210   1.210   0.331   8.963  0.3613 -0.7022  0.5120
  162SOPE  H12Y18211   1.341   0.227   9.018 -3.6332 -1.9286  0.1614
  162SOPE  C31318212   1.383   0.444   8.991  0.0230 -0.2876 -0.3627
  162SOPE  H13X18213   1.486   0.432   9.030  0.0373  1.3741  0.1856
  162SOPE  H13Y18214   1.342   0.538   9.033 -0.1458 -0.5338  0.0328
  162SOPE  C31418215   1.396   0.445   8.838 -0.8981  0.6390  0.3756
  162SOPE  H14X18216   1.461   0.531   8.811  0.4191 -0.1492  0.9786
  162SOPE  H14Y18217   1.297   0.454   8.787 -0.5046 -0.6922 -0.6623
  162SOPE  C31518218   1.463   0.312   8.791 -0.0554 -0.1020 -0.1787
  162SOPE  H15X18219   1.395   0.225   8.802 -1.3067  0.7662 -0.7344
  162SOPE  H15Y18220   1.555   0.288   8.847  0.9152 -3.6091 -2.8550
  162SOPE  C31618221   1.500   0.312   8.646 -0.5900 -0.8299 -0.0529
  162SOPE  H16X18222   1.412   0.321   8.579 -0.2367 -2.8579 -0.8396
  162SOPE  H16Y18223   1.536   0.209   8.626  1.7316 -0.3722  1.3492
  162SOPE  C31718224   1.608   0.411   8.596 -0.0404  0.0109 -0.4400
  162SOPE  H17X18225   1.705   0.377   8.638  0.0654 -1.3500 -1.6999
  162SOPE  H17Y18226   1.586   0.515   8.629  2.8313  0.7713 -0.6312
  162SOPE  C31818227   1.625   0.400   8.446 -0.4322  0.2446  0.4426
  162SOPE  H18X18228   1.538   0.437   8.386 -2.4337  0.9743  3.5355
  162SOPE  H18Y18229   1.650   0.294   8.426  1.7948  0.3754  2.1154
  162SOPE  H18Z18230   1.718   0.448   8.411 -0.6907  0.0240 -0.5894
  163SOPE     N18231   1.513   5.880  10.820 -0.2703 -0.3972  0.7646
  163SOPE   HN118232   1.592   5.922  10.766 -0.1508  0.2418  1.4136
  163SOPE   HN218233   1.480   5.790  10.780  2.1089 -1.4324  0.9991
  163SOPE   HN318234   1.444   5.954  10.795 -0.4835 -0.7407  0.3270
  163SOPE   C1218235   1.554   5.885  10.968  0.1940 -0.0638 -0.0007
  163SOPE  H12A18236   1.478   5.838  11.033 -0.5401 -1.4599 -1.7722
  163SOPE  H12B18237   1.570   5.994  10.983 -1.2849  0.4724 -1.9482
  163SOPE   C1118238   1.686   5.800  10.977 -0.1048 -0.5128  0.7076
  163SOPE  H11A18239   1.676   5.693  10.949  2.1953 -0.7178  0.4979
  163SOPE  H11B18240   1.705   5.802  11.087 -0.4717  0.9106  0.7587
  163SOPE     P18241   1.920   5.777  10.890  0.1216 -0.2829  0.1846
  163SOPE   O1318242   1.980   5.760  11.024 -0.3685  0.2574 -0.0134
  163SOPE   O1418243   2.014   5.847  10.796  0.0544  0.4678  0.2436
  163SOPE   O1218244   1.791   5.860  10.903 -0.1247  0.0107  0.1426
  163SOPE   O1118245   1.884   5.641  10.827  0.2951  0.3904  0.1005
  163SOPE    C118246   1.822   5.639  10.698 -0.1660 -0.0698 -0.6099
  163SOPE    HA18247   1.890   5.678  10.618 -0.5360  0.7626 -0.5330
  163SOPE    HB18248   1.729   5.699  10.698  0.7422  1.4387  0.8613
  163SOPE    C218249   1.765   5.494  10.653 -0.1108 -0.3708 -0.3054
  163SOPE    HS18250   1.685   5.473  10.726 -0.6495  2.4264  0.0020
  163SOPE   O2118251   1.873   5.397  10.662  0.9217 -0.1358 -0.5047
  163SOPE   C2118252   1.832   5.271  10.664  0.1926 -0.0402 -0.1079
  163SOPE   O2218253   1.717   5.237  10.685 -0.2255  0.6165  0.2365
  163SOPE   C2218254   1.951   5.180  10.638  0.4921  0.8052  0.3675
  163SOPE   H2R18255   2.007   5.174  10.734 -0.5203  1.1499  1.0002
  163SOPE   H2S18256   2.014   5.213  10.553 -1.5204  0.6267 -1.2649
  163SOPE    C318257   1.702   5.502  10.506  0.8853 -0.2815  0.3927
  163SOPE    HX18258   1.789   5.534  10.445  1.9407 -2.4725  0.6684
  163SOPE    HY18259   1.622   5.580  10.509  0.9624 -0.2345  1.8755
  163SOPE   O3118260   1.631   5.378  10.473 -0.0448 -0.3924 -0.7983
  163SOPE   C3118261   1.643   5.334  10.353 -0.4507  0.1637 -0.7069
  163SOPE   O3218262   1.726   5.368  10.275  0.3292 -0.4574  0.5758
  163SOPE   C3218263   1.532   5.226  10.327 -0.3665 -0.3740 -0.8672
  163SOPE   H2X18264   1.447   5.231  10.397 -2.9225  2.4984 -3.8423
  163SOPE   H2Y18265   1.595   5.134  10.337 -0.8979 -0.5915  0.6563
  163SOPE   C2318266   1.929   5.035  10.601  0.7373  0.7322  0.6168
  163SOPE   H3R18267   1.874   4.978  10.679 -0.4923  0.4163 -0.4609
  163SOPE   H3S18268   2.027   4.984  10.597 -0.3308 -1.3415 -2.8370
  163SOPE   C2418269   1.862   5.019  10.463  0.2300  0.4937  0.3417
  163SOPE   H4R18270   1.753   5.043  10.460  0.8366  3.5440 -0.2493
  163SOPE   H4S18271   1.928   5.076  10.395  0.4166 -0.0685  0.0429
  163SOPE   C2518272   1.861   4.870  10.412  0.4269  0.1077 -0.3932
  163SOPE   H5R18273   1.968   4.839  10.406  0.4981  0.3775 -0.5269
  163SOPE   H5S18274   1.811   4.801  10.484  2.5248 -1.3915 -0.2745
  163SOPE   C2618275   1.791   4.846  10.275 -0.7318 -0.4366  0.2680
  163SOPE   H6R18276   1.682   4.842  10.297 -0.9540 -2.4868 -0.9511
  163SOPE   H6S18277   1.801   4.930  10.204 -1.3412  0.2865  1.0091
  163SOPE   C2718278   1.851   4.715  10.210 -0.3878  0.0519 -0.0922
  163SOPE   H7R18279   1.961   4.731  10.206 -0.5863  2.2502  1.3124
  163SOPE   H7S18280   1.838   4.636  10.286 -0.7989  0.5806  0.3967
  163SOPE   C2818281   1.797   4.692  10.071  0.0144  0.4206  0.2925
  163SOPE   H8R18282   1.686   4.686  10.081  0.1456 -1.8387  1.1726
  163SOPE   H8S18283   1.821   4.786  10.018 -0.4111  0.4646  0.1688
  163SOPE   C2918284   1.842   4.560  10.000  0.6267 -0.4918 -0.1013
  163SOPE   H9118285   1.839   4.470  10.063 -0.5065 -0.0326  0.5528
  163SOPE  C21018286   1.878   4.548   9.874  0.6776  0.2924  0.5103
  163SOPE  H10118287   1.899   4.445   9.842  2.6781  0.5960  0.7120
  163SOPE  C21118288   1.876   4.661   9.780  0.2094 -0.1062 -0.4617
  163SOPE  H11R18289   1.943   4.639   9.694 -1.6009  0.1479 -1.9906
  163SOPE  H11S18290   1.920   4.752   9.826 -0.2709  0.6111 -1.3803
  163SOPE  C21218291   1.740   4.713   9.724 -0.0732 -0.2890  0.0951
  163SOPE  H12R18292   1.738   4.813   9.675 -1.7339 -0.0753  0.5490
  163SOPE  H12S18293   1.668   4.727   9.807 -0.4887  1.3480 -0.5130
  163SOPE  C21318294   1.668   4.610   9.641 -0.1922 -0.3428  0.0323
  163SOPE  H13R18295   1.563   4.644   9.633 -0.4826 -1.2014  0.0991
  163SOPE  H13S18296   1.651   4.510   9.686 -1.7565 -0.3967 -0.6106
  163SOPE  C21418297   1.719   4.605   9.493  0.3815  0.7461 -0.5499
  163SOPE  H14R18298   1.652   4.541   9.431 -0.2680 -0.9912  1.7632
  163SOPE  H14S18299   1.808   4.540   9.484  0.1017  0.5296 -1.9082
  163SOPE  C21518300   1.755   4.743   9.428  0.0459  0.2935 -0.6139
  163SOPE  H15R18301   1.850   4.770   9.479  1.4079 -1.7699 -1.9430
  163SOPE  H15S18302   1.670   4.799   9.474  0.1590 -0.5711  0.7234
  163SOPE  C21618303   1.773   4.741   9.278 -0.7429 -0.1275  0.3019
  163SOPE  H16R18304   1.853   4.667   9.257 -1.5359 -0.9030 -0.0724
  163SOPE  H16S18305   1.807   4.843   9.250  2.8279 -1.5656 -1.1642
  163SOPE  C21718306   1.638   4.705   9.211 -0.0139 -0.0946  0.2754
  163SOPE  H17R18307   1.557   4.763   9.260 -0.3153 -0.3622  0.0963
  163SOPE  H17S18308   1.616   4.597   9.229 -0.0536 -0.2073 -0.3993
  163SOPE  C21818309   1.624   4.718   9.061  0.7032  0.3087 -0.8294
  163SOPE  H18R18310   1.520   4.700   9.027  0.6086 -0.3353 -0.1980
  163SOPE  H18S18311   1.697   4.653   9.006  0.5242 -1.4405  0.9100
  163SOPE  H18T18312   1.664   4.817   9.029 -0.2670  1.0052  0.0884
  163SOPE   C3318313   1.477   5.233  10.183  0.5109 -1.2356  0.0032
  163SOPE   H3X18314   1.483   5.337  10.145 -1.7676 -0.7744  0.7108
  163SOPE   H3Y18315   1.374   5.194  10.163  0.9940 -2.5582 -0.0434
  163SOPE   C3418316   1.558   5.147  10.084 -0.1955  0.1773  0.0342
  163SOPE   H4X18317   1.576   5.045  10.123  0.3567  0.6659  1.1149
  163SOPE   H4Y18318   1.657   5.197  10.083 -0.3529  0.4932 -1.3197
  163SOPE   C3518319   1.498   5.154   9.944 -0.2215  0.1799 -0.0587
  163SOPE   H5X18320   1.489   5.259   9.910 -1.3237  0.3614  0.7248
  163SOPE   H5Y18321   1.397   5.108   9.946 -0.7723  1.3889  1.2736
  163SOPE   C3618322   1.588   5.069   9.843 -0.0615 -0.0101  0.5292
  163SOPE   H6X18323   1.603   4.969   9.888 -0.2460  0.8615  2.6096
  163SOPE   H6Y18324   1.692   5.108   9.837 -0.6299  1.4101 -0.7912
  163SOPE   C3718325   1.524   5.049   9.703  0.1183  0.8072 -0.1470
  163SOPE   H7X18326   1.418   5.014   9.709  0.0355  1.1813  0.6835
  163SOPE   H7Y18327   1.575   4.964   9.654  1.9967  0.7920  1.7166
  163SOPE   C3818328   1.540   5.170   9.608 -0.4622  0.3874  0.3606
  163SOPE   H8X18329   1.647   5.195   9.621 -0.2394 -1.0066  1.3963
  163SOPE   H8Y18330   1.493   5.259   9.654 -1.3273  1.1688 -1.8813
  163SOPE   C3918331   1.494   5.161   9.463 -0.1356  0.7152 -0.3482
  163SOPE   H9X18332   1.483   5.268   9.433 -1.4864  0.9793  0.9798
  163SOPE   H9Y18333   1.389   5.124   9.468 -0.1909  0.9579  0.2865
  163SOPE  C31018334   1.596   5.076   9.380  0.4651  0.0869 -0.0854
  163SOPE  H10X18335   1.627   4.987   9.438  0.8690  0.8912  0.9666
  163SOPE  H10Y18336   1.686   5.141   9.370 -0.4669  1.4950  0.2814
  163SOPE  C31118337   1.538   5.063   9.235 -1.1242  0.0596 -0.0418
  163SOPE  H11X18338   1.437   5.018   9.250 -0.5653 -2.1452 -2.3409
  163SOPE  H11Y18339   1.604   4.997   9.176 -1.2774  0.0473 -0.2009
  163SOPE  C31218340   1.531   5.192   9.165  0.6405  1.0567 -0.0674
  163SOPE  H12X18341   1.624   5.250   9.185  0.9715  0.3261  0.5345
  163SOPE  H12Y18342   1.442   5.246   9.205 -0.9745 -0.1370 -1.8857
  163SOPE  C31318343   1.518   5.170   9.016  0.8856 -0.1946  1.3237
  163SOPE  H13X18344   1.604   5.114   8.973 -1.5559 -4.1518  1.0830
  163SOPE  H13Y18345   1.520   5.275   8.981 -1.4970  0.1310  1.9390
  163SOPE  C31418346   1.380   5.105   8.978  0.1975 -0.3923 -0.5344
  163SOPE  H14X18347   1.298   5.133   9.047  1.2336  1.2283  0.0812
  163SOPE  H14Y18348   1.399   4.996   8.992  1.3019 -0.1124  0.2617
  163SOPE  C31518349   1.323   5.126   8.837 -0.9578 -0.1063  0.3868
  163SOPE  H15X18350   1.278   5.226   8.822  2.0705  1.1799 -1.0734
  163SOPE  H15Y18351   1.243   5.052   8.819 -0.7698 -0.7340  2.0027
  163SOPE  C31618352   1.428   5.104   8.716  0.3559 -1.0128 -0.3369
  163SOPE  H16X18353   1.458   4.997   8.725 -0.1779 -1.1053  0.5625
  163SOPE  H16Y18354   1.511   5.175   8.735 -1.7527  1.4534  0.2567
  163SOPE  C31718355   1.367   5.131   8.579  0.3046 -0.3673 -0.4107
  163SOPE  H17X18356   1.336   5.237   8.581  1.5248 -0.0019  0.5759
  163SOPE  H17Y18357   1.277   5.069   8.556  0.6602 -0.5925 -1.2506
  163SOPE  C31818358   1.473   5.120   8.465 -0.6870 -0.1698  0.5318
  163SOPE  H18X18359   1.516   5.018   8.459 -1.9291 -0.6944  0.2844
  163SOPE  H18Y18360   1.544   5.202   8.487 -0.8511  0.7142 -1.9784
  163SOPE  H18Z18361   1.437   5.134   8.361  0.8225 -0.8597 -0.1173
  164SOPE     N18362   5.334   3.046  10.890 -0.0738  0.7049  0.2300
  164SOPE   HN118363   5.420   3.001  10.854  0.3255 -0.0756  2.0669
  164SOPE   HN218364   5.363   3.093  10.978 -1.0102  1.0761  0.3548
  164SOPE   HN318365   5.279   2.964  10.921  0.1234  0.1342 -0.8728
  164SOPE   C1218366   5.243   3.117  10.798 -0.0490 -0.1465  0.1044
  164SOPE  H12A18367   5.279   3.222  10.801  2.1169 -0.8211 -0.3725
  164SOPE  H12B18368   5.140   3.104  10.839 -0.4161 -0.1016 -0.7945
  164SOPE   C1118369   5.245   3.069  10.650  0.4166 -0.3917 -0.4069
  164SOPE  H11A18370   5.347   3.082  10.610  0.8219  1.4018  1.0897
  164SOPE  H11B18371   5.188   3.151  10.601 -1.2659 -1.1063  0.2550
  164SOPE     P18372   5.254   2.810  10.613 -0.2229  0.1816  0.4144
  164SOPE   O1318373   5.170   2.695  10.656 -0.4428  0.1270 -0.2098
  164SOPE   O1418374   5.381   2.823  10.690 -0.0783 -0.1809  0.1250
  164SOPE   O1218375   5.177   2.951  10.624 -0.1385  0.0054 -0.0094
  164SOPE   O1118376   5.300   2.795  10.461  0.1955  0.5128  0.6851
  164SOPE    C118377   5.200   2.806  10.359  0.2701  0.4527  0.2822
  164SOPE    HA18378   5.107   2.861  10.384 -0.8488 -0.1824 -2.1574
  164SOPE    HB18379   5.171   2.705  10.322  0.9216  0.4621 -0.2696
  164SOPE    C218380   5.260   2.877  10.230 -0.8794  0.0112  0.5282
  164SOPE    HS18381   5.192   2.870  10.142  0.5729  1.5795 -0.7806
  164SOPE   O2118382   5.399   2.841  10.193 -0.2539 -0.0092 -0.8572
  164SOPE   C2118383   5.406   2.724  10.132 -0.3425 -0.4756  0.8625
  164SOPE   O2218384   5.311   2.647  10.122  0.4246 -1.0150  0.6212
  164SOPE   C2218385   5.547   2.699  10.083  0.7462 -0.2079  0.1606
  164SOPE   H2R18386   5.550   2.596  10.043 -0.5065 -0.1911 -0.0260
  164SOPE   H2S18387   5.608   2.689  10.175 -1.6435 -2.0560  1.6461
  164SOPE    C318388   5.264   3.029  10.260  0.6683  0.4732 -0.3475
  164SOPE    HX18389   5.306   3.048  10.361  2.3324 -1.0842 -0.6779
  164SOPE    HY18390   5.155   3.048  10.263  0.5907  0.6106 -2.4296
  164SOPE   O3118391   5.325   3.107  10.158  0.5096 -0.3297 -0.3597
  164SOPE   C3118392   5.454   3.144  10.165  1.0436 -0.4901  0.0494
  164SOPE   O3218393   5.526   3.105  10.253  0.0971  0.9727 -0.0845
  164SOPE   C3218394   5.492   3.239  10.056 -0.2063  0.0471 -0.6496
  164SOPE   H2X18395   5.599   3.224  10.028 -0.3124 -0.2197 -0.9301
  164SOPE   H2Y18396   5.499   3.338  10.104  0.6363  0.1451 -0.9579
  164SOPE   C2318397   5.604   2.794   9.964  0.0336  0.5013 -0.3624
  164SOPE   H3R18398   5.713   2.772   9.970  0.0081  0.3632 -0.3860
  164SOPE   H3S18399   5.583   2.898   9.995 -1.1784 -0.4127  2.1427
  164SOPE   C2418400   5.542   2.754   9.827  0.1297 -0.8677  0.1556
  164SOPE   H4R18401   5.588   2.656   9.800 -0.4178 -0.3623 -2.9948
  164SOPE   H4S18402   5.431   2.754   9.817 -0.0087  1.6041  1.0591
  164SOPE   C2518403   5.583   2.857   9.714 -0.0238 -0.3251 -0.4287
  164SOPE   H5R18404   5.539   2.958   9.726 -2.4657 -1.5319  1.6541
  164SOPE   H5S18405   5.693   2.867   9.726 -0.4050  2.8601  1.7224
  164SOPE   C2618406   5.551   2.797   9.578 -0.2804  0.1634 -0.3102
  164SOPE   H6R18407   5.600   2.697   9.571 -0.5182  0.0968 -1.0761
  164SOPE   H6S18408   5.443   2.774   9.572 -0.7744  2.3738 -0.6543
  164SOPE   C2718409   5.594   2.892   9.458 -0.0795 -0.2732  0.3239
  164SOPE   H7R18410   5.676   2.957   9.495 -1.2913  1.2408  0.4221
  164SOPE   H7S18411   5.637   2.824   9.381 -1.5330 -0.0060 -0.7504
  164SOPE   C2818412   5.469   2.979   9.419 -0.1260 -0.3710  0.5066
  164SOPE   H8R18413   5.394   2.924   9.358  0.0615  0.3874 -0.4287
  164SOPE   H8S18414   5.412   3.014   9.508 -0.3919  0.0044  0.1900
  164SOPE   C2918415   5.504   3.100   9.343  0.1260  0.7962 -0.1143
  164SOPE   H9118416   5.563   3.172   9.403  0.4981  0.4223 -0.0265
  164SOPE  C21018417   5.491   3.128   9.214 -0.0177  0.7479  0.6663
  164SOPE  H10118418   5.510   3.229   9.174 -0.8335  0.1376 -1.4364
  164SOPE  C21118419   5.440   3.034   9.105  0.4758  0.1858 -0.5455
  164SOPE  H11R18420   5.345   3.072   9.062  0.8008  0.8085 -0.7368
  164SOPE  H11S18421   5.418   2.931   9.138 -0.2645  0.4567 -0.1630
  164SOPE  C21218422   5.536   3.028   8.991 -0.0744 -0.7216 -0.7585
  164SOPE  H12R18423   5.638   3.012   9.032 -0.3184 -2.1694 -0.6758
  164SOPE  H12S18424   5.527   3.117   8.926 -1.7759 -1.1398 -1.1404
  164SOPE  C21318425   5.499   2.902   8.914 -0.0719 -0.5370 -0.1716
  164SOPE  H13R18426   5.394   2.905   8.877 -0.7946 -0.6685  1.7377
  164SOPE  H13S18427   5.498   2.811   8.978 -2.3366 -2.5742 -2.8625
  164SOPE  C21418428   5.578   2.873   8.786 -0.1203  0.1097  0.1636
  164SOPE  H14R18429   5.573   2.768   8.751 -2.4160 -0.3859  1.7752
  164SOPE  H14S18430   5.687   2.889   8.801  0.2732 -1.0875 -1.1603
  164SOPE  C21518431   5.534   2.971   8.669  0.1229 -0.0479  0.4034
  164SOPE  H15R18432   5.531   3.069   8.720 -1.4191 -0.5555  1.3706
  164SOPE  H15S18433   5.433   2.951   8.628  1.4009 -1.6838 -2.1755
  164SOPE  C21618434   5.622   2.962   8.545 -0.3115 -0.3235 -0.4407
  164SOPE  H16R18435   5.604   2.861   8.502  0.0437  0.1623 -1.7633
  164SOPE  H16S18436   5.720   2.974   8.596 -1.9175  0.7804  2.6703
  164SOPE  C21718437   5.605   3.060   8.437  0.1369 -0.3726  0.8267
  164SOPE  H17R18438   5.624   3.161   8.479  2.8306 -0.5082  0.1345
  164SOPE  H17S18439   5.503   3.065   8.393  0.7913  3.4571 -0.6411
  164SOPE  C21818440   5.709   3.048   8.321  0.4250  0.1672  0.2748
  164SOPE  H18R18441   5.705   2.954   8.260  0.9185  0.6796 -0.5678
  164SOPE  H18S18442   5.809   3.038   8.369  0.2685  0.3545  0.6346
  164SOPE  H18T18443   5.725   3.134   8.253  1.6646 -0.0003  0.3332
  164SOPE   C3318444   5.396   3.226   9.936 -0.4694  0.2867 -0.0430
  164SOPE   H3X18445   5.289   3.243   9.962  0.0541  0.4152  2.2444
  164SOPE   H3Y18446   5.407   3.122   9.897  0.9648  1.1552 -2.1372
  164SOPE   C3418447   5.446   3.331   9.834 -0.4826  0.2379 -0.3887
  164SOPE   H4X18448   5.548   3.300   9.802 -1.0435 -3.0103  0.6369
  164SOPE   H4Y18449   5.453   3.431   9.883 -0.1076 -0.2067  0.4887
  164SOPE   C3518450   5.355   3.352   9.709 -0.9699  0.5127  0.4234
  164SOPE   H5X18451   5.250   3.370   9.741 -1.8330 -0.8861 -1.4397
  164SOPE   H5Y18452   5.357   3.258   9.650 -0.9605  1.6395 -1.4524
  164SOPE   C3618453   5.409   3.466   9.627  0.4478  0.2609 -0.0224
  164SOPE   H6X18454   5.520   3.470   9.625  0.4460  2.5896 -2.9589
  164SOPE   H6Y18455   5.385   3.566   9.671 -1.5289  0.1825 -0.7744
  164SOPE   C3718456   5.346   3.464   9.489 -0.1785 -0.1403  0.1967
  164SOPE   H7X18457   5.238   3.479   9.513 -0.2116 -0.0854  0.0066
  164SOPE   H7Y18458   5.363   3.363   9.446  2.7931 -0.5029  1.9172
  164SOPE   C3818459   5.410   3.567   9.393  0.1690  0.8656 -0.0874
  164SOPE   H8X18460   5.510   3.535   9.359  1.0014  0.1147  2.8162
  164SOPE   H8Y18461   5.436   3.659   9.450  0.1590 -0.0829  1.5003
  164SOPE   C3918462   5.307   3.616   9.289 -0.1495 -0.1569  0.1124
  164SOPE   H9X18463   5.224   3.672   9.336 -1.2282  0.1742 -2.0401
  164SOPE   H9Y18464   5.258   3.529   9.240  0.8199 -0.5706 -0.1550
  164SOPE  C31018465   5.385   3.706   9.190  0.1770  0.8624 -0.4348
  164SOPE  H10X18466   5.453   3.648   9.124  1.6106 -0.3306  1.9701
  164SOPE  H10Y18467   5.445   3.773   9.255 -1.4984  0.6904  1.3790
  164SOPE  C31118468   5.287   3.778   9.097 -0.8725  0.8121 -0.7107
  164SOPE  H11X18469   5.225   3.838   9.166 -0.4923 -0.2231  0.5728
  164SOPE  H11Y18470   5.227   3.698   9.049 -1.9957 -0.5667  2.6906
  164SOPE  C31218471   5.354   3.861   8.994  0.5570 -0.8532 -0.0726
  164SOPE  H12X18472   5.432   3.917   9.050 -0.8488  1.5291 -0.3856
  164SOPE  H12Y18473   5.278   3.932   8.955 -0.6561 -1.5403  0.9867
  164SOPE  C31318474   5.419   3.782   8.875  0.0222  0.7190  0.1493
  164SOPE  H13X18475   5.344   3.713   8.832  0.4311  0.6491 -0.4720
  164SOPE  H13Y18476   5.506   3.727   8.917  1.3669  3.1812  0.8325
  164SOPE  C31418477   5.468   3.877   8.771 -0.2313 -0.0261 -0.2137
  164SOPE  H14X18478   5.563   3.917   8.812 -0.8576 -0.8292  2.1557
  164SOPE  H14Y18479   5.401   3.965   8.759 -3.7227 -1.8932  3.1817
  164SOPE  C31518480   5.503   3.804   8.639  0.3220  0.3630 -0.2229
  164SOPE  H15X18481   5.404   3.794   8.590  0.9464 -0.7679 -1.2890
  164SOPE  H15Y18482   5.549   3.705   8.655 -1.3300 -0.1572  1.7321
  164SOPE  C31618483   5.586   3.894   8.547  0.3275  0.1274 -0.5815
  164SOPE  H16X18484   5.691   3.900   8.580  0.4271 -1.9026 -0.4345
  164SOPE  H16Y18485   5.553   4.001   8.548  2.9653  1.0231 -1.0447
  164SOPE  C31718486   5.582   3.852   8.396 -0.0646  0.6230  0.2351
  164SOPE  H17X18487   5.672   3.894   8.347  0.0710  0.4577  0.3391
  164SOPE  H17Y18488   5.500   3.905   8.343  1.3785  3.0977  0.3603
  164SOPE  C31818489   5.572   3.702   8.361  0.5296 -0.2113  0.1229
  164SOPE  H18X18490   5.491   3.653   8.419 -0.9102  2.4843  0.5489
  164SOPE  H18Y18491   5.664   3.640   8.372 -0.3410 -1.7341 -0.8959
  164SOPE  H18Z18492   5.540   3.689   8.256  0.3326  0.4776  0.0954
  165SOPE     N18493   3.218   4.233  10.844 -0.8166 -0.4151  0.3654
  165SOPE   HN118494   3.282   4.244  10.926 -0.1936 -2.6859  0.2401
  165SOPE   HN218495   3.143   4.306  10.845 -2.7276 -2.2888 -0.2409
  165SOPE   HN318496   3.169   4.144  10.864 -1.4528 -0.0424  0.4718
  165SOPE   C1218497   3.306   4.237  10.718 -0.3324  1.1495 -0.3697
  165SOPE  H12A18498   3.242   4.278  10.637 -0.2553  1.5194 -0.2462
  165SOPE  H12B18499   3.337   4.132  10.701 -1.0606  0.5726  1.5803
  165SOPE   C1118500   3.435   4.313  10.736 -0.2450 -0.8808 -0.2717
  165SOPE  H11A18501   3.427   4.423  10.749  0.4349 -1.1268  2.8262
  165SOPE  H11B18502   3.481   4.297  10.636 -0.4331 -3.8635  0.0388
  165SOPE     P18503   3.653   4.318  10.878  0.0858 -0.1968 -0.1722
  165SOPE   O1318504   3.743   4.206  10.919 -0.0224  0.0196  0.2348
  165SOPE   O1418505   3.638   4.428  10.974 -0.1190  0.2296 -0.2805
  165SOPE   O1218506   3.518   4.259  10.831  0.3941  0.0041  0.0311
  165SOPE   O1118507   3.723   4.387  10.750  0.3033  0.2170  0.0925
  165SOPE    C118508   3.815   4.320  10.670  0.1781  0.0880  0.1729
  165SOPE    HA18509   3.813   4.210  10.685 -1.4905 -0.0469 -0.7552
  165SOPE    HB18510   3.919   4.350  10.695 -0.1772  2.0390 -0.4395
  165SOPE    C218511   3.776   4.346  10.523  0.1048  0.9293  0.6640
  165SOPE    HS18512   3.877   4.362  10.479 -0.5209  0.6587 -0.9493
  165SOPE   O2118513   3.688   4.459  10.505  0.1107  0.1539 -0.3098
  165SOPE   C2118514   3.725   4.539  10.405  0.7919 -0.3245 -0.2898
  165SOPE   O2218515   3.823   4.529  10.341 -0.3369 -0.2094  1.0936
  165SOPE   C2218516   3.613   4.641  10.389  0.3655  0.0213  0.7296
  165SOPE   H2R18517   3.599   4.711  10.474  2.5013  0.2268  0.9529
  165SOPE   H2S18518   3.523   4.576  10.381  0.5275 -0.1270  0.1057
  165SOPE    C318519   3.718   4.222  10.452  0.2787  0.1068  0.2518
  165SOPE    HX18520   3.630   4.190  10.511 -0.0997  1.6271  0.5507
  165SOPE    HY18521   3.783   4.132  10.465 -0.4721 -0.7110 -1.4311
  165SOPE   O3118522   3.692   4.245  10.314  0.0674  0.1337  0.6430
  165SOPE   C3118523   3.794   4.218  10.231  0.0595  0.2054  0.1948
  165SOPE   O3218524   3.911   4.204  10.264 -1.0125 -0.0126 -0.5025
  165SOPE   C3218525   3.730   4.193  10.095  0.0880  0.1093  0.0241
  165SOPE   H2X18526   3.638   4.255  10.092  1.3844  2.1899  0.9251
  165SOPE   H2Y18527   3.701   4.086  10.084 -2.4206  0.8614 -1.4313
  165SOPE   C2318528   3.618   4.726  10.258 -0.1003  0.2919 -0.0585
  165SOPE   H3R18529   3.515   4.766  10.242 -1.1188 -2.4776 -1.1310
  165SOPE   H3S18530   3.626   4.669  10.163 -1.1510 -3.5247  1.9746
  165SOPE   C2418531   3.729   4.831  10.242  0.4626 -0.2568  0.0118
  165SOPE   H4R18532   3.749   4.883  10.338  2.4737 -0.7189 -0.1327
  165SOPE   H4S18533   3.827   4.784  10.223  0.9159 -0.2380  2.1061
  165SOPE   C2518534   3.687   4.942  10.136  0.0892  0.4142 -0.8604
  165SOPE   H5R18535   3.577   4.941  10.127  0.1817  0.0337 -2.0944
  165SOPE   H5S18536   3.706   5.034  10.196  3.4266  0.0342 -1.1436
  165SOPE   C2618537   3.750   4.930   9.999 -0.2300 -0.7328 -0.0646
  165SOPE   H6R18538   3.860   4.921  10.007 -0.2795 -2.4540 -0.9502
  165SOPE   H6S18539   3.710   4.837   9.956 -0.4254 -0.1786 -1.1081
  165SOPE   C2718540   3.724   5.037   9.894  0.3245  0.2206 -1.0756
  165SOPE   H7R18541   3.615   5.050   9.880 -0.3992 -3.3808 -0.0579
  165SOPE   H7S18542   3.757   5.132   9.941 -0.3659 -0.5367  1.0641
  165SOPE   C2818543   3.803   5.006   9.772  0.0499 -0.1241  0.0363
  165SOPE   H8R18544   3.904   4.974   9.802 -0.4129 -1.1062  0.5832
  165SOPE   H8S18545   3.764   4.921   9.713 -1.1011  1.4117 -1.5393
  165SOPE   C2918546   3.819   5.134   9.689 -0.1823  0.2149  0.5877
  165SOPE   H9118547   3.877   5.219   9.728  0.5596  0.4336 -0.9078
  165SOPE  C21018548   3.774   5.150   9.562 -0.6249 -0.4539  0.0676
  165SOPE  H10118549   3.786   5.248   9.512  0.8105 -2.1491 -3.2414
  165SOPE  C21118550   3.691   5.049   9.483  0.3868  0.1530  0.4923
  165SOPE  H11R18551   3.611   5.011   9.550  0.3977  2.2473  1.7686
  165SOPE  H11S18552   3.751   4.963   9.446 -2.7565 -2.2160  0.4728
  165SOPE  C21218553   3.615   5.096   9.358  0.0310  0.1868  0.4090
  165SOPE  H12R18554   3.541   5.170   9.395 -0.7917 -1.6581  2.6444
  165SOPE  H12S18555   3.566   5.002   9.323  2.0818 -0.7880  0.0010
  165SOPE  C21318556   3.707   5.146   9.237  0.3871 -0.3058  0.8758
  165SOPE  H13R18557   3.811   5.106   9.241  0.6532  0.2536 -0.1850
  165SOPE  H13S18558   3.724   5.251   9.271 -2.3124  0.6142 -0.3661
  165SOPE  C21418559   3.646   5.155   9.099  0.0436 -0.2517 -0.2211
  165SOPE  H14R18560   3.699   5.213   9.021  0.6212  0.5880  0.7772
  165SOPE  H14S18561   3.549   5.207   9.116  1.3526  2.5003 -0.6002
  165SOPE  C21518562   3.604   5.014   9.039  0.0849 -0.3776 -0.0947
  165SOPE  H15R18563   3.520   4.973   9.099 -3.3328  3.8866 -1.4402
  165SOPE  H15S18564   3.694   4.950   9.027 -0.3034 -0.8469 -0.5226
  165SOPE  C21618565   3.553   5.032   8.901  0.2318 -0.0491  0.8814
  165SOPE  H16R18566   3.641   5.038   8.833 -0.3182 -3.3767 -0.2873
  165SOPE  H16S18567   3.479   5.115   8.893  0.0712 -0.0082  2.5804
  165SOPE  C21718568   3.485   4.901   8.859  1.2426  0.0208 -0.2412
  165SOPE  H17R18569   3.418   4.870   8.942 -1.9110  1.6777 -1.9961
  165SOPE  H17S18570   3.566   4.825   8.851 -0.6107 -1.8367 -3.1247
  165SOPE  C21818571   3.402   4.914   8.728  0.5221  0.3289  0.5543
  165SOPE  H18R18572   3.353   4.820   8.695  1.6824  0.0154 -0.3485
  165SOPE  H18S18573   3.462   4.955   8.644  0.1820 -0.9058 -0.3137
  165SOPE  H18T18574   3.321   4.988   8.744  0.2716 -0.1599  1.6512
  165SOPE   C3318575   3.824   4.220   9.974 -0.7879  0.7784  0.5043
  165SOPE   H3X18576   3.925   4.176   9.988 -0.1810  1.3812 -1.5404
  165SOPE   H3Y18577   3.837   4.331   9.970  0.0945  0.6643 -0.1492
  165SOPE   C3418578   3.762   4.163   9.838  0.5771  0.0766  0.3540
  165SOPE   H4X18579   3.667   4.215   9.815  1.1177  0.6598 -0.6700
  165SOPE   H4Y18580   3.744   4.055   9.857  1.0866 -0.3041 -1.1149
  165SOPE   C3518581   3.850   4.177   9.717 -0.7311  0.0853 -0.4784
  165SOPE   H5X18582   3.938   4.109   9.716 -0.9491 -0.1958 -0.7247
  165SOPE   H5Y18583   3.875   4.285   9.721  2.3151 -0.5494  2.1371
  165SOPE   C3618584   3.772   4.155   9.590 -0.8420 -0.4246  0.6621
  165SOPE   H6X18585   3.691   4.230   9.572  0.4480  0.8425 -0.0711
  165SOPE   H6Y18586   3.724   4.055   9.597  0.0631 -0.7482  2.5824
  165SOPE   C3718587   3.873   4.143   9.470  0.3669  0.4721 -0.2141
  165SOPE   H7X18588   3.943   4.059   9.491  0.2865  1.0786  2.9959
  165SOPE   H7Y18589   3.934   4.236   9.468  2.2839 -0.7242 -0.3058
  165SOPE   C3818590   3.809   4.131   9.336  0.1955  0.4317  0.7128
  165SOPE   H8X18591   3.759   4.227   9.312 -3.7787 -1.0734  2.1418
  165SOPE   H8Y18592   3.732   4.051   9.330 -0.7243  1.3770 -0.7402
  165SOPE   C3918593   3.906   4.098   9.220 -0.0625  0.4209  0.8831
  165SOPE   H9X18594   3.969   4.007   9.231  1.3309  1.2550  0.0997
  165SOPE   H9Y18595   3.984   4.177   9.214  0.8879 -0.5320  0.1520
  165SOPE  C31018596   3.837   4.089   9.083 -0.1536 -0.2544 -0.2163
  165SOPE  H10X18597   3.759   4.169   9.082 -0.6889 -0.7689 -0.7721
  165SOPE  H10Y18598   3.781   3.994   9.072 -0.7787  0.1008 -0.1929
  165SOPE  C31118599   3.933   4.107   8.966 -0.7792  0.0686 -0.0600
  165SOPE  H11X18600   4.017   4.180   8.965  1.4430 -2.2779  1.2167
  165SOPE  H11Y18601   3.870   4.149   8.886  0.3641  1.2167 -0.4023
  165SOPE  C31218602   3.999   3.975   8.916 -0.2215  1.2109  0.1072
  165SOPE  H12X18603   3.931   3.887   8.915  1.3681 -0.0873 -1.2895
  165SOPE  H12Y18604   4.084   3.943   8.980 -0.2898 -1.8264 -1.1226
  165SOPE  C31318605   4.072   3.995   8.783  0.4640  0.4701 -0.1599
  165SOPE  H13X18606   4.175   4.037   8.788  1.0338 -0.9309  0.4439
  165SOPE  H13Y18607   4.020   4.074   8.725  0.2962 -1.3840 -2.6940
  165SOPE  C31418608   4.087   3.863   8.700 -0.2376  0.0606 -0.6295
  165SOPE  H14X18609   3.988   3.812   8.698 -1.3331  2.0613 -1.0937
  165SOPE  H14Y18610   4.157   3.793   8.750 -0.1711  1.7112  1.7716
  165SOPE  C31518611   4.115   3.886   8.551  0.0812 -0.7761 -0.1628
  165SOPE  H15X18612   4.218   3.927   8.552 -0.6457  1.3067  2.1034
  165SOPE  H15Y18613   4.044   3.963   8.514 -0.5426 -1.2737 -0.0228
  165SOPE  C31618614   4.110   3.756   8.474  0.1875 -0.5338  0.1601
  165SOPE  H16X18615   4.009   3.712   8.491 -1.1105  1.7389 -1.1593
  165SOPE  H16Y18616   4.188   3.688   8.513 -0.3514 -1.7303 -0.7768
  165SOPE  C31718617   4.132   3.790   8.323 -0.1473 -0.0906  0.1078
  165SOPE  H17X18618   4.040   3.831   8.277 -0.8516 -1.6068  0.1063
  165SOPE  H17Y18619   4.143   3.700   8.259 -0.2519  1.5655 -2.3475
  165SOPE  C31818620   4.256   3.884   8.299 -0.5781  0.0407  0.3855
  165SOPE  H18X18621   4.342   3.865   8.368 -1.1262  3.3074  2.1772
  165SOPE  H18Y18622   4.234   3.991   8.318  3.3204  1.1229 -0.1993
  165SOPE  H18Z18623   4.295   3.882   8.195  0.7214  0.9021  0.8163
  166SOPE     N18624   6.524   3.435  10.563  0.1537 -0.9026  0.0694
  166SOPE   HN118625   6.600   3.363  10.569  0.9825  0.0016  0.7331
  166SOPE   HN218626   6.469   3.447  10.651 -0.9717  0.2636 -0.7602
  166SOPE   HN318627   6.456   3.382  10.504 -1.4891  0.9565  0.2170
  166SOPE   C1218628   6.566   3.561  10.491  0.1441 -0.7635 -0.0098
  166SOPE  H12A18629   6.475   3.621  10.472  0.2050 -0.4223  0.7615
  166SOPE  H12B18630   6.608   3.530  10.392 -0.9921 -1.2900 -0.3442
  166SOPE   C1118631   6.665   3.640  10.579 -0.9470  0.7483 -0.5736
  166SOPE  H11A18632   6.690   3.736  10.530  0.9840 -1.3529 -4.1286
  166SOPE  H11B18633   6.760   3.583  10.589 -1.3241  0.0201 -1.0167
  166SOPE     P18634   6.715   3.736  10.811  0.0169 -0.0761  0.0197
  166SOPE   O1318635   6.845   3.662  10.817 -0.2958 -0.5478 -0.1756
  166SOPE   O1418636   6.654   3.744  10.946 -0.1479 -0.0955  1.0704
  166SOPE   O1218637   6.614   3.657  10.710  0.1084  0.0323  0.5248
  166SOPE   O1118638   6.739   3.886  10.753  0.0403  0.4598 -0.7532
  166SOPE    C118639   6.623   3.979  10.759 -1.5356  0.3385 -0.2064
  166SOPE    HA18640   6.637   4.050  10.843 -0.6636  0.0132 -0.0732
  166SOPE    HB18641   6.524   3.929  10.766 -1.6920  0.4416 -1.3681
  166SOPE    C218642   6.615   4.062  10.626 -0.8991  0.1570 -0.1417
  166SOPE    HS18643   6.515   4.110  10.632 -0.9594  0.9114 -4.2120
  166SOPE   O2118644   6.631   3.988  10.506 -0.0959  0.0363  0.2633
  166SOPE   C2118645   6.573   4.040  10.391  0.5605 -0.9117 -0.1514
  166SOPE   O2218646   6.508   4.145  10.392  0.7786  0.6459 -0.5449
  166SOPE   C2218647   6.592   3.949  10.269 -0.9104 -0.3662  0.7173
  166SOPE   H2R18648   6.533   3.858  10.293  2.3945 -2.9265 -0.1239
  166SOPE   H2S18649   6.697   3.915  10.260 -0.2761  1.5465  0.4197
  166SOPE    C318650   6.739   4.166  10.624  0.4920 -0.4140  0.0810
  166SOPE    HX18651   6.810   4.088  10.590 -1.0789 -2.4898  1.2645
  166SOPE    HY18652   6.756   4.192  10.730 -0.3020 -0.2158  0.1684
  166SOPE   O3118653   6.716   4.276  10.535 -0.4874  0.1801  0.2744
  166SOPE   C3118654   6.813   4.305  10.451  0.9627  0.1880  0.4711
  166SOPE   O3218655   6.911   4.239  10.422  0.0333 -0.2537  0.3178
  166SOPE   C3218656   6.772   4.443  10.383 -1.1293 -0.5210 -0.7929
  166SOPE   H2X18657   6.868   4.499  10.379  0.2000 -1.9325  4.2166
  166SOPE   H2Y18658   6.703   4.496  10.453 -2.9217 -0.9428 -2.1439
  166SOPE   C2318659   6.536   3.997  10.135 -0.2748  0.7956 -1.0357
  166SOPE   H3R18660   6.439   4.050  10.140 -0.3310  0.6193 -0.2938
  166SOPE   H3S18661   6.522   3.907  10.072  0.9157 -1.3662  1.6030
  166SOPE   C2418662   6.639   4.077  10.060  0.0325 -0.4902  0.0463
  166SOPE   H4R18663   6.663   4.169  10.116  1.0707 -2.4107  3.0339
  166SOPE   H4S18664   6.730   4.012  10.058  0.1445 -0.6156  3.2686
  166SOPE   C2518665   6.603   4.098   9.912 -0.0266 -0.7928 -0.1297
  166SOPE   H5R18666   6.607   3.995   9.870  1.4912 -1.0718  0.6250
  166SOPE   H5S18667   6.497   4.131   9.905 -0.0017  0.3811  3.3431
  166SOPE   C2618668   6.683   4.207   9.839  0.3754 -0.5450 -0.6183
  166SOPE   H6R18669   6.664   4.296   9.902  0.3462 -0.5276 -0.6513
  166SOPE   H6S18670   6.789   4.176   9.852  0.0610 -1.8651 -0.9745
  166SOPE   C2718671   6.640   4.228   9.690 -0.5358  0.6223  0.3189
  166SOPE   H7R18672   6.647   4.126   9.647  1.6378  0.7140  0.3863
  166SOPE   H7S18673   6.535   4.264   9.678 -1.4579 -1.7330  0.7139
  166SOPE   C2818674   6.727   4.331   9.613 -0.4972 -0.1530  0.0783
  166SOPE   H8R18675   6.831   4.306   9.644 -0.9189 -0.9425  0.9200
  166SOPE   H8S18676   6.728   4.300   9.507  0.1320  0.7609 -0.1994
  166SOPE   C2918677   6.698   4.482   9.640 -0.0766 -0.3164 -0.1978
  166SOPE   H9118678   6.736   4.513   9.738  0.9315  0.5500 -0.8423
  166SOPE  C21018679   6.662   4.573   9.554 -0.3680 -0.4958 -0.2360
  166SOPE  H10118680   6.660   4.677   9.590  0.5021  0.0048 -1.5784
  166SOPE  C21118681   6.636   4.547   9.404 -0.0203 -0.0116 -0.2193
  166SOPE  H11R18682   6.695   4.462   9.363 -1.4218 -0.9686 -0.3323
  166SOPE  H11S18683   6.667   4.640   9.352  0.2436 -0.0107 -0.0628
  166SOPE  C21218684   6.496   4.511   9.364  0.2841 -0.2500  0.1438
  166SOPE  H12R18685   6.424   4.593   9.385  0.3079  0.0710 -0.9319
  166SOPE  H12S18686   6.464   4.425   9.427  3.4279 -1.1539  0.6611
  166SOPE  C21318687   6.485   4.451   9.217 -0.0035  0.1002 -0.1384
  166SOPE  H13R18688   6.386   4.401   9.214 -0.4580  0.9315  0.4550
  166SOPE  H13S18689   6.555   4.368   9.196 -2.6476 -2.1793 -0.4651
  166SOPE  C21418690   6.487   4.548   9.096 -0.7015  0.0369  0.1603
  166SOPE  H14R18691   6.574   4.617   9.098 -0.6194 -0.0492 -0.3417
  166SOPE  H14S18692   6.403   4.619   9.112  1.5866  3.4397 -1.8373
  166SOPE  C21518693   6.486   4.487   8.952  0.0741 -0.0169  0.3860
  166SOPE  H15R18694   6.385   4.452   8.920  0.3932  0.9641 -1.9448
  166SOPE  H15S18695   6.545   4.394   8.965 -0.4957 -0.1789  1.9714
  166SOPE  C21618696   6.541   4.573   8.837  0.0242  0.1517 -0.0809
  166SOPE  H16R18697   6.552   4.511   8.746 -0.2265  0.0258 -0.0260
  166SOPE  H16S18698   6.638   4.619   8.866  0.2898 -0.4530  0.0126
  166SOPE  C21718699   6.439   4.684   8.797  0.1164  0.0836 -0.3734
  166SOPE  H17R18700   6.417   4.750   8.882  0.5338 -0.9483  0.5645
  166SOPE  H17S18701   6.345   4.631   8.771 -0.0649 -0.9451  2.1661
  166SOPE  C21818702   6.487   4.773   8.685  0.4667  0.2835 -0.2484
  166SOPE  H18R18703   6.562   4.838   8.735  0.6822 -0.9474  1.0865
  166SOPE  H18S18704   6.397   4.828   8.651  0.2566 -1.5649 -2.9597
  166SOPE  H18T18705   6.527   4.714   8.600 -0.5414  1.1462 -1.3498
  166SOPE   C3318706   6.709   4.422  10.242 -0.6731  0.5046 -0.4829
  166SOPE   H3X18707   6.623   4.352  10.237  0.8790 -1.5252 -0.4455
  166SOPE   H3Y18708   6.787   4.362  10.190 -0.9610  0.2511 -0.6280
  166SOPE   C3418709   6.688   4.544  10.154 -0.4369  0.6907 -1.2712
  166SOPE   H4X18710   6.606   4.609  10.193  0.9726  1.6596  0.2399
  166SOPE   H4Y18711   6.638   4.505  10.063 -3.2970  3.5744 -1.1563
  166SOPE   C3518712   6.807   4.637  10.123  0.0582  0.3897 -0.2237
  166SOPE   H5X18713   6.888   4.562  10.113  0.5583  0.5360  2.1848
  166SOPE   H5Y18714   6.834   4.714  10.198  0.7276  1.2045 -1.2726
  166SOPE   C3618715   6.790   4.709   9.986  0.1231  0.6623  0.2459
  166SOPE   H6X18716   6.729   4.802   9.988 -0.4737  0.3022 -0.7694
  166SOPE   H6Y18717   6.737   4.649   9.909 -0.0891 -0.4301  1.2145
  166SOPE   C3718718   6.929   4.752   9.927 -0.0664  0.0351  0.6316
  166SOPE   H7X18719   6.998   4.665   9.940  1.7041  1.5441  1.9664
  166SOPE   H7Y18720   6.980   4.821   9.998 -0.3991  1.2356 -0.2716
  166SOPE   C3818721   6.927   4.800   9.784 -0.5932  0.0996  0.1672
  166SOPE   H8X18722   6.868   4.734   9.717 -0.8493 -1.0211  1.4443
  166SOPE   H8Y18723   7.030   4.805   9.743 -0.3337 -3.2489  0.1144
  166SOPE   C3918724   6.864   4.937   9.762 -0.5180  0.4666  0.1559
  166SOPE   H9X18725   6.893   4.992   9.854 -0.8690  2.1382 -0.6983
  166SOPE   H9Y18726   6.754   4.935   9.772 -0.5538 -0.6323 -0.2485
  166SOPE  C31018727   6.913   5.005   9.636  0.3329 -0.0899 -0.0007
  166SOPE  H10X18728   7.023   4.994   9.623  0.1807 -1.9160 -0.0845
  166SOPE  H10Y18729   6.886   5.112   9.651  0.9934 -0.1338  1.7266
  166SOPE  C31118730   6.856   4.961   9.497  0.3336 -0.2857 -0.0285
  166SOPE  H11X18731   6.750   4.931   9.513  0.2674 -0.4801 -0.7949
  166SOPE  H11Y18732   6.911   4.871   9.463 -1.2178 -2.6573  3.1511
  166SOPE  C31218733   6.858   5.087   9.407 -0.2814  0.6583 -0.1019
  166SOPE  H12X18734   6.954   5.136   9.434 -0.3102 -0.8868  3.4941
  166SOPE  H12Y18735   6.766   5.140   9.440 -1.0842 -0.4314 -0.5172
  166SOPE  C31318736   6.857   5.058   9.256  0.1966 -0.0668  0.1482
  166SOPE  H13X18737   6.962   5.085   9.232  0.0736  0.6032  0.3434
  166SOPE  H13Y18738   6.795   5.133   9.203  3.5749  1.8833 -1.3508
  166SOPE  C31418739   6.810   4.915   9.210 -0.3399 -0.1128 -0.3274
  166SOPE  H14X18740   6.704   4.905   9.241 -0.5115 -1.8997 -1.3601
  166SOPE  H14Y18741   6.866   4.837   9.266  0.3995 -0.7760 -1.9248
  166SOPE  C31518742   6.811   4.887   9.060 -0.7960 -0.1042  0.6253
  166SOPE  H15X18743   6.754   4.959   8.998 -1.2560 -0.8714  0.1379
  166SOPE  H15Y18744   6.759   4.789   9.051  1.7934 -1.4909 -0.1417
  166SOPE  C31618745   6.952   4.876   8.989  0.5650  0.3783 -0.9973
  166SOPE  H16X18746   7.009   4.812   9.060 -1.6887 -1.4556 -0.7285
  166SOPE  H16Y18747   7.001   4.976   8.982  0.0531  0.8685  1.5056
  166SOPE  C31718748   6.941   4.808   8.855 -0.4252  0.0344  0.0659
  166SOPE  H17X18749   6.878   4.717   8.866 -0.3250 -0.3020 -1.8681
  166SOPE  H17Y18750   7.042   4.771   8.824 -0.6338 -0.4377 -0.0568
  166SOPE  C31818751   6.880   4.889   8.738  0.3853 -0.7138  0.5763
  166SOPE  H18X18752   6.923   4.992   8.733  1.4158 -1.1684 -0.5475
  166SOPE  H18Y18753   6.770   4.900   8.751  0.5108  1.7408  0.0432
  166SOPE  H18Z18754   6.907   4.858   8.635 -1.6205  0.3402 -0.3103
  167SOPE     N18755   1.592   2.555   6.021  0.0054 -0.2681  0.2966
  167SOPE   HN118756   1.559   2.560   6.120 -3.5161 -0.0120 -0.7840
  167SOPE   HN218757   1.658   2.632   6.001 -0.6432  0.3396  0.4729
  167SOPE   HN318758   1.511   2.559   5.958 -1.4903  1.5306  2.1865
  167SOPE   C1218759   1.657   2.420   6.005 -0.0710  0.2155  0.2774
  167SOPE  H12A18760   1.734   2.417   6.086 -0.1056 -0.8366  0.2927
  167SOPE  H12B18761   1.698   2.397   5.905 -0.6474 -1.7969  0.4570
  167SOPE   C1118762   1.559   2.304   6.040  0.0395  0.1850  0.5630
  167SOPE  H11A18763   1.460   2.327   5.995  0.0468  2.7449  1.7112
  167SOPE  H11B18764   1.539   2.313   6.149 -1.7978 -0.1377  0.2915
  167SOPE     P18765   1.727   2.105   6.109 -0.3585  0.3952 -0.1306
  167SOPE   O1318766   1.855   2.126   6.046 -0.1457 -0.7755 -0.2964
  167SOPE   O1418767   1.679   1.965   6.131  0.0522 -0.3227 -0.3741
  167SOPE   O1218768   1.617   2.175   6.015 -0.3974  0.0197  0.3522
  167SOPE   O1118769   1.728   2.185   6.239 -0.5505 -0.6455  0.3081
  167SOPE    C118770   1.774   2.145   6.364 -0.1935 -0.3949  1.0414
  167SOPE    HA18771   1.876   2.101   6.353 -0.5838 -0.9732 -0.4834
  167SOPE    HB18772   1.704   2.067   6.401  0.8583 -1.7820  0.1853
  167SOPE    C218773   1.772   2.263   6.465 -0.3493 -0.6797 -0.6529
  167SOPE    HS18774   1.666   2.295   6.476 -0.3077 -0.5138 -0.7336
  167SOPE   O2118775   1.865   2.368   6.428  0.0051 -0.4556 -0.0279
  167SOPE   C2118776   1.824   2.487   6.465 -0.2242  0.3660  0.9485
  167SOPE   O2218777   1.723   2.522   6.522  0.0507  0.1321  0.2484
  167SOPE   C2218778   1.920   2.588   6.398 -0.2744 -0.4287 -0.1332
  167SOPE   H2R18779   1.854   2.660   6.346 -0.7416  0.1909  1.2477
  167SOPE   H2S18780   1.994   2.544   6.329  0.3411 -2.1535  1.5208
  167SOPE    C318781   1.807   2.217   6.613 -0.2847 -0.6331 -0.7244
  167SOPE    HX18782   1.808   2.310   6.674  0.9861 -0.1545 -1.4148
  167SOPE    HY18783   1.913   2.185   6.603 -0.0147  0.6375 -2.5139
  167SOPE   O3118784   1.711   2.126   6.670 -0.4742 -0.7183 -0.5098
  167SOPE   C3118785   1.747   2.003   6.689  0.6121  0.0127 -0.3567
  167SOPE   O3218786   1.865   1.967   6.677  0.4969  0.5297  0.3743
  167SOPE   C3218787   1.629   1.911   6.727 -0.1073  0.3463  0.0551
  167SOPE   H2X18788   1.582   1.868   6.636  0.6287  1.0721 -0.6745
  167SOPE   H2Y18789   1.553   1.971   6.781  0.2180  1.2131 -0.4338
  167SOPE   C2318790   1.996   2.670   6.508 -0.1695  0.5516  0.3130
  167SOPE   H3R18791   1.921   2.737   6.555  0.1584  0.6776  0.6621
  167SOPE   H3S18792   2.075   2.735   6.463 -1.4436  2.9181  1.3291
  167SOPE   C2418793   2.073   2.597   6.623  0.8984  0.7454 -0.3347
  167SOPE   H4R18794   2.115   2.670   6.695 -0.5632  2.5380 -1.2064
  167SOPE   H4S18795   2.015   2.522   6.680  1.8937  0.4324  0.2806
  167SOPE   C2518796   2.189   2.524   6.563 -0.3737 -0.1791  1.1377
  167SOPE   H5R18797   2.166   2.471   6.468  1.0284 -0.6628  1.0467
  167SOPE   H5S18798   2.273   2.590   6.536 -0.3082 -0.8038 -0.3301
  167SOPE   C2618799   2.244   2.415   6.664  0.2975  0.4250 -0.1031
  167SOPE   H6R18800   2.281   2.458   6.759  1.2449 -3.6379  1.5825
  167SOPE   H6S18801   2.154   2.352   6.684  0.4807 -0.3339 -1.5394
  167SOPE   C2718802   2.359   2.327   6.618 -0.7017  0.6989 -1.0882
  167SOPE   H7R18803   2.339   2.286   6.517  1.2005 -1.9166 -0.5166
  167SOPE   H7S18804   2.448   2.392   6.609  0.2712 -0.6413 -1.5520
  167SOPE   C2818805   2.402   2.217   6.716  0.3328  0.2086  0.1363
  167SOPE   H8R18806   2.500   2.185   6.675  0.9518  2.3754 -0.1903
  167SOPE   H8S18807   2.418   2.267   6.814  1.2254 -0.9946  0.6262
  167SOPE   C2918808   2.297   2.102   6.720 -0.7404 -0.1260  0.1501
  167SOPE   H9118809   2.264   2.071   6.620 -3.1130  1.9192  0.2196
  167SOPE  C21018810   2.224   2.062   6.818 -0.0457  0.0867 -0.8858
  167SOPE  H10118811   2.150   1.982   6.805  0.6073 -1.1556  2.2406
  167SOPE  C21118812   2.222   2.115   6.959 -0.7778  0.6469 -0.3857
  167SOPE  H11R18813   2.218   2.226   6.967 -2.1053  0.4892  2.0133
  167SOPE  H11S18814   2.311   2.079   7.015 -1.0293  1.4136  0.5290
  167SOPE  C21218815   2.091   2.070   7.028 -0.9638  0.1145  0.1356
  167SOPE  H12R18816   2.088   1.959   7.040 -0.4258  0.2528  1.6779
  167SOPE  H12S18817   2.011   2.099   6.958  0.5259 -1.3196 -2.3462
  167SOPE  C21318818   2.082   2.130   7.162  0.2519  0.2722  0.1394
  167SOPE  H13R18819   2.077   2.239   7.140  1.6720  0.1308 -0.9893
  167SOPE  H13S18820   2.173   2.110   7.222  0.7429  0.6937 -0.4585
  167SOPE  C21418821   1.962   2.074   7.237  0.3314 -0.6987 -0.5777
  167SOPE  H14R18822   1.951   1.964   7.247 -0.0740 -0.6682 -0.6889
  167SOPE  H14S18823   1.877   2.107   7.174  0.9803 -1.2301 -1.7593
  167SOPE  C21518824   1.941   2.125   7.380 -0.3010 -0.5108 -0.2537
  167SOPE  H15R18825   1.845   2.083   7.416 -0.2769 -0.4162 -0.0787
  167SOPE  H15S18826   1.920   2.235   7.379 -0.7773 -0.5673  1.1685
  167SOPE  C21618827   2.049   2.080   7.487  0.0577  0.3321 -0.9876
  167SOPE  H16R18828   2.151   2.115   7.460 -0.7078  2.8357 -0.8946
  167SOPE  H16S18829   2.056   1.969   7.493 -2.9756  0.1350  1.0106
  167SOPE  C21718830   2.022   2.135   7.627 -1.0647  1.0850  0.0058
  167SOPE  H17R18831   1.914   2.125   7.650 -1.4283 -0.3864 -2.0906
  167SOPE  H17S18832   2.036   2.245   7.631  0.5000  1.0468 -2.4644
  167SOPE  C21818833   2.112   2.076   7.733 -0.2134 -0.1745 -0.4061
  167SOPE  H18R18834   2.083   2.098   7.838  0.0324 -0.0020 -0.3712
  167SOPE  H18S18835   2.213   2.119   7.714 -0.4230  0.4088 -0.2056
  167SOPE  H18T18836   2.115   1.965   7.738 -0.8639 -0.1312  2.8059
  167SOPE   C3318837   1.670   1.791   6.816 -0.0164  0.1758  0.6718
  167SOPE   H3X18838   1.754   1.734   6.771 -1.7873 -1.2170 -1.0216
  167SOPE   H3Y18839   1.585   1.720   6.806  0.1827 -0.8450  4.4889
  167SOPE   C3418840   1.683   1.817   6.967  0.4481 -0.2326 -0.1801
  167SOPE   H4X18841   1.605   1.886   7.005  0.0340 -0.2787 -0.9160
  167SOPE   H4Y18842   1.774   1.880   6.967  1.2624 -1.3132 -1.8369
  167SOPE   C3518843   1.693   1.693   7.055 -0.1876 -0.2427  0.6094
  167SOPE   H5X18844   1.773   1.638   7.000 -0.0441  1.7471 -1.2944
  167SOPE   H5Y18845   1.610   1.619   7.048  0.9385 -1.5617  0.5846
  167SOPE   C3618846   1.742   1.725   7.195 -0.1439  0.4143  0.1084
  167SOPE   H6X18847   1.829   1.795   7.196  0.5384 -0.3768 -0.9271
  167SOPE   H6Y18848   1.787   1.630   7.231 -3.0857 -1.5910 -1.1960
  167SOPE   C3718849   1.631   1.774   7.294 -0.0672 -1.0874  0.6678
  167SOPE   H7X18850   1.546   1.703   7.286  1.1902 -2.4348 -2.3480
  167SOPE   H7Y18851   1.605   1.877   7.262  1.6612 -0.5524  0.8731
  167SOPE   C3818852   1.676   1.772   7.439 -0.0767  0.5479  0.1905
  167SOPE   H8X18853   1.763   1.836   7.464 -1.4785  2.4048  0.5690
  167SOPE   H8Y18854   1.709   1.668   7.462 -2.3491 -0.5997 -1.3237
  167SOPE   C3918855   1.575   1.820   7.536 -0.4528 -0.1267  0.3313
  167SOPE   H9X18856   1.511   1.742   7.583 -1.2745  1.4409  1.9287
  167SOPE   H9Y18857   1.526   1.897   7.472 -0.2690 -1.4609 -1.5129
  167SOPE  C31018858   1.646   1.894   7.656  0.1356 -0.3177 -0.0291
  167SOPE  H10X18859   1.568   1.916   7.732 -0.0727  1.6530 -0.7647
  167SOPE  H10Y18860   1.680   1.992   7.615  1.1070 -1.5988 -2.5310
  167SOPE  C31118861   1.746   1.806   7.727  0.0183 -0.9726 -0.2050
  167SOPE  H11X18862   1.840   1.821   7.670 -1.1174  3.0517 -1.3664
  167SOPE  H11Y18863   1.715   1.701   7.709 -1.4916 -0.7311  0.8079
  167SOPE  C31218864   1.769   1.843   7.874  0.2904  0.1984 -0.2578
  167SOPE  H12X18865   1.677   1.834   7.937 -0.2095 -1.2941 -1.1592
  167SOPE  H12Y18866   1.807   1.947   7.882 -0.3354  0.5220 -1.3039
  167SOPE  C31318867   1.864   1.739   7.936  0.0711  0.5509 -0.2574
  167SOPE  H13X18868   1.955   1.720   7.874  0.3372 -3.5246  1.0856
  167SOPE  H13Y18869   1.822   1.636   7.940 -0.0397  0.6013 -0.1385
  167SOPE  C31418870   1.926   1.789   8.069  0.5098  0.4842  0.8643
  167SOPE  H14X18871   1.979   1.704   8.117 -0.8099 -1.3711 -0.8003
  167SOPE  H14Y18872   1.846   1.818   8.140  0.5930 -0.7974  1.5174
  167SOPE  C31518873   2.035   1.895   8.041 -0.0053 -0.3292 -0.0320
  167SOPE  H15X18874   1.997   1.983   7.986  1.0654 -0.8574 -1.6895
  167SOPE  H15Y18875   2.119   1.861   7.977 -0.4407 -1.0453 -0.2531
  167SOPE  C31618876   2.096   1.923   8.181  0.1235 -0.0173 -0.5899
  167SOPE  H16X18877   2.161   1.836   8.207  0.2304 -0.2761 -1.6638
  167SOPE  H16Y18878   2.012   1.920   8.252 -1.3028  0.2726 -2.2057
  167SOPE  C31718879   2.211   2.029   8.183  0.5210 -0.0047  0.0334
  167SOPE  H17X18880   2.165   2.125   8.152 -1.7555 -1.7131 -2.3537
  167SOPE  H17Y18881   2.273   2.000   8.095  0.0399 -0.1115 -0.2803
  167SOPE  C31818882   2.293   2.028   8.318 -0.2971 -0.2218  0.2688
  167SOPE  H18X18883   2.373   2.104   8.312 -0.9687  0.3776 -2.6241
  167SOPE  H18Y18884   2.329   1.926   8.345  2.9405  0.2687 -1.6347
  167SOPE  H18Z18885   2.221   2.066   8.394 -0.3841  0.7518 -0.2904
  168SOPE     N18886   6.447   5.264   6.414 -0.0065  0.1821  0.2862
  168SOPE   HN118887   6.404   5.170   6.418  0.5006 -0.0299  3.2411
  168SOPE   HN218888   6.459   5.286   6.313  2.4647  2.0567  0.8820
  168SOPE   HN318889   6.540   5.255   6.460 -0.6070 -0.6703  1.3848
  168SOPE   C1218890   6.360   5.367   6.488 -0.1753 -0.1456 -0.5844
  168SOPE  H12A18891   6.396   5.362   6.593  0.3467 -0.6746 -0.7761
  168SOPE  H12B18892   6.256   5.329   6.495 -0.1438  0.0839  2.0826
  168SOPE   C1118893   6.380   5.514   6.452 -0.0530 -0.7212 -0.4078
  168SOPE  H11A18894   6.289   5.561   6.496  1.0253  0.1092  1.0211
  168SOPE  H11B18895   6.386   5.517   6.341  1.2994 -0.8420 -0.3485
  168SOPE     P18896   6.515   5.672   6.613 -0.0112 -0.0517  0.5334
  168SOPE   O1318897   6.416   5.638   6.719  0.1756 -0.5229 -0.2346
  168SOPE   O1418898   6.486   5.796   6.530  0.4822  0.3303  0.3462
  168SOPE   O1218899   6.507   5.554   6.503 -0.1130 -0.5773 -0.2630
  168SOPE   O1118900   6.662   5.673   6.656 -0.3393 -0.3995 -0.0786
  168SOPE    C118901   6.732   5.565   6.709 -0.2197 -0.5277  0.1726
  168SOPE    HA18902   6.835   5.596   6.737  0.4691 -1.9649 -0.6375
  168SOPE    HB18903   6.744   5.488   6.630  1.3434 -0.1617  0.0326
  168SOPE    C218904   6.657   5.488   6.827  0.2185  0.3414  0.4029
  168SOPE    HS18905   6.568   5.446   6.776  0.4240  1.6115 -1.0832
  168SOPE   O2118906   6.613   5.586   6.930 -0.0738  0.5870 -0.0794
  168SOPE   C2118907   6.510   5.538   6.999  0.3126  0.1401  0.3345
  168SOPE   O2218908   6.451   5.433   6.960  0.3356 -0.3121  0.4193
  168SOPE   C2218909   6.472   5.627   7.112  0.6437  0.4141 -0.1652
  168SOPE   H2R18910   6.422   5.719   7.074  1.9183  0.5361 -1.6071
  168SOPE   H2S18911   6.551   5.668   7.179 -0.9227  2.7274  0.4005
  168SOPE    C318912   6.737   5.368   6.881 -0.0887  0.8296 -0.1940
  168SOPE    HX18913   6.752   5.293   6.801  0.3714  2.9447 -2.1990
  168SOPE    HY18914   6.674   5.308   6.951  2.3411 -1.4398  0.2082
  168SOPE   O3118915   6.864   5.394   6.937 -0.0892 -0.3350 -0.0673
  168SOPE   C3118916   6.858   5.431   7.067 -0.7320 -0.2401  0.0138
  168SOPE   O3218917   6.761   5.429   7.136  0.2968  0.0904 -0.0168
  168SOPE   C3218918   6.996   5.490   7.112 -0.4990 -0.1336 -0.2242
  168SOPE   H2X18919   7.054   5.497   7.017 -1.3822 -3.3899 -1.1698
  168SOPE   H2Y18920   7.048   5.411   7.170  0.9030 -0.5910 -2.0227
  168SOPE   C2318921   6.371   5.563   7.215 -0.7311  0.8253  0.2170
  168SOPE   H3R18922   6.414   5.465   7.243  2.9139  1.4167 -2.4855
  168SOPE   H3S18923   6.275   5.548   7.160 -1.5770  1.8836  1.3275
  168SOPE   C2418924   6.353   5.640   7.344  0.4299 -0.3178 -0.3595
  168SOPE   H4R18925   6.454   5.653   7.388 -0.6970  2.1249  1.7656
  168SOPE   H4S18926   6.309   5.739   7.320 -0.3781 -0.4155  0.6374
  168SOPE   C2518927   6.278   5.558   7.445 -0.1382 -0.7018  0.1613
  168SOPE   H5R18928   6.171   5.537   7.420  0.2088 -0.7860 -1.3489
  168SOPE   H5S18929   6.316   5.454   7.443  1.9920  0.0491 -0.4357
  168SOPE   C2618930   6.306   5.595   7.590 -0.3834  0.3030 -0.1561
  168SOPE   H6R18931   6.415   5.577   7.603 -0.4202 -1.2238 -1.6581
  168SOPE   H6S18932   6.290   5.701   7.619  1.6903  0.4471  0.6093
  168SOPE   C2718933   6.221   5.506   7.687  0.8084  0.3427 -0.0844
  168SOPE   H7R18934   6.115   5.539   7.683 -0.2494 -2.5320  1.4827
  168SOPE   H7S18935   6.226   5.404   7.644 -1.2361 -0.0534  0.5062
  168SOPE   C2818936   6.257   5.518   7.830  0.3429 -0.1817 -0.1387
  168SOPE   H8R18937   6.363   5.483   7.833  0.7284  1.0070  2.0150
  168SOPE   H8S18938   6.252   5.626   7.853 -1.1414 -0.3231  0.3013
  168SOPE   C2918939   6.183   5.427   7.923 -0.3486  0.1068  0.7508
  168SOPE   H9118940   6.164   5.324   7.889  2.0961 -0.1057 -0.1775
  168SOPE  C21018941   6.136   5.463   8.046  0.5316 -0.2661 -0.4497
  168SOPE  H10118942   6.099   5.384   8.113  3.0422 -0.8000  0.4065
  168SOPE  C21118943   6.146   5.605   8.103  0.0077  0.3031 -0.4562
  168SOPE  H11R18944   6.172   5.683   8.029  3.9678  0.2997  0.6909
  168SOPE  H11S18945   6.229   5.607   8.177 -0.7047  1.6669  0.3452
  168SOPE  C21218946   6.021   5.669   8.174  0.4791 -0.6132 -0.2409
  168SOPE  H12R18947   5.932   5.664   8.108 -1.0723  1.4098  1.5232
  168SOPE  H12S18948   6.043   5.776   8.193 -0.5096 -0.7817  2.2677
  168SOPE  C21318949   5.976   5.609   8.305 -0.2407  0.0689 -0.8278
  168SOPE  H13R18950   6.057   5.619   8.381 -0.1971  0.9140 -0.9712
  168SOPE  H13S18951   5.945   5.503   8.295 -0.4524  0.2425 -2.1131
  168SOPE  C21418952   5.856   5.686   8.361  0.9836 -0.5671  0.0176
  168SOPE  H14R18953   5.782   5.681   8.279  0.0207  0.4324  0.7948
  168SOPE  H14S18954   5.899   5.788   8.364 -0.1744 -0.0189 -1.1828
  168SOPE  C21518955   5.796   5.636   8.487 -0.5246  0.6265 -0.7119
  168SOPE  H15R18956   5.730   5.551   8.457 -1.3487  1.3640 -1.0301
  168SOPE  H15S18957   5.729   5.718   8.519 -0.2249  0.4947  0.2970
  168SOPE  C21618958   5.890   5.599   8.602 -0.1481  0.4683  0.0432
  168SOPE  H16R18959   5.946   5.689   8.635  1.2660 -0.2334 -0.4066
  168SOPE  H16S18960   5.957   5.518   8.567 -0.7590  0.3679 -0.9481
  168SOPE  C21718961   5.817   5.532   8.721  0.1378 -0.3827 -0.1755
  168SOPE  H17R18962   5.894   5.504   8.797 -1.0182  0.2245  1.2799
  168SOPE  H17S18963   5.762   5.441   8.691 -0.2667 -0.4614  0.7459
  168SOPE  C21818964   5.719   5.627   8.790 -0.3260  0.2369  0.4335
  168SOPE  H18R18965   5.767   5.727   8.801  0.0948  0.0219  0.5554
  168SOPE  H18S18966   5.710   5.576   8.888  1.1497 -2.2365 -0.6123
  168SOPE  H18T18967   5.624   5.630   8.731 -0.7325 -1.6069  0.9452
  168SOPE   C3318968   6.994   5.606   7.216  0.2578 -0.7441  0.1859
  168SOPE   H3X18969   6.949   5.700   7.179  0.5973  0.2538  2.1952
  168SOPE   H3Y18970   7.097   5.631   7.251  0.4381  0.1933 -0.9726
  168SOPE   C3418971   6.946   5.556   7.353  0.0901  0.5222  0.1910
  168SOPE   H4X18972   7.021   5.480   7.385  0.0671 -0.2243 -1.4040
  168SOPE   H4Y18973   6.854   5.495   7.345 -0.5103  1.4670 -0.3224
  168SOPE   C3518974   6.918   5.674   7.457  0.1086 -0.5731  0.3762
  168SOPE   H5X18975   6.814   5.707   7.435  0.2611  0.0514  0.5698
  168SOPE   H5Y18976   7.005   5.738   7.431  0.6091 -0.9071  1.1472
  168SOPE   C3618977   6.930   5.619   7.598  0.4112  0.1331  0.5946
  168SOPE   H6X18978   6.998   5.532   7.606  2.3377  1.6194  1.1392
  168SOPE   H6Y18979   6.828   5.581   7.624  0.0057  0.6816 -0.1617
  168SOPE   C3718980   6.962   5.734   7.697  0.7213  0.4663 -0.0088
  168SOPE   H7X18981   6.899   5.826   7.697 -0.9034 -0.5952  0.3813
  168SOPE   H7Y18982   7.066   5.766   7.674  0.0690  3.9376  1.2441
  168SOPE   C3818983   6.957   5.671   7.836 -0.3582 -0.1715 -0.1848
  168SOPE   H8X18984   7.029   5.587   7.823 -0.9288 -0.2266 -4.2350
  168SOPE   H8Y18985   6.859   5.632   7.871 -0.9279  1.9912  0.7748
  168SOPE   C3918986   7.005   5.769   7.946  0.8882  0.6402  0.0642
  168SOPE   H9X18987   6.948   5.865   7.948  2.6615  1.7992 -1.6597
  168SOPE   H9Y18988   7.108   5.807   7.930  0.6439  2.4271  2.1697
  168SOPE  C31018989   6.997   5.700   8.091  0.9870  0.5206  0.2878
  168SOPE  H10X18990   7.061   5.610   8.093 -0.1830 -0.3687  3.2372
  168SOPE  H10Y18991   6.890   5.669   8.097  0.8901  0.3364 -1.6888
  168SOPE  C31118992   7.032   5.791   8.214  0.4925  0.0761 -0.3437
  168SOPE  H11X18993   6.977   5.887   8.209 -0.1724 -0.2970 -0.2244
  168SOPE  H11Y18994   7.137   5.826   8.225  1.0648 -2.2483  3.3314
  168SOPE  C31218995   6.988   5.722   8.343  0.1685  0.1383 -0.2397
  168SOPE  H12X18996   7.024   5.617   8.339  1.9453  0.6016  2.0517
  168SOPE  H12Y18997   6.878   5.728   8.331 -0.0609 -0.3853  1.4441
  168SOPE  C31318998   7.020   5.786   8.477 -0.1921  0.1954 -1.2223
  168SOPE  H13X18999   6.967   5.884   8.486 -2.1924 -0.8807 -0.7183
  168SOPE  H13Y19000   7.130   5.791   8.495 -0.7111 -0.2321  3.2823
  168SOPE  C31419001   6.980   5.696   8.593 -0.4616  0.2937  0.3716
  168SOPE  H14X19002   7.028   5.595   8.590  1.0980  0.7747  4.1194
  168SOPE  H14Y19003   6.871   5.677   8.600 -0.9202  2.7665  0.7160
  168SOPE  C31519004   7.013   5.763   8.732 -0.6268 -0.1001  0.8098
  168SOPE  H15X19005   7.115   5.807   8.741 -1.2924  2.0155 -1.1034
  168SOPE  H15Y19006   6.998   5.681   8.805  0.3174 -0.6604  0.4078
  168SOPE  C31619007   6.906   5.872   8.767 -0.1312  0.0127  0.1056
  168SOPE  H16X19008   6.807   5.823   8.780  0.5094 -2.0129 -1.9368
  168SOPE  H16Y19009   6.904   5.943   8.682 -0.6992 -0.6185 -0.4224
  168SOPE  C31719010   6.958   5.959   8.884 -0.5093 -0.2804  0.1755
  168SOPE  H17X19011   7.066   5.971   8.860 -0.3053 -2.9189 -0.6101
  168SOPE  H17Y19012   6.952   5.909   8.984 -0.4570 -2.0865 -0.6756
  168SOPE  C31819013   6.881   6.096   8.889 -0.0622  0.7549 -0.4230
  168SOPE  H18X19014   6.930   6.147   8.975 -0.6623 -1.1593  1.1127
  168SOPE  H18Y19015   6.775   6.095   8.922 -0.1522  0.4628 -0.7135
  168SOPE  H18Z19016   6.899   6.150   8.794  0.4763  0.2321 -0.6214
  169SOPE     N19017   4.231   0.572   6.555 -0.0957  0.2330  0.0218
  169SOPE   HN119018   4.145   0.541   6.505 -0.0172  1.4571 -0.9063
  169SOPE   HN219019   4.290   0.488   6.576 -0.1245  0.3219  0.4646
  169SOPE   HN319020   4.203   0.627   6.638  1.1578  2.2217 -0.8012
  169SOPE   C1219021   4.306   0.660   6.462  0.1580  0.0665  0.7419
  169SOPE  H12A19022   4.376   0.725   6.519  1.4949  0.1644 -0.9262
  169SOPE  H12B19023   4.236   0.730   6.412  0.2804  1.7061  2.7282
  169SOPE   C1119024   4.395   0.592   6.345  0.9258 -0.0231 -0.6902
  169SOPE  H11A19025   4.442   0.662   6.272  0.8745 -0.2643 -0.9570
  169SOPE  H11B19026   4.319   0.544   6.280 -0.6833  0.7490  0.5435
  169SOPE     P19027   4.627   0.514   6.413 -0.1947 -0.1660  0.1410
  169SOPE   O1319028   4.691   0.540   6.281 -0.2085  0.5151  0.0438
  169SOPE   O1419029   4.660   0.399   6.504 -0.2021 -0.7923  0.2746
  169SOPE   O1219030   4.477   0.494   6.394 -0.2123  0.1055 -0.5849
  169SOPE   O1119031   4.612   0.653   6.489 -0.1217  0.4280  0.2171
  169SOPE    C119032   4.699   0.679   6.599  0.2837  0.0785  0.4872
  169SOPE    HA19033   4.759   0.769   6.573  0.2255 -0.2156 -0.6988
  169SOPE    HB19034   4.774   0.599   6.619  0.1146  0.1578  1.4979
  169SOPE    C219035   4.600   0.692   6.719  0.1418 -1.0243 -0.7106
  169SOPE    HS19036   4.492   0.698   6.695 -0.0937  1.5586  0.6886
  169SOPE   O2119037   4.632   0.810   6.798 -0.1333  0.7313 -0.0413
  169SOPE   C2119038   4.544   0.854   6.885  0.4806 -0.4604  0.0244
  169SOPE   O2219039   4.426   0.821   6.882 -0.6264  0.0795  0.1310
  169SOPE   C2219040   4.612   0.947   6.986  0.6174 -0.2425  0.0140
  169SOPE   H2R19041   4.625   1.050   6.946 -2.1715  0.9243  1.7881
  169SOPE   H2S19042   4.710   0.901   7.011  1.1040  2.3574  3.8345
  169SOPE    C319043   4.610   0.554   6.803 -0.2043 -0.1762  0.2755
  169SOPE    HX19044   4.719   0.551   6.824 -0.2617  0.5494  0.7229
  169SOPE    HY19045   4.586   0.470   6.735 -1.5866  1.3375 -1.2122
  169SOPE   O3119046   4.533   0.543   6.925  0.3364  0.6788 -0.9411
  169SOPE   C3119047   4.410   0.498   6.911  0.2802 -0.1368  0.1378
  169SOPE   O3219048   4.355   0.489   6.801 -0.7518 -0.6593  0.1010
  169SOPE   C3219049   4.355   0.447   7.048 -0.4950 -0.0549 -0.3600
  169SOPE   H2X19050   4.428   0.483   7.123 -2.9826 -2.7305  3.7187
  169SOPE   H2Y19051   4.346   0.337   7.040 -3.8609  0.0281  0.9138
  169SOPE   C2319052   4.528   0.966   7.109  0.5233 -0.6072 -1.1733
  169SOPE   H3R19053   4.432   1.015   7.078 -0.1971  0.5037  2.3871
  169SOPE   H3S19054   4.583   1.045   7.164  1.9584 -1.9458 -0.6199
  169SOPE   C2419055   4.509   0.841   7.194  0.3424  0.7370 -0.4746
  169SOPE   H4R19056   4.455   0.771   7.126 -1.9365 -0.4235  2.3273
  169SOPE   H4S19057   4.603   0.783   7.207 -0.2808 -1.3280 -3.8190
  169SOPE   C2519058   4.423   0.851   7.324 -0.3602  0.2865  1.0486
  169SOPE   H5R19059   4.321   0.875   7.286 -0.5797  0.2808  1.6289
  169SOPE   H5S19060   4.416   0.761   7.387  1.0752 -1.7275 -1.4761
  169SOPE   C2619061   4.469   0.963   7.419 -0.1815 -0.3026  0.7943
  169SOPE   H6R19062   4.579   0.959   7.432 -0.2204  0.4473  1.4284
  169SOPE   H6S19063   4.464   1.067   7.382 -0.6561 -0.3185  0.8042
  169SOPE   C2719064   4.406   0.958   7.557  0.2501 -0.1544 -0.3650
  169SOPE   H7R19065   4.298   0.975   7.537  0.3107  0.4075 -0.2188
  169SOPE   H7S19066   4.414   0.860   7.608  1.0135 -0.1656 -0.4848
  169SOPE   C2819067   4.463   1.056   7.654  0.2459 -0.5550 -0.7283
  169SOPE   H8R19068   4.438   1.157   7.615 -1.1195 -0.1030  1.2115
  169SOPE   H8S19069   4.396   1.039   7.740  0.1870 -1.4138 -0.9372
  169SOPE   C2919070   4.611   1.033   7.688  0.3045  0.3163  0.4531
  169SOPE   H9119071   4.634   0.927   7.710 -2.2916 -0.8849 -2.0021
  169SOPE  C21019072   4.702   1.125   7.677 -0.4198  0.6016 -0.0652
  169SOPE  H10119073   4.804   1.108   7.714 -0.4084  0.4526 -0.1645
  169SOPE  C21119074   4.689   1.268   7.641  0.0346  0.0817 -0.3693
  169SOPE  H11R19075   4.609   1.280   7.565 -0.4841  2.5340  0.4900
  169SOPE  H11S19076   4.782   1.302   7.590  1.2090  0.1290  1.7011
  169SOPE  C21219077   4.670   1.362   7.761  1.0081 -0.1338  0.1636
  169SOPE  H12R19078   4.758   1.345   7.827  1.7213  1.0624 -0.4536
  169SOPE  H12S19079   4.579   1.337   7.820 -0.2126  0.4939 -1.3710
  169SOPE  C21319080   4.668   1.511   7.723  0.0126  0.0820 -0.0255
  169SOPE  H13R19081   4.609   1.560   7.804 -1.2163 -0.3100 -0.6443
  169SOPE  H13S19082   4.601   1.511   7.634  2.1170 -0.5116 -1.6944
  169SOPE  C21419083   4.799   1.577   7.684  1.0941 -0.2377  0.1007
  169SOPE  H14R19084   4.782   1.670   7.626 -0.1391 -1.3014 -1.3430
  169SOPE  H14S19085   4.847   1.509   7.610 -2.6808 -0.3768 -2.5173
  169SOPE  C21519086   4.888   1.597   7.806 -0.3583 -0.2266 -0.0386
  169SOPE  H15R19087   4.899   1.503   7.863 -1.4891  0.9155  2.1766
  169SOPE  H15S19088   4.843   1.679   7.865 -0.5895  0.1110 -0.6689
  169SOPE  C21619089   5.029   1.641   7.758 -0.1740  0.5989 -0.4345
  169SOPE  H16R19090   5.025   1.736   7.701 -0.9936  0.5817 -0.4248
  169SOPE  H16S19091   5.060   1.556   7.692  4.0272  0.6312  1.2170
  169SOPE  C21719092   5.120   1.639   7.883 -0.2246  0.1658  0.0636
  169SOPE  H17R19093   5.228   1.635   7.854 -0.2232  1.1248 -0.1119
  169SOPE  H17S19094   5.111   1.541   7.935  0.4594 -0.1269 -0.3472
  169SOPE  C21819095   5.102   1.763   7.974  0.3280  0.0694 -0.6349
  169SOPE  H18R19096   5.114   1.855   7.913 -1.4876  0.3177 -0.6641
  169SOPE  H18S19097   5.183   1.771   8.049  0.1225  0.8229 -0.4841
  169SOPE  H18T19098   5.003   1.754   8.023  0.3159 -0.4444 -0.7419
  169SOPE   C3319099   4.215   0.500   7.091 -0.0800 -0.4433 -0.0523
  169SOPE   H3X19100   4.133   0.479   7.019 -1.3685  2.7976  0.2724
  169SOPE   H3Y19101   4.220   0.611   7.091 -0.0956 -0.4410  0.3926
  169SOPE   C3419102   4.184   0.444   7.226 -0.2612  0.3892  0.1196
  169SOPE   H4X19103   4.171   0.334   7.233 -0.7162  0.3382 -1.2883
  169SOPE   H4Y19104   4.085   0.485   7.257 -0.4099 -0.5193  0.8880
  169SOPE   C3519105   4.271   0.501   7.340 -0.0282  0.0615  0.2416
  169SOPE   H5X19106   4.263   0.612   7.345 -0.4661  0.0200  0.5155
  169SOPE   H5Y19107   4.376   0.476   7.316  0.0515  3.1155 -3.5217
  169SOPE   C3619108   4.207   0.460   7.474 -0.4696  0.3020  1.1918
  169SOPE   H6X19109   4.232   0.352   7.486  0.9473  0.5546  0.6697
  169SOPE   H6Y19110   4.096   0.463   7.466 -0.4299 -1.1458 -0.5888
  169SOPE   C3719111   4.253   0.540   7.589  0.0160 -0.0715 -0.2359
  169SOPE   H7X19112   4.210   0.640   7.565 -1.0710 -0.6528 -0.7866
  169SOPE   H7Y19113   4.364   0.537   7.583  0.1589  3.0076 -1.0559
  169SOPE   C3819114   4.196   0.482   7.720 -0.1736 -0.1758  1.5826
  169SOPE   H8X19115   4.229   0.552   7.800 -0.5612  0.8671  0.8567
  169SOPE   H8Y19116   4.086   0.495   7.724 -0.3191  0.1493 -1.4463
  169SOPE   C3919117   4.241   0.342   7.740 -0.2580  0.3550  0.3540
  169SOPE   H9X19118   4.346   0.328   7.707 -0.4087 -0.7681  0.3124
  169SOPE   H9Y19119   4.176   0.272   7.682  0.6429 -0.6901  0.5792
  169SOPE  C31019120   4.241   0.294   7.877 -0.2717  0.2034 -0.7494
  169SOPE  H10X19121   4.248   0.183   7.870 -1.1452  0.0413  0.5219
  169SOPE  H10Y19122   4.149   0.318   7.935 -0.4601 -0.0122 -0.9502
  169SOPE  C31119123   4.355   0.347   7.969 -0.8281  0.0523  0.5631
  169SOPE  H11X19124   4.373   0.456   7.966 -1.5869  0.2182  1.4752
  169SOPE  H11Y19125   4.446   0.296   7.931 -0.6563  1.2675 -0.7263
  169SOPE  C31219126   4.339   0.319   8.116  0.5164  0.4502 -0.5387
  169SOPE  H12X19127   4.266   0.379   8.175  0.8146  0.1249  0.1741
  169SOPE  H12Y19128   4.440   0.340   8.157  1.6725 -0.9776 -2.4604
  169SOPE  C31319129   4.325   0.172   8.155 -0.3664  0.4243 -0.5738
  169SOPE  H13X19130   4.403   0.106   8.110 -0.2601  0.3881 -0.3331
  169SOPE  H13Y19131   4.231   0.119   8.126  0.3846 -1.5988  0.4885
  169SOPE  C31419132   4.346   0.157   8.299  0.2138  0.5804  0.2336
  169SOPE  H14X19133   4.449   0.189   8.324  0.6092  0.6390 -1.3423
  169SOPE  H14Y19134   4.373   0.054   8.330  0.4927  1.0787  1.7453
  169SOPE  C31519135   4.234   0.204   8.389  0.0627  0.3489  0.7180
  169SOPE  H15X19136   4.145   0.145   8.360  0.2193  0.0034  0.9272
  169SOPE  H15Y19137   4.222   0.312   8.365 -0.2578 -0.0050 -0.7762
  169SOPE  C31619138   4.265   0.181   8.537 -0.1617  0.3282  0.3748
  169SOPE  H16X19139   4.354   0.236   8.576 -0.0826 -1.3182  2.7452
  169SOPE  H16Y19140   4.284   0.074   8.559  0.3260  0.6236  1.4438
  169SOPE  C31719141   4.156   0.248   8.617 -0.1483  0.3291  0.1979
  169SOPE  H17X19142   4.063   0.192   8.592 -0.4488  1.0497 -0.2999
  169SOPE  H17Y19143   4.141   0.356   8.600  2.1278  0.6328 -0.1429
  169SOPE  C31819144   4.185   0.209   8.760  0.2686 -0.0080 -0.3430
  169SOPE  H18X19145   4.215   0.102   8.768 -0.4413 -0.0993  1.7765
  169SOPE  H18Y19146   4.094   0.209   8.824 -0.5735 -2.8657 -1.4090
  169SOPE  H18Z19147   4.264   0.273   8.805 -1.0171  1.3407  0.0653
  170SOPE     N19148   4.041   5.462   6.507  0.7134  0.0115  0.4758
  170SOPE   HN119149   4.003   5.477   6.603 -0.4390 -0.8527  0.1764
  170SOPE   HN219150   4.043   5.359   6.493 -1.6218 -0.1827  1.0934
  170SOPE   HN319151   4.140   5.493   6.512  0.5775  0.6607 -0.6257
  170SOPE   C1219152   3.939   5.517   6.404  0.2278  0.0771 -0.3557
  170SOPE  H12A19153   3.857   5.441   6.398 -0.1891  0.4261  0.6789
  170SOPE  H12B19154   3.980   5.538   6.303  0.8584  1.3176  0.1420
  170SOPE   C1119155   3.882   5.655   6.452  0.1800  0.3381 -0.5571
  170SOPE  H11A19156   3.797   5.639   6.522  1.2934  1.4393  1.1124
  170SOPE  H11B19157   3.833   5.703   6.364  0.7917  1.6683 -0.1958
  170SOPE     P19158   3.932   5.897   6.526  0.1191 -0.5018 -0.3587
  170SOPE   O1319159   3.800   5.896   6.596 -0.3943 -0.7004  0.0493
  170SOPE   O1419160   3.938   5.966   6.398 -0.0762 -0.4172 -0.2200
  170SOPE   O1219161   3.983   5.746   6.501 -0.0741 -0.3624  0.3598
  170SOPE   O1119162   4.040   5.960   6.627  0.3217  0.3266 -0.0982
  170SOPE    C119163   4.148   5.874   6.673 -0.4689 -0.3953  0.6805
  170SOPE    HA19164   4.235   5.942   6.683 -0.2928 -0.1962 -1.6125
  170SOPE    HB19165   4.176   5.794   6.601 -0.7619 -0.6862  0.8889
  170SOPE    C219166   4.116   5.810   6.813  1.3868  0.1657  0.5308
  170SOPE    HS19167   4.013   5.771   6.793  0.1134  2.7452  1.5962
  170SOPE   O2119168   4.121   5.905   6.916 -0.0230  0.1947  0.0335
  170SOPE   C2119169   4.012   5.923   6.985 -0.4815  0.3036 -0.5001
  170SOPE   O2219170   3.911   5.858   6.971 -0.1008  0.2492 -0.1660
  170SOPE   C2219171   4.040   6.035   7.080  0.9759  0.0635  0.0265
  170SOPE   H2R19172   4.052   6.132   7.028  0.4614  0.3317  0.3965
  170SOPE   H2S19173   4.134   6.007   7.133  0.5032  1.4140  1.6620
  170SOPE    C319174   4.210   5.700   6.844 -0.0403  0.4021  0.8896
  170SOPE    HX19175   4.296   5.756   6.886 -1.3054  1.9602  1.5008
  170SOPE    HY19176   4.244   5.639   6.757 -2.4688 -0.3157  0.3724
  170SOPE   O3119177   4.145   5.617   6.945 -0.0610 -0.1301  0.2696
  170SOPE   C3119178   4.052   5.536   6.903  0.4033 -0.6434  0.6077
  170SOPE   O3219179   4.015   5.511   6.789  0.4384 -0.6983 -0.0234
  170SOPE   C3219180   3.968   5.492   7.021 -0.0174  0.3420  0.4958
  170SOPE   H2X19181   3.869   5.540   7.016 -1.3087 -2.2342 -2.2326
  170SOPE   H2Y19182   4.020   5.524   7.114  1.6174 -0.3654 -0.1178
  170SOPE   C2319183   3.933   6.031   7.193 -0.0135  0.2669  0.2112
  170SOPE   H3R19184   3.941   5.945   7.263 -2.0882  1.8526  2.5851
  170SOPE   H3S19185   3.838   6.023   7.136  1.6023 -2.0573 -2.4249
  170SOPE   C2419186   3.941   6.164   7.263  0.0316 -0.6959  0.0361
  170SOPE   H4R19187   4.031   6.188   7.323 -1.8137  4.1376  1.3470
  170SOPE   H4S19188   3.931   6.250   7.194 -1.1251 -0.5008  0.4233
  170SOPE   C2519189   3.813   6.187   7.353 -1.0767 -0.3073  0.3910
  170SOPE   H5R19190   3.831   6.288   7.393 -0.0054  0.4263 -1.7774
  170SOPE   H5S19191   3.724   6.180   7.287  0.4802 -3.8622 -1.6542
  170SOPE   C2619192   3.800   6.100   7.475  0.3179 -0.3683  0.6097
  170SOPE   H6R19193   3.755   6.004   7.441  0.1767 -0.0045 -0.2448
  170SOPE   H6S19194   3.902   6.067   7.504  0.6177 -2.4808 -2.3094
  170SOPE   C2719195   3.719   6.160   7.587 -0.2827  0.3749 -0.1026
  170SOPE   H7R19196   3.768   6.254   7.619  0.2616  1.1788 -2.9885
  170SOPE   H7S19197   3.619   6.194   7.553 -1.1074 -1.2675  0.5469
  170SOPE   C2819198   3.671   6.059   7.694  0.3351 -0.2508 -0.5216
  170SOPE   H8R19199   3.602   6.108   7.766  2.0254  0.5135  0.6440
  170SOPE   H8S19200   3.602   5.985   7.647 -0.7127  0.5963 -0.3637
  170SOPE   C2919201   3.798   6.001   7.753 -0.9324  0.0153 -0.5165
  170SOPE   H9119202   3.855   5.925   7.698 -0.6294  0.6347 -1.0816
  170SOPE  C21019203   3.846   6.034   7.879  0.2428  0.1901 -0.2311
  170SOPE  H10119204   3.948   6.003   7.905 -0.1886 -1.2496 -0.1459
  170SOPE  C21119205   3.784   6.126   7.982 -0.1759 -0.4759  0.0197
  170SOPE  H11R19206   3.781   6.086   8.086  0.6571  0.2464  0.3381
  170SOPE  H11S19207   3.681   6.150   7.949  0.4964  1.2275 -0.9543
  170SOPE  C21219208   3.867   6.261   7.978  0.2555 -0.2777  0.7903
  170SOPE  H12R19209   3.859   6.313   7.881  0.6681 -0.9019  0.4104
  170SOPE  H12S19210   3.974   6.234   7.996  0.2849 -0.8183 -0.1119
  170SOPE  C21319211   3.814   6.360   8.081  0.0151 -0.1048  0.5019
  170SOPE  H13R19212   3.899   6.430   8.097  0.6589 -0.4532 -1.1777
  170SOPE  H13S19213   3.786   6.313   8.178 -1.6226 -3.4385 -1.3939
  170SOPE  C21419214   3.696   6.435   8.010 -0.4821  0.1931  0.0049
  170SOPE  H14R19215   3.612   6.367   7.982 -1.0403  0.9642 -0.2112
  170SOPE  H14S19216   3.728   6.468   7.908  0.1170 -0.5949 -0.0756
  170SOPE  C21519217   3.639   6.546   8.099  1.0191  0.1929  0.3159
  170SOPE  H15R19218   3.590   6.491   8.183 -0.1183  1.8290  0.7704
  170SOPE  H15S19219   3.566   6.595   8.032  0.8932  0.1889  0.4505
  170SOPE  C21619220   3.736   6.647   8.150 -0.3616  0.9546 -0.2451
  170SOPE  H16R19221   3.790   6.695   8.065  0.7378 -1.5020 -1.0039
  170SOPE  H16S19222   3.810   6.589   8.208 -2.8153 -0.3150  1.8026
  170SOPE  C21719223   3.675   6.752   8.229 -0.1958 -0.5753  0.3730
  170SOPE  H17R19224   3.587   6.793   8.175 -0.3031 -1.1411  0.1059
  170SOPE  H17S19225   3.751   6.829   8.251  0.3089  0.2074 -3.3558
  170SOPE  C21819226   3.617   6.704   8.366  0.3781 -0.0093 -0.0163
  170SOPE  H18R19227   3.700   6.650   8.415  0.2951  0.6409  0.8472
  170SOPE  H18S19228   3.525   6.641   8.356 -0.8447  1.9520 -2.1901
  170SOPE  H18T19229   3.584   6.789   8.430  2.1221  1.3561 -0.8460
  170SOPE   C3319230   3.958   5.336   7.026  0.5531  0.0473  0.9501
  170SOPE   H3X19231   4.055   5.282   7.019  1.7922  2.1604  0.7914
  170SOPE   H3Y19232   3.894   5.309   6.939  0.5732 -0.4933  1.1035
  170SOPE   C3419233   3.876   5.277   7.143 -0.2247  0.6423 -0.6474
  170SOPE   H4X19234   3.861   5.170   7.119 -2.3680  0.9605 -0.8850
  170SOPE   H4Y19235   3.772   5.313   7.155 -0.7332 -1.1681  0.7971
  170SOPE   C3519236   3.950   5.283   7.276  0.4029  0.2078 -0.0992
  170SOPE   H5X19237   3.993   5.385   7.287  0.6646  0.1105 -0.2020
  170SOPE   H5Y19238   4.024   5.201   7.265  2.0746  1.8239 -1.5496
  170SOPE   C3619239   3.862   5.273   7.400  0.2610  0.1671 -0.7624
  170SOPE   H6X19240   3.822   5.170   7.408  0.0957 -0.0231 -3.1622
  170SOPE   H6Y19241   3.773   5.336   7.378 -0.6548 -1.4742 -2.0183
  170SOPE   C3719242   3.941   5.330   7.517  0.5034 -0.0069 -0.0727
  170SOPE   H7X19243   3.956   5.439   7.498  3.2988 -0.9285 -4.7033
  170SOPE   H7Y19244   4.047   5.299   7.531  0.7879  0.4578 -1.0754
  170SOPE   C3819245   3.866   5.304   7.654  0.3838  0.0214  0.1421
  170SOPE   H8X19246   3.868   5.198   7.687  1.1880  0.0637  0.2658
  170SOPE   H8Y19247   3.759   5.317   7.627  0.1188 -0.7291  0.8074
  170SOPE   C3919248   3.913   5.394   7.767 -0.5992  0.5204 -0.2854
  170SOPE   H9X19249   3.934   5.493   7.721  1.2680 -0.6298 -2.0498
  170SOPE   H9Y19250   4.004   5.348   7.810 -1.2969  0.5877  1.3450
  170SOPE  C31019251   3.810   5.416   7.881 -0.3409  0.3266 -0.2842
  170SOPE  H10X19252   3.796   5.326   7.944 -2.7197 -0.3396 -1.6291
  170SOPE  H10Y19253   3.712   5.432   7.831  0.6731  0.6890 -2.2438
  170SOPE  C31119254   3.843   5.540   7.972 -0.4393  0.4710 -0.3008
  170SOPE  H11X19255   3.885   5.623   7.912 -1.1344 -0.1671 -1.7251
  170SOPE  H11Y19256   3.924   5.502   8.038  0.3425  0.4113 -1.2748
  170SOPE  C31219257   3.731   5.599   8.053  0.1525 -0.7277 -0.3262
  170SOPE  H12X19258   3.685   5.523   8.120  3.1831 -2.4394 -0.0227
  170SOPE  H12Y19259   3.657   5.644   7.982  1.3932  2.2617  0.1044
  170SOPE  C31319260   3.770   5.722   8.138  0.2597 -0.3513  0.2819
  170SOPE  H13X19261   3.829   5.790   8.072 -0.3853 -1.4456 -1.5032
  170SOPE  H13Y19262   3.830   5.683   8.222 -0.0225 -0.1709  0.5687
  170SOPE  C31419263   3.650   5.793   8.204 -0.0355  0.2246 -0.5034
  170SOPE  H14X19264   3.692   5.864   8.278  0.1421 -1.2016  0.8000
  170SOPE  H14Y19265   3.589   5.729   8.271 -0.4424  2.3808  1.3023
  170SOPE  C31519266   3.551   5.862   8.106  0.6218  0.4357  0.3238
  170SOPE  H15X19267   3.498   5.778   8.058  0.5882  0.3843  0.4493
  170SOPE  H15Y19268   3.608   5.925   8.035  0.4023  1.3304  0.9223
  170SOPE  C31619269   3.448   5.951   8.178  0.5975  0.0507 -0.7273
  170SOPE  H16X19270   3.408   5.891   8.262 -1.3640  2.8178  0.4648
  170SOPE  H16Y19271   3.365   5.985   8.112 -0.6010  2.1389  1.7033
  170SOPE  C31719272   3.501   6.083   8.239  0.1841 -0.2794  0.5326
  170SOPE  H17X19273   3.548   6.140   8.156  0.2778  0.9250  1.3818
  170SOPE  H17Y19274   3.576   6.059   8.317  0.3778  0.6830  0.6595
  170SOPE  C31819275   3.390   6.155   8.307 -0.8486  0.3319  0.2445
  170SOPE  H18X19276   3.425   6.248   8.356 -2.2597  0.9194  0.1849
  170SOPE  H18Y19277   3.361   6.091   8.394  0.5019  2.7548  2.6078
  170SOPE  H18Z19278   3.301   6.167   8.241 -0.8230 -0.1529  0.1174
  171SOPE     N19279   5.921   2.413   6.418 -0.3283  0.1419 -0.0152
  171SOPE   HN119280   5.972   2.404   6.328 -0.0988  0.2127  0.1082
  171SOPE   HN219281   5.923   2.510   6.457  1.4744 -0.1147  0.6008
  171SOPE   HN319282   5.975   2.346   6.476  1.1023 -0.4687 -1.9535
  171SOPE   C1219283   5.784   2.371   6.379 -0.4513  0.3142  1.0063
  171SOPE  H12A19284   5.757   2.444   6.300 -0.2529 -1.1211 -0.4537
  171SOPE  H12B19285   5.730   2.391   6.473 -0.0041 -1.1336  1.6091
  171SOPE   C1119286   5.776   2.220   6.336 -0.3226  0.3447 -0.3607
  171SOPE  H11A19287   5.819   2.218   6.234  0.8646 -1.3770  0.1226
  171SOPE  H11B19288   5.669   2.195   6.326 -0.9032  2.6672 -0.4464
  171SOPE     P19289   5.803   2.082   6.569 -0.2037  0.3534 -0.0780
  171SOPE   O1319290   5.924   2.067   6.653 -0.6884 -0.1351  0.2671
  171SOPE   O1419291   5.722   1.959   6.552 -0.3934 -0.3198  0.2987
  171SOPE   O1219292   5.849   2.136   6.425 -0.4310 -0.3763 -0.0427
  171SOPE   O1119293   5.716   2.194   6.624  0.8184  0.0083  0.0094
  171SOPE    C119294   5.726   2.261   6.746 -0.3901  0.3918  0.3799
  171SOPE    HA19295   5.665   2.353   6.750  1.8341  2.0220 -1.1651
  171SOPE    HB19296   5.832   2.292   6.759 -0.0446 -0.4958 -0.1941
  171SOPE    C219297   5.685   2.173   6.875 -0.7558 -0.2866  0.2876
  171SOPE    HS19298   5.705   2.224   6.972  0.5253 -1.4862  0.6829
  171SOPE   O2119299   5.750   2.042   6.883  0.4585 -0.0771  0.2563
  171SOPE   C2119300   5.862   2.039   6.952 -0.0390  0.6607  0.2157
  171SOPE   O2219301   5.916   2.142   6.995 -0.0147  0.4979  0.2246
  171SOPE   C2219302   5.918   1.895   6.966 -0.2600 -0.1353 -0.0538
  171SOPE   H2R19303   6.024   1.908   6.937 -0.1301  1.5410  1.0017
  171SOPE   H2S19304   5.877   1.832   6.885  2.5927  0.6411 -2.2588
  171SOPE    C319305   5.534   2.153   6.863 -0.1443 -0.0451 -0.6734
  171SOPE    HX19306   5.514   2.103   6.766  1.1064  0.5002 -1.2284
  171SOPE    HY19307   5.480   2.250   6.859 -0.4985 -0.2714 -1.3784
  171SOPE   O3119308   5.496   2.065   6.975  0.1761 -0.0224 -0.3496
  171SOPE   C3119309   5.456   2.136   7.080 -0.0263  0.3538 -0.4790
  171SOPE   O3219310   5.452   2.256   7.084 -0.0584 -0.1620  0.8759
  171SOPE   C3219311   5.434   2.046   7.199 -1.0049 -0.0332 -0.1742
  171SOPE   H2X19312   5.522   1.979   7.210 -1.0315 -0.0254  0.0785
  171SOPE   H2Y19313   5.352   1.981   7.162 -0.0330 -1.2697 -0.2440
  171SOPE   C2319314   5.902   1.850   7.102 -0.4963  0.5521 -0.8915
  171SOPE   H3R19315   5.955   1.913   7.177  1.1017 -1.3610 -0.3349
  171SOPE   H3S19316   5.951   1.751   7.111  0.0973  0.9672  1.2691
  171SOPE   C2419317   5.754   1.826   7.133  0.3963  0.0975  0.1975
  171SOPE   H4R19318   5.712   1.929   7.133 -0.0128 -0.0671 -0.7244
  171SOPE   H4S19319   5.708   1.762   7.055  0.6740  1.6627 -1.3182
  171SOPE   C2519320   5.717   1.749   7.265 -0.2672  0.9675  0.3026
  171SOPE   H5R19321   5.609   1.757   7.291 -0.0667 -0.7774  1.8837
  171SOPE   H5S19322   5.725   1.642   7.235 -0.0844  1.2895 -0.8423
  171SOPE   C2619323   5.784   1.780   7.399  0.9265  0.1929  0.4486
  171SOPE   H6R19324   5.741   1.698   7.461 -1.6217  1.2167  0.1731
  171SOPE   H6S19325   5.895   1.783   7.391  0.9338  0.2280  0.5698
  171SOPE   C2719326   5.750   1.913   7.460  0.5449 -0.5092 -0.2120
  171SOPE   H7R19327   5.768   1.991   7.383  1.1162  0.7566  1.1505
  171SOPE   H7S19328   5.641   1.920   7.480  0.8330 -0.5954  1.5862
  171SOPE   C2819329   5.830   1.934   7.588 -0.4326 -0.1227 -0.0883
  171SOPE   H8R19330   5.824   1.837   7.641 -1.7364 -1.1563 -2.0213
  171SOPE   H8S19331   5.938   1.940   7.561 -0.4014  0.8487  0.1935
  171SOPE   C2919332   5.799   2.058   7.673 -0.2391  0.1864 -0.4646
  171SOPE   H9119333   5.760   2.152   7.630  0.0241 -0.0645 -1.2655
  171SOPE  C21019334   5.826   2.063   7.803 -0.1611  0.6507 -0.1154
  171SOPE  H10119335   5.804   2.154   7.861  0.5133 -0.2782  1.6734
  171SOPE  C21119336   5.878   1.943   7.886 -0.3647  0.4874  0.0853
  171SOPE  H11R19337   5.980   1.916   7.848  1.3107  0.9412  3.8409
  171SOPE  H11S19338   5.801   1.865   7.871 -1.9994  2.5566 -3.6475
  171SOPE  C21219339   5.882   1.972   8.036 -0.3117  0.2732  0.0987
  171SOPE  H12R19340   5.781   2.006   8.066  0.2785  1.2911  1.0269
  171SOPE  H12S19341   5.954   2.055   8.056  0.1233 -0.2967  0.9796
  171SOPE  C21319342   5.935   1.849   8.112 -0.0733  0.2898 -0.4568
  171SOPE  H13R19343   6.036   1.826   8.073 -0.2399  0.9569 -1.3173
  171SOPE  H13S19344   5.866   1.764   8.093  1.0422 -0.0251 -3.6197
  171SOPE  C21419345   5.947   1.886   8.270  0.4089 -0.4749  0.5513
  171SOPE  H14R19346   5.842   1.875   8.306 -0.2482 -0.3258 -1.1995
  171SOPE  H14S19347   5.975   1.993   8.267 -1.0976 -0.0633  0.0002
  171SOPE  C21519348   6.030   1.792   8.354 -0.0066 -0.5301  0.7164
  171SOPE  H15R19349   6.138   1.797   8.327  0.2951  1.8075  2.0894
  171SOPE  H15S19350   5.995   1.687   8.344  1.8682 -1.0643 -0.9323
  171SOPE  C21619351   6.032   1.832   8.498 -0.0458 -0.2803 -0.0619
  171SOPE  H16R19352   6.033   1.943   8.488 -0.1345 -0.4331 -2.0932
  171SOPE  H16S19353   6.133   1.802   8.531  0.4128  1.8702  0.6776
  171SOPE  C21719354   5.920   1.780   8.585  0.3284 -0.5527  0.2473
  171SOPE  H17R19355   5.936   1.670   8.593  2.5912 -0.4847 -1.9519
  171SOPE  H17S19356   5.818   1.782   8.541  0.0622 -1.2068  0.8137
  171SOPE  C21819357   5.916   1.835   8.728 -0.1510  0.5334 -0.1506
  171SOPE  H18R19358   5.888   1.942   8.717 -0.5675  0.2101 -2.9195
  171SOPE  H18S19359   6.017   1.821   8.771  1.6383  1.5282 -3.6717
  171SOPE  H18T19360   5.844   1.785   8.797  1.6697 -1.0393  0.7111
  171SOPE   C3319361   5.375   2.128   7.318  0.2764  0.3215 -0.1271
  171SOPE   H3X19362   5.270   2.161   7.306 -0.1446 -0.1230  1.8725
  171SOPE   H3Y19363   5.439   2.216   7.338 -0.8135  1.3244 -0.9228
  171SOPE   C3419364   5.359   2.056   7.444 -0.4033  0.2434  0.9141
  171SOPE   H4X19365   5.446   1.990   7.462 -1.4622 -1.1971  0.9242
  171SOPE   H4Y19366   5.271   1.988   7.439  1.2193 -1.8654 -0.4383
  171SOPE   C3519367   5.342   2.155   7.561 -0.1345  0.3492 -0.4758
  171SOPE   H5X19368   5.264   2.227   7.527  0.0371  1.0256  0.5131
  171SOPE   H5Y19369   5.431   2.219   7.575  0.1243  0.2285 -1.5079
  171SOPE   C3619370   5.301   2.096   7.698  0.2464  0.0053 -0.0708
  171SOPE   H6X19371   5.239   2.005   7.698  3.1577 -2.1160  0.5149
  171SOPE   H6Y19372   5.243   2.176   7.749  1.7928  1.9903 -1.2773
  171SOPE   C3719373   5.425   2.076   7.780 -0.5645 -0.3627 -0.4005
  171SOPE   H7X19374   5.497   2.160   7.773  1.4179 -1.7917  1.3670
  171SOPE   H7Y19375   5.481   1.992   7.733 -0.8569 -0.6751 -0.1943
  171SOPE   C3819376   5.389   2.043   7.927  0.6396 -0.3068 -0.2195
  171SOPE   H8X19377   5.297   1.981   7.925 -0.2922  1.0481 -0.5734
  171SOPE   H8Y19378   5.364   2.135   7.983 -0.0036  0.0814 -1.1089
  171SOPE   C3919379   5.502   1.968   8.002 -0.2769  0.2409  1.0570
  171SOPE   H9X19380   5.590   2.036   8.011  0.9623 -1.0815 -0.3146
  171SOPE   H9Y19381   5.529   1.873   7.951  0.8046  0.7940  0.5535
  171SOPE  C31019382   5.457   1.933   8.145  0.5445  0.0572  1.0615
  171SOPE  H10X19383   5.354   1.893   8.133  0.9739 -0.5068 -1.1271
  171SOPE  H10Y19384   5.457   2.027   8.206 -0.7099 -0.7319  2.3362
  171SOPE  C31119385   5.538   1.839   8.234 -0.1693 -1.0149  0.1302
  171SOPE  H11X19386   5.638   1.887   8.242 -1.4897  1.7376  0.9755
  171SOPE  H11Y19387   5.544   1.742   8.179 -1.1421 -0.7352 -0.4970
  171SOPE  C31219388   5.469   1.809   8.371 -0.8856  0.8145  0.4402
  171SOPE  H12X19389   5.466   1.900   8.435 -0.2574  0.0367  1.6046
  171SOPE  H12Y19390   5.536   1.735   8.421 -1.5789  0.7773  1.3486
  171SOPE  C31319391   5.327   1.752   8.365 -0.4921  0.1337 -0.1810
  171SOPE  H13X19392   5.333   1.664   8.297 -0.1711 -0.3520  0.4647
  171SOPE  H13Y19393   5.254   1.818   8.312 -0.2299 -1.2165 -2.3374
  171SOPE  C31419394   5.277   1.710   8.508 -0.9119 -0.0761  0.4687
  171SOPE  H14X19395   5.282   1.802   8.571  0.7626 -0.1372  0.4601
  171SOPE  H14Y19396   5.348   1.630   8.538 -0.3612 -0.1026 -0.8587
  171SOPE  C31519397   5.141   1.650   8.496  1.0184  0.1370  0.1922
  171SOPE  H15X19398   5.138   1.561   8.428 -0.2973 -0.0065  0.4101
  171SOPE  H15Y19399   5.080   1.729   8.447  0.2621  0.1242  1.0894
  171SOPE  C31619400   5.077   1.627   8.637  0.4186 -0.0456 -0.9320
  171SOPE  H16X19401   5.106   1.711   8.704  1.1200 -0.6197 -0.4971
  171SOPE  H16Y19402   5.138   1.545   8.682 -1.4973 -1.0581 -0.0247
  171SOPE  C31719403   4.936   1.572   8.642 -0.0116  0.1621 -0.9273
  171SOPE  H17X19404   4.875   1.626   8.566 -0.2086 -0.0330 -0.9088
  171SOPE  H17Y19405   4.892   1.583   8.743  2.2239 -0.6909  0.2165
  171SOPE  C31819406   4.923   1.431   8.597 -0.8120  0.4331 -0.3410
  171SOPE  H18X19407   4.817   1.400   8.586 -0.7653  0.7345 -1.8656
  171SOPE  H18Y19408   4.960   1.357   8.672  1.2712 -1.9822 -3.4678
  171SOPE  H18Z19409   4.978   1.418   8.501 -0.3945  3.0242 -0.5196
  172SOPE     N19410   4.730   4.472   6.468  0.8936 -0.0508  0.1421
  172SOPE   HN119411   4.680   4.393   6.512 -0.0198  0.9012  0.8582
  172SOPE   HN219412   4.769   4.537   6.540 -0.7757 -0.0876  1.1043
  172SOPE   HN319413   4.655   4.526   6.421  0.2237 -1.9712 -1.1008
  172SOPE   C1219414   4.834   4.406   6.377 -0.2644  0.2143  0.4128
  172SOPE  H12A19415   4.899   4.493   6.351 -1.9345  1.5153  0.4305
  172SOPE  H12B19416   4.782   4.360   6.290  1.0925 -2.7889  1.0581
  172SOPE   C1119417   4.933   4.308   6.457 -0.1646  0.1483  0.0569
  172SOPE  H11A19418   4.987   4.373   6.528 -0.8653  0.1609  0.5940
  172SOPE  H11B19419   5.003   4.267   6.381  0.4574  0.4835  0.4470
  172SOPE     P19420   4.825   4.071   6.497 -0.1727 -0.1798  0.1220
  172SOPE   O1319421   4.818   4.047   6.352 -0.2328  0.2339 -0.0703
  172SOPE   O1419422   4.697   4.040   6.568 -0.0611 -0.0013  0.0553
  172SOPE   O1219423   4.865   4.213   6.535  0.5207 -0.0102 -0.6038
  172SOPE   O1119424   4.948   3.991   6.563 -0.2676  0.6797  0.1204
  172SOPE    C119425   4.942   3.846   6.562 -0.9208 -0.7655 -0.5209
  172SOPE    HA19426   5.044   3.806   6.584 -0.8257 -1.8621 -2.6972
  172SOPE    HB19427   4.914   3.808   6.461 -2.1511 -2.0270  0.2581
  172SOPE    C219428   4.856   3.786   6.682 -0.5226  0.7041 -0.7957
  172SOPE    HS19429   4.755   3.831   6.687 -1.0835 -0.5930  0.2107
  172SOPE   O2119430   4.931   3.803   6.806 -0.1868  0.4224  0.8535
  172SOPE   C2119431   4.864   3.806   6.920  0.0574  0.2035  0.1547
  172SOPE   O2219432   4.740   3.794   6.932 -0.2782 -0.2202 -0.2280
  172SOPE   C2219433   4.961   3.833   7.032 -0.0322  0.0727  0.7995
  172SOPE   H2R19434   4.944   3.936   7.069 -0.6203  0.4994 -0.6100
  172SOPE   H2S19435   5.060   3.839   6.983 -0.0639  2.5292  0.9236
  172SOPE    C319436   4.837   3.631   6.651 -0.6607  0.0203  0.3076
  172SOPE    HX19437   4.926   3.581   6.606 -1.0725  0.6106 -1.1874
  172SOPE    HY19438   4.764   3.619   6.569  0.7731  0.8604 -1.1580
  172SOPE   O3119439   4.801   3.556   6.768 -0.2448 -0.3623  0.3864
  172SOPE   C3119440   4.667   3.523   6.770 -0.5619 -1.1345 -0.4717
  172SOPE   O3219441   4.581   3.557   6.692 -0.0888 -0.2332 -0.2626
  172SOPE   C3219442   4.653   3.413   6.880  0.3873 -0.1036 -0.1382
  172SOPE   H2X19443   4.754   3.371   6.899 -0.9030 -3.4328  0.0009
  172SOPE   H2Y19444   4.593   3.327   6.845  1.1818 -0.8912  0.3804
  172SOPE   C2319445   4.961   3.729   7.146 -0.7136  0.1156 -0.1437
  172SOPE   H3R19446   5.052   3.751   7.205 -0.0374  1.7108 -1.6619
  172SOPE   H3S19447   4.973   3.626   7.106 -0.4571  0.6343 -1.4866
  172SOPE   C2419448   4.850   3.743   7.240 -0.2222 -0.3894  0.6698
  172SOPE   H4R19449   4.843   3.852   7.264  0.1620 -0.2731  0.2701
  172SOPE   H4S19450   4.753   3.725   7.190 -0.6945 -0.3762  1.5543
  172SOPE   C2519451   4.849   3.655   7.363  0.6378 -0.2410  0.7859
  172SOPE   H5R19452   4.871   3.549   7.339 -2.1306 -0.5236 -0.8853
  172SOPE   H5S19453   4.927   3.693   7.433 -0.5973  4.3094 -0.0346
  172SOPE   C2619454   4.711   3.667   7.442 -0.2293  0.8085 -0.3317
  172SOPE   H6R19455   4.713   3.768   7.489 -4.0840  0.7205  0.3846
  172SOPE   H6S19456   4.629   3.671   7.367  0.2373  0.7577 -0.8549
  172SOPE   C2719457   4.693   3.552   7.553 -0.3365 -0.5782  0.0131
  172SOPE   H7R19458   4.685   3.457   7.496  0.1311 -0.0140 -1.0249
  172SOPE   H7S19459   4.783   3.548   7.617 -1.5513 -0.3684  1.8193
  172SOPE   C2819460   4.571   3.580   7.644  0.4742  0.0837  0.1406
  172SOPE   H8R19461   4.594   3.675   7.697  0.9156 -1.3512  2.7180
  172SOPE   H8S19462   4.480   3.605   7.586  1.4440  0.1063 -1.4120
  172SOPE   C2919463   4.540   3.470   7.745  0.0887 -0.6689  0.4870
  172SOPE   H9119464   4.550   3.366   7.709  0.4832 -1.0658  1.7044
  172SOPE  C21019465   4.486   3.497   7.869 -0.3879 -0.5902  0.2220
  172SOPE  H10119466   4.473   3.416   7.942 -0.5838 -1.4821 -0.7770
  172SOPE  C21119467   4.455   3.631   7.928 -0.4267  0.4603 -0.2790
  172SOPE  H11R19468   4.346   3.646   7.914 -0.0644  3.2139 -0.7598
  172SOPE  H11S19469   4.503   3.713   7.870 -2.1198  0.7712 -1.3173
  172SOPE  C21219470   4.495   3.638   8.080  0.9789  1.0363  0.3854
  172SOPE  H12R19471   4.436   3.557   8.128 -0.8369  0.8630 -1.9274
  172SOPE  H12S19472   4.463   3.736   8.120 -0.2213  0.8298 -0.0374
  172SOPE  C21319473   4.646   3.622   8.107  0.5487 -1.0498  0.0883
  172SOPE  H13R19474   4.694   3.697   8.040 -0.0543 -0.1994  0.5846
  172SOPE  H13S19475   4.686   3.519   8.092  0.4186 -1.3943  1.8968
  172SOPE  C21419476   4.677   3.663   8.251  0.3268 -0.7882  0.0192
  172SOPE  H14R19477   4.636   3.581   8.313 -2.0578  0.9872  0.9516
  172SOPE  H14S19478   4.628   3.759   8.278  1.8633  0.0805 -0.1510
  172SOPE  C21519479   4.828   3.673   8.282  0.1557 -0.1468  0.1100
  172SOPE  H15R19480   4.873   3.759   8.227  2.1589 -0.5529  1.0461
  172SOPE  H15S19481   4.870   3.578   8.245  0.4847  0.2295 -0.5061
  172SOPE  C21619482   4.875   3.698   8.426  0.3543  0.2906 -0.5100
  172SOPE  H16R19483   4.816   3.632   8.493 -0.9773  1.1340 -0.7987
  172SOPE  H16S19484   4.841   3.800   8.454 -0.5658 -0.1028 -0.1401
  172SOPE  C21719485   5.026   3.682   8.451  0.0555  0.6782  0.1527
  172SOPE  H17R19486   5.055   3.580   8.419 -0.6054  0.4056  0.3972
  172SOPE  H17S19487   5.060   3.679   8.557 -0.8552  2.3117  0.5320
  172SOPE  C21819488   5.116   3.769   8.364 -0.7887 -0.5087 -0.7225
  172SOPE  H18R19489   5.214   3.759   8.415 -2.1054 -2.5549  1.6510
  172SOPE  H18S19490   5.097   3.879   8.371 -0.0241 -0.4026 -0.2098
  172SOPE  H18T19491   5.109   3.736   8.258  0.0846 -1.0213 -0.6254
  172SOPE   C3319492   4.565   3.460   7.003 -0.4227 -0.6169  0.0406
  172SOPE   H3X19493   4.487   3.534   6.975  1.5691  1.1987 -1.1073
  172SOPE   H3Y19494   4.640   3.519   7.060  0.0882  1.1234 -2.2612
  172SOPE   C3419495   4.524   3.337   7.092  0.3854  0.5728  0.4985
  172SOPE   H4X19496   4.484   3.259   7.024  2.8949  0.1947 -0.6696
  172SOPE   H4Y19497   4.443   3.373   7.158 -0.3369 -0.0810 -0.0214
  172SOPE   C3519498   4.636   3.286   7.179  0.2395 -0.2338  0.3792
  172SOPE   H5X19499   4.674   3.369   7.243  1.5314  1.0101 -1.8716
  172SOPE   H5Y19500   4.718   3.239   7.121  0.9825 -1.3532  2.2582
  172SOPE   C3619501   4.575   3.177   7.270  0.4522  0.2596 -0.5444
  172SOPE   H6X19502   4.551   3.087   7.209  1.9495 -1.7369  1.6387
  172SOPE   H6Y19503   4.486   3.208   7.329 -1.0117 -1.9876 -1.4149
  172SOPE   C3719504   4.674   3.128   7.380 -0.4879  0.4607 -0.3289
  172SOPE   H7X19505   4.709   3.225   7.422 -0.9630  0.7921 -0.6899
  172SOPE   H7Y19506   4.752   3.071   7.325  0.0581 -0.3779  1.2420
  172SOPE   C3819507   4.622   3.050   7.503  0.9033  0.7998  0.7633
  172SOPE   H8X19508   4.698   2.978   7.542  0.4773 -0.1217 -0.0472
  172SOPE   H8Y19509   4.533   2.986   7.484  0.5711  1.2675  0.7387
  172SOPE   C3919510   4.567   3.133   7.624 -0.0405  0.1418  0.6329
  172SOPE   H9X19511   4.496   3.210   7.586 -1.6746 -1.1689  0.8821
  172SOPE   H9Y19512   4.662   3.174   7.664  0.3162  1.0495 -1.0766
  172SOPE  C31019513   4.507   3.040   7.732  0.5790 -0.5858  0.0655
  172SOPE  H10X19514   4.577   2.954   7.743 -2.1002 -2.6817  1.9524
  172SOPE  H10Y19515   4.409   3.003   7.697  0.2236  1.2486 -0.9946
  172SOPE  C31119516   4.487   3.128   7.856 -0.5340  0.9501  0.6713
  172SOPE  H11X19517   4.429   3.220   7.835 -0.6728  0.5734 -0.7213
  172SOPE  H11Y19518   4.579   3.180   7.890 -0.9199  1.4017  1.0380
  172SOPE  C31219519   4.428   3.051   7.968  0.3797 -0.6614 -0.5669
  172SOPE  H12X19520   4.504   2.988   8.019 -0.5820 -1.3536  0.0756
  172SOPE  H12Y19521   4.351   2.981   7.929  0.3723  0.0590 -1.8697
  172SOPE  C31319522   4.368   3.138   8.076 -0.5978 -0.2797 -0.5894
  172SOPE  H13X19523   4.278   3.188   8.036  2.4858  3.3100 -3.7531
  172SOPE  H13Y19524   4.436   3.213   8.123  0.0616 -0.9029 -0.5184
  172SOPE  C31419525   4.326   3.050   8.202  0.3020  0.2766 -0.0284
  172SOPE  H14X19526   4.399   2.966   8.210  1.0452  1.0386  1.8728
  172SOPE  H14Y19527   4.227   3.005   8.181 -0.7966  2.5311  0.0632
  172SOPE  C31519528   4.334   3.126   8.330  0.1989 -0.1488  0.4300
  172SOPE  H15X19529   4.290   3.227   8.320  0.2875 -0.2513 -1.3702
  172SOPE  H15Y19530   4.436   3.144   8.369  0.0809  0.6923  0.3626
  172SOPE  C31619531   4.257   3.053   8.441 -0.9277  0.0501 -0.2374
  172SOPE  H16X19532   4.285   2.945   8.446  0.1856  0.2894 -0.9777
  172SOPE  H16Y19533   4.149   3.053   8.419 -0.8396  0.9128 -0.7013
  172SOPE  C31719534   4.278   3.117   8.578 -0.1991 -0.3247 -1.1954
  172SOPE  H17X19535   4.259   3.226   8.569 -1.3588 -0.3902  0.1654
  172SOPE  H17Y19536   4.382   3.114   8.616 -0.9376 -0.0594  0.9632
  172SOPE  C31819537   4.182   3.052   8.680 -0.4741  0.1795 -0.0311
  172SOPE  H18X19538   4.081   3.094   8.663 -0.0333  0.9238 -0.9552
  172SOPE  H18Y19539   4.207   3.089   8.782 -0.3680 -0.3734  0.1462
  172SOPE  H18Z19540   4.181   2.942   8.698 -0.1343  0.1587 -0.1258
  173SAPI   C1219541   6.155   3.017  10.798  0.0320 -0.2199  0.1377
  173SAPI    H219542   6.078   3.054  10.726  1.4250  0.4630 -1.0531
  173SAPI    O219543   6.187   3.121  10.894  0.4067  0.7433  0.1458
  173SAPI   HO219544   6.256   3.167  10.846  0.0150 -1.1886 -2.4973
  173SAPI   C1319545   6.104   2.891  10.870  0.1764  0.1496  0.5949
  173SAPI    H319546   6.086   2.805  10.802 -0.0876  1.2323 -0.7598
  173SAPI    O319547   5.972   2.925  10.930 -1.2287  0.0344 -0.3531
  173SAPI   HO319548   5.898   2.897  10.876 -0.1849  0.3638 -2.0447
  173SAPI   C1419549   6.203   2.829  10.971 -0.3389 -0.0227  0.0380
  173SAPI    H419550   6.227   2.899  11.054  0.2001  1.8404 -1.6226
  173SAPI    O419551   6.148   2.713  11.035 -0.3580  0.2782 -0.9683
  173SAPI   HO419552   6.216   2.647  11.051 -0.9760  0.1158  1.3910
  173SAPI   C1519553   6.337   2.799  10.897  0.3679 -0.0595  0.1027
  173SAPI    H519554   6.328   2.712  10.828 -0.3760  0.6863 -0.7742
  173SAPI    O519555   6.442   2.765  10.986  0.0980 -0.3808  0.2090
  173SAPI   HO519556   6.456   2.671  10.978 -0.4722 -0.3515 -1.3722
  173SAPI   C1619557   6.381   2.915  10.815 -0.5117  0.1417 -0.3557
  173SAPI    H619558   6.397   3.002  10.883  2.2732 -0.6089  0.0753
  173SAPI    O619559   6.501   2.884  10.745 -0.1207 -0.2326 -0.4399
  173SAPI   HO619560   6.554   2.965  10.749  0.6943 -0.7872  0.6337
  173SAPI   C1119561   6.283   2.971  10.718  0.6995  0.5799 -0.2609
  173SAPI    H119562   6.257   2.889  10.648 -0.0129 -1.1943  1.9381
  173SAPI     P19563   6.290   3.116  10.505  0.2665  0.5086  0.0633
  173SAPI   O1319564   6.337   3.248  10.457 -0.5652 -0.3784  0.4673
  173SAPI   O1419565   6.146   3.088  10.500 -0.7097  0.3050 -0.4948
  173SAPI   O1219566   6.334   3.093  10.662  0.5838  0.3271 -0.3544
  173SAPI   O1119567   6.370   3.006  10.425 -0.4714 -0.2728 -0.1321
  173SAPI    C119568   6.514   3.010  10.406 -0.2865 -0.1968 -0.2492
  173SAPI    HA19569   6.557   3.105  10.444  1.6707 -0.7855 -0.8521
  173SAPI    HB19570   6.549   2.923  10.465 -1.1780 -0.8198 -0.6200
  173SAPI    C219571   6.550   2.978  10.263  0.8705 -0.1000  0.4279
  173SAPI    HS19572   6.655   3.009  10.242  0.0579  1.0579 -2.4541
  173SAPI   O2119573   6.462   3.046  10.177 -0.0618 -0.5151 -0.1073
  173SAPI   C2119574   6.492   3.177  10.170  0.4970  0.7421  0.2838
  173SAPI   O2219575   6.585   3.235  10.226  0.3481 -0.4478 -0.0994
  173SAPI   C2219576   6.399   3.254  10.075  0.6434 -0.1061  0.2828
  173SAPI   H2R19577   6.318   3.185  10.042  0.3447 -0.7908  2.2785
  173SAPI   H2S19578   6.360   3.339  10.134  0.4305 -1.0004  1.4919
  173SAPI    C319579   6.541   2.829  10.226  0.6520  0.0702 -0.8497
  173SAPI    HX19580   6.434   2.799  10.221 -0.5348  3.4890  0.9359
  173SAPI    HY19581   6.598   2.776  10.306  2.5743  0.5842 -1.8220
  173SAPI   O3119582   6.608   2.800  10.102  0.3663 -0.7513  0.2021
  173SAPI   C3119583   6.615   2.669  10.086 -0.6478  0.2846  0.8824
  173SAPI   O3219584   6.600   2.586  10.175 -0.1031 -0.1967 -0.5001
  173SAPI   C3219585   6.665   2.633   9.944  0.6540 -0.7917  0.0081
  173SAPI   H2X19586   6.629   2.531   9.918  0.5531 -0.1237 -2.7520
  173SAPI   H2Y19587   6.776   2.637   9.947  0.6462 -0.3929  3.2277
  173SAPI   C2319588   6.476   3.304   9.955 -0.2843  0.8415 -0.4040
  173SAPI   H3R19589   6.557   3.377   9.977 -1.0198  1.2617  1.0484
  173SAPI   H3S19590   6.394   3.356   9.900 -1.2453 -1.5367 -1.3696
  173SAPI   C2419591   6.529   3.188   9.860  0.2347 -0.6462 -0.0957
  173SAPI   H4R19592   6.599   3.115   9.906 -0.1239 -1.9102 -1.4887
  173SAPI   H4S19593   6.593   3.226   9.777  0.8691 -1.7283 -0.1235
  173SAPI   C2519594   6.420   3.112   9.797  0.8130 -0.0748 -0.6090
  173SAPI   H5R19595   6.383   3.031   9.861  1.9115 -0.6170 -0.6322
  173SAPI   C2619596   6.364   3.135   9.681 -0.9206  0.5853 -0.5137
  173SAPI   H6R19597   6.278   3.074   9.649 -1.2438 -0.1593  1.5934
  173SAPI   C2719598   6.408   3.248   9.590  0.2459  0.0700 -0.7061
  173SAPI   H7R19599   6.495   3.207   9.534  0.5156  0.0068 -0.2389
  173SAPI   H7S19600   6.458   3.320   9.657  1.0796 -2.0534  1.0798
  173SAPI   C2819601   6.301   3.320   9.506 -0.4020  0.0014 -0.3188
  173SAPI   H8R19602   6.250   3.400   9.562 -0.1095  0.0716 -0.1487
  173SAPI   C2919603   6.276   3.287   9.376  0.3179  0.1244  0.0999
  173SAPI   H9R19604   6.196   3.342   9.323  1.9190  0.4211 -2.1697
  173SAPI  C21019605   6.342   3.179   9.298  0.2836 -0.9896  0.2521
  173SAPI  H10R19606   6.293   3.084   9.328 -2.3347  0.5363  1.1285
  173SAPI  H10S19607   6.448   3.154   9.318  0.1205 -0.8481  1.3853
  173SAPI  C21119608   6.321   3.185   9.151  0.1451 -0.4368  0.5241
  173SAPI  H11R19609   6.406   3.212   9.087 -2.2622  1.7405 -2.0041
  173SAPI  C21219610   6.200   3.165   9.088  0.5053 -0.8644  0.1655
  173SAPI  H12R19611   6.213   3.167   8.979  4.3171 -0.8217  0.4858
  173SAPI  C21319612   6.063   3.133   9.143 -0.2819  0.0821  0.1834
  173SAPI  H13R19613   6.016   3.233   9.155 -1.7407 -0.6445  0.7795
  173SAPI  H13S19614   6.060   3.079   9.240 -1.1265 -2.4707 -1.1965
  173SAPI  C21419615   5.980   3.046   9.056  0.1682  0.0454 -0.0742
  173SAPI  H14R19616   5.990   2.939   9.079 -1.4552  0.0705  0.9218
  173SAPI  C21519617   5.921   3.091   8.943  0.2933  0.8687  0.2319
  173SAPI  H15R19618   5.873   3.017   8.877  2.1847  1.0341 -1.4344
  173SAPI  C21619619   5.913   3.220   8.878 -0.6169 -0.0758 -0.5219
  173SAPI  H16R19620   5.956   3.217   8.776  0.8415 -3.4930  0.0692
  173SAPI  H16S19621   5.975   3.291   8.936 -0.7958 -1.3873  1.3720
  173SAPI  C21719622   5.769   3.284   8.896  0.1570 -0.1400  0.3207
  173SAPI  H17R19623   5.734   3.292   9.001 -1.9885 -1.3454 -0.2301
  173SAPI  H17S19624   5.704   3.205   8.850  0.8247 -1.4932  1.6079
  173SAPI  C21819625   5.763   3.429   8.840  0.1106  0.5135  0.1624
  173SAPI  H18R19626   5.658   3.462   8.833  0.2307  0.7570 -0.6515
  173SAPI  H18S19627   5.798   3.441   8.735 -1.3552  2.1120 -0.1938
  173SAPI  C21919628   5.826   3.533   8.937  0.2578 -0.0569 -0.1331
  173SAPI  H19R19629   5.932   3.500   8.949  0.0234 -0.6535  0.3585
  173SAPI  H19S19630   5.774   3.526   9.035 -1.3732  1.4162 -0.8501
  173SAPI  C22019631   5.814   3.674   8.888 -0.6885  0.1424 -0.3032
  173SAPI  H20R19632   5.847   3.750   8.962  1.7521 -1.7429  0.6676
  173SAPI  H20S19633   5.712   3.685   8.845 -0.6866 -0.3110 -0.4243
  173SAPI  H20T19634   5.889   3.705   8.812  0.2785  2.2553  1.3956
  173SAPI   C3319635   6.595   2.724   9.837  0.4447  0.1066  0.3157
  173SAPI   H3X19636   6.611   2.831   9.861  1.7529 -0.3983  1.8073
  173SAPI   H3Y19637   6.486   2.701   9.833  0.4570 -0.1302  1.2788
  173SAPI   C3419638   6.667   2.697   9.708  0.0567  0.3432 -0.8171
  173SAPI   H4X19639   6.647   2.593   9.676 -0.9795 -0.0265  0.8985
  173SAPI   H4Y19640   6.777   2.712   9.714 -0.0335  1.0007 -0.6859
  173SAPI   C3519641   6.610   2.789   9.597  0.0597 -0.0562 -0.2376
  173SAPI   H5X19642   6.656   2.887   9.619  0.6478 -0.5942  1.0757
  173SAPI   H5Y19643   6.500   2.799   9.606 -0.2431 -2.5614 -0.3385
  173SAPI   C3619644   6.646   2.747   9.458 -0.1714 -0.1471  0.4108
  173SAPI   H6X19645   6.591   2.654   9.429 -0.2941  0.7358 -2.5737
  173SAPI   H6Y19646   6.755   2.725   9.450 -0.0507  1.0060 -2.2328
  173SAPI   C3719647   6.622   2.858   9.359  0.2665  0.0582  0.0389
  173SAPI   H7X19648   6.709   2.926   9.366  0.2439  0.1131 -0.1926
  173SAPI   H7Y19649   6.527   2.912   9.375  0.1622  0.0581 -0.5471
  173SAPI   C3819650   6.617   2.806   9.223 -0.5869 -0.0693 -0.2122
  173SAPI   H8X19651   6.611   2.894   9.155  0.8620 -0.9162 -1.5176
  173SAPI   H8Y19652   6.519   2.757   9.204 -0.8109  0.0039  0.7288
  173SAPI   C3919653   6.741   2.720   9.186 -0.4196 -1.0376  0.2696
  173SAPI   H9X19654   6.717   2.614   9.209  0.5149 -1.6956 -1.5430
  173SAPI   H9Y19655   6.830   2.753   9.244 -0.7716  0.2201  0.1201
  173SAPI  C31019656   6.769   2.733   9.033 -0.1911 -0.2466 -0.3717
  173SAPI  H10X19657   6.691   2.684   8.971  1.3297 -1.7222 -1.2047
  173SAPI  H10Y19658   6.860   2.672   9.013  0.4031  0.7599 -0.8255
  173SAPI  C31119659   6.818   2.874   8.995 -0.5056  0.0745 -0.1345
  173SAPI  H11X19660   6.894   2.898   9.073 -0.3328 -2.9937  0.7776
  173SAPI  H11Y19661   6.735   2.946   9.009 -1.5948 -1.0931 -0.3816
  173SAPI  C31219662   6.869   2.871   8.852 -0.1093  0.5687 -0.5304
  173SAPI  H12X19663   6.785   2.847   8.784  0.8376 -0.8582 -1.2347
  173SAPI  H12Y19664   6.955   2.803   8.836 -0.5301 -0.2151  0.4475
  173SAPI  C31319665   6.924   3.008   8.803  0.1628  0.3669 -0.2583
  173SAPI  H13X19666   6.847   3.087   8.813 -0.5209 -0.4786  2.0165
  173SAPI  H13Y19667   6.933   2.994   8.694 -3.5750  0.9194 -0.7874
  173SAPI  C31419668   7.059   3.034   8.876  0.8345  0.5773 -0.6367
  173SAPI  H14X19669   7.133   2.955   8.853  0.1924 -0.2459  0.0383
  173SAPI  H14Y19670   7.054   3.035   8.987  1.8092 -0.1755 -0.5752
  173SAPI  C31519671   7.130   3.166   8.840 -0.4528  0.7182 -0.6346
  173SAPI  H15X19672   7.222   3.163   8.903 -0.2188 -0.6119 -1.0105
  173SAPI  H15Y19673   7.072   3.252   8.879 -0.9052 -0.2502  0.9197
  173SAPI  C31619674   7.187   3.184   8.694  0.1830  0.1083  0.3753
  173SAPI  H16X19675   7.104   3.164   8.623 -0.0862 -0.9573  0.9517
  173SAPI  H16Y19676   7.243   3.088   8.686 -1.4285 -0.8307 -0.0590
  173SAPI  C31719677   7.260   3.318   8.670 -0.0511  0.1028 -0.0940
  173SAPI  H17X19678   7.191   3.399   8.638  0.3000  0.8120  0.9117
  173SAPI  H17Y19679   7.322   3.299   8.579  0.6407 -0.9769  0.5844
  173SAPI  C31819680   7.350   3.373   8.777  1.0351  0.0613  0.2750
  173SAPI  H18X19681   7.288   3.401   8.865  2.8213  0.6567  1.3979
  173SAPI  H18Y19682   7.422   3.452   8.744  0.3307  0.9522  0.8072
  173SAPI  H18Z19683   7.415   3.287   8.802  0.7167 -2.0708 -4.8889
  174SAPI   C1219684   4.569   3.072  11.207  0.0681 -0.9335  0.3646
  174SAPI    H219685   4.490   3.058  11.131 -1.8198 -0.2302  2.0981
  174SAPI    O219686   4.504   3.152  11.307  0.7933  0.1329 -0.2998
  174SAPI   HO219687   4.415   3.176  11.280  0.8687 -0.0231 -0.6904
  174SAPI   C1319688   4.610   2.941  11.269  0.2392  0.4218  0.0493
  174SAPI    H319689   4.629   2.867  11.189 -0.9968 -1.5573  1.4818
  174SAPI    O319690   4.494   2.889  11.339  0.1611 -0.3146 -0.0142
  174SAPI   HO319691   4.526   2.814  11.390 -0.7976 -1.0024 -0.4010
  174SAPI   C1419692   4.728   2.957  11.366  0.0297 -0.1180 -0.2149
  174SAPI    H419693   4.698   3.028  11.447 -0.1303  2.7023 -2.6064
  174SAPI    O419694   4.755   2.824  11.418 -0.8464 -0.1347  0.2958
  174SAPI   HO419695   4.795   2.833  11.505 -1.2785 -2.0468  0.7354
  174SAPI   C1519696   4.847   3.022  11.300  0.4193  0.1462 -0.4346
  174SAPI    H519697   4.882   2.954  11.220  1.3283  0.9325 -0.7333
  174SAPI    O519698   4.958   3.034  11.396  0.1237 -0.1041 -0.0742
  174SAPI   HO519699   5.040   3.029  11.347 -0.0078 -1.8154 -0.1652
  174SAPI   C1619700   4.807   3.161  11.248  0.0122 -0.3420 -0.6709
  174SAPI    H619701   4.772   3.227  11.330  0.4536  1.3582 -1.7982
  174SAPI    O619702   4.922   3.221  11.187 -0.2837 -0.3421  0.6412
  174SAPI   HO619703   4.950   3.165  11.114  1.0715  0.2720  0.6540
  174SAPI   C1119704   4.693   3.143  11.143  0.2339  0.2205 -0.2657
  174SAPI    H119705   4.729   3.067  11.069  3.0501  0.4980  0.7036
  174SAPI     P19706   4.598   3.251  10.915  0.1746 -0.2375 -0.0138
  174SAPI   O1319707   4.540   3.385  10.882  0.2159  0.1049 -0.1675
  174SAPI   O1419708   4.511   3.133  10.902  0.3103 -0.4404 -0.0050
  174SAPI   O1219709   4.649   3.266  11.074 -0.0601 -0.4070 -0.4364
  174SAPI   O1119710   4.726   3.231  10.821 -0.4393 -0.2213 -0.8321
  174SAPI    C119711   4.849   3.305  10.851 -0.4071 -1.1024 -0.3217
  174SAPI    HA19712   4.874   3.304  10.960  0.5053 -3.2585 -0.5068
  174SAPI    HB19713   4.933   3.256  10.797 -1.0031 -0.4251 -1.9217
  174SAPI    C219714   4.855   3.450  10.787 -0.1445  0.4844 -0.4705
  174SAPI    HS19715   4.773   3.508  10.835 -1.2824 -1.1579 -0.3570
  174SAPI   O2119716   4.817   3.439  10.648 -0.4426  0.0875  0.5325
  174SAPI   C2119717   4.760   3.544  10.590  0.3228 -0.1016  0.8701
  174SAPI   O2219718   4.739   3.645  10.650  0.0100 -0.0538 -0.5347
  174SAPI   C2219719   4.737   3.511  10.443  0.0599 -1.0096  0.4258
  174SAPI   H2R19720   4.821   3.563  10.392  0.9015  0.1086  2.7986
  174SAPI   H2S19721   4.731   3.402  10.422  1.4504 -0.9869 -0.1844
  174SAPI    C319722   4.990   3.530  10.796 -0.1976  0.2375 -0.1687
  174SAPI    HX19723   5.011   3.536  10.905 -0.2959  0.4406 -0.1592
  174SAPI    HY19724   4.976   3.638  10.775 -1.0455 -0.2703 -2.3989
  174SAPI   O3119725   5.103   3.467  10.730  0.2626  0.0709  1.2277
  174SAPI   C3119726   5.178   3.553  10.668  0.7962  0.0756 -0.4474
  174SAPI   O3219727   5.175   3.673  10.663 -0.0415 -0.1029 -0.4710
  174SAPI   C3219728   5.293   3.490  10.582  0.4104  0.1883  0.0116
  174SAPI   H2X19729   5.357   3.433  10.652 -0.2174  0.5372  0.8891
  174SAPI   H2Y19730   5.364   3.572  10.557  1.3018 -0.0193  1.6971
  174SAPI   C2319731   4.608   3.589  10.394 -0.4655  0.7861 -0.2330
  174SAPI   H3R19732   4.625   3.696  10.421 -0.7033  0.7797 -0.0557
  174SAPI   H3S19733   4.519   3.551  10.447  0.5526 -0.9110  0.3346
  174SAPI   C2419734   4.590   3.569  10.243  0.1452  0.1481  0.0379
  174SAPI   H4R19735   4.586   3.459  10.223  1.7341 -0.0487  0.6222
  174SAPI   H4S19736   4.688   3.594  10.196  0.2845 -0.3941  0.0272
  174SAPI   C2519737   4.466   3.638  10.200 -0.7148  0.3387  1.0766
  174SAPI   H5R19738   4.392   3.648  10.281 -0.5365 -0.3428  1.3297
  174SAPI   C2619739   4.443   3.681  10.077  0.3690 -0.9997  0.3820
  174SAPI   H6R19740   4.344   3.724  10.060  1.8718  2.4076 -0.6929
  174SAPI   C2719741   4.537   3.677   9.959  0.3263 -0.8233 -0.3301
  174SAPI   H7R19742   4.609   3.595   9.979 -2.1615 -3.5191 -1.6029
  174SAPI   H7S19743   4.594   3.772   9.966  0.6726 -0.9944 -0.7847
  174SAPI   C2819744   4.468   3.650   9.830  0.1175  1.4438  0.3601
  174SAPI   H8R19745   4.401   3.563   9.832  0.8115  0.8823 -0.4797
  174SAPI   C2919746   4.483   3.716   9.714 -0.3260  0.3052 -0.6395
  174SAPI   H9R19747   4.422   3.692   9.626 -0.1670  1.1990 -1.0155
  174SAPI  C21019748   4.574   3.834   9.686 -0.6369 -0.6437  0.5037
  174SAPI  H10R19749   4.674   3.800   9.652 -0.6628  0.1484 -0.3997
  174SAPI  H10S19750   4.599   3.890   9.779  3.4196  0.5828 -1.1109
  174SAPI  C21119751   4.529   3.923   9.577 -0.3511  0.9443  0.1394
  174SAPI  H11R19752   4.447   3.877   9.520  0.4849 -2.2569  1.3061
  174SAPI  C21219753   4.589   4.036   9.536  0.5436  0.6561 -0.3456
  174SAPI  H12R19754   4.542   4.082   9.447 -1.1934 -2.8593 -1.4397
  174SAPI  C21319755   4.705   4.111   9.602  0.2567 -0.3436  0.0269
  174SAPI  H13R19756   4.780   4.034   9.631 -0.2519 -1.4426 -1.4250
  174SAPI  H13S19757   4.659   4.165   9.688  1.2035  2.3267 -1.0430
  174SAPI  C21419758   4.791   4.209   9.527 -0.1241  0.1700  0.1883
  174SAPI  H14R19759   4.765   4.221   9.421 -0.6307 -0.6271  0.2098
  174SAPI  C21519760   4.887   4.292   9.576  1.2940 -0.6899 -0.1570
  174SAPI  H15R19761   4.939   4.364   9.512 -0.3048 -0.9680 -1.8716
  174SAPI  C21619762   4.928   4.297   9.722 -0.0833  0.9394  0.0076
  174SAPI  H16R19763   4.851   4.245   9.783 -1.1357 -1.3316 -3.0364
  174SAPI  H16S19764   4.947   4.398   9.765  1.0640  0.7911 -0.1149
  174SAPI  C21719765   5.055   4.213   9.740 -0.3301  0.0505 -0.5845
  174SAPI  H17R19766   5.142   4.276   9.714  2.7950 -3.0810  1.3264
  174SAPI  H17S19767   5.058   4.120   9.679 -1.0364  2.2167 -4.2097
  174SAPI  C21819768   5.080   4.178   9.887  0.0476 -0.5402  0.0309
  174SAPI  H18R19769   5.156   4.099   9.903 -0.2934 -0.8794 -0.0355
  174SAPI  H18S19770   4.982   4.138   9.920 -0.5280  0.9456  0.2194
  174SAPI  C21919771   5.108   4.308   9.966 -1.1857 -0.2143  0.0099
  174SAPI  H19R19772   5.015   4.368   9.980 -1.5453 -0.4075 -1.4353
  174SAPI  H19S19773   5.187   4.361   9.910 -0.7748  0.1989  0.9549
  174SAPI  C22019774   5.142   4.280  10.113  0.5336  0.4450 -0.1689
  174SAPI  H20R19775   5.060   4.222  10.161  0.8614 -0.1977 -0.3818
  174SAPI  H20S19776   5.149   4.374  10.173  0.2777  1.7449 -2.0916
  174SAPI  H20T19777   5.233   4.218  10.128  0.1676 -0.0053  0.2415
  174SAPI   C3319778   5.254   3.427  10.451  0.2399  0.1552  0.5295
  174SAPI   H3X19779   5.186   3.344  10.478  0.5612 -0.3001 -0.0296
  174SAPI   H3Y19780   5.344   3.375  10.413 -1.7477 -3.3381  0.2463
  174SAPI   C3419781   5.187   3.514  10.344  0.3330  0.2071  0.4021
  174SAPI   H4X19782   5.269   3.561  10.286  0.7332 -3.3260 -2.2702
  174SAPI   H4Y19783   5.124   3.589  10.396 -0.2994 -1.4601  2.1726
  174SAPI   C3519784   5.094   3.440  10.244  0.6363  0.5802  0.1226
  174SAPI   H5X19785   5.003   3.406  10.298  0.4385  0.7935 -0.0784
  174SAPI   H5Y19786   5.145   3.354  10.195  2.2839  3.4262 -3.6463
  174SAPI   C3619787   5.042   3.534  10.134  0.3266  0.1218  0.6450
  174SAPI   H6X19788   5.135   3.577  10.090  1.7025 -1.9476  1.3541
  174SAPI   H6Y19789   4.982   3.618  10.175  0.9862 -0.8292  3.8296
  174SAPI   C3719790   4.976   3.462  10.008 -0.1791  0.4112 -0.5766
  174SAPI   H7X19791   4.892   3.402  10.048  0.5062  0.1358  0.4757
  174SAPI   H7Y19792   5.042   3.384   9.966  1.0745  0.0910  1.8228
  174SAPI   C3819793   4.927   3.563   9.905 -1.2823 -0.0613 -0.3024
  174SAPI   H8X19794   4.890   3.655   9.956  2.9555  2.0046 -0.5147
  174SAPI   H8Y19795   4.839   3.520   9.853 -1.3460 -0.9625  0.5362
  174SAPI   C3919796   5.043   3.604   9.813 -0.3472  0.7266  0.6939
  174SAPI   H9X19797   5.097   3.512   9.780 -0.1267  0.8846  0.6075
  174SAPI   H9Y19798   5.123   3.660   9.867  1.1619  1.4568 -2.0845
  174SAPI  C31019799   4.995   3.688   9.697  0.4276  0.2646 -0.0496
  174SAPI  H10X19800   5.079   3.723   9.633  1.2907 -1.4758  0.0484
  174SAPI  H10Y19801   4.939   3.778   9.728  1.9379  0.7554  1.4208
  174SAPI  C31119802   4.907   3.601   9.594  0.2572 -0.5996  0.9386
  174SAPI  H11X19803   4.805   3.587   9.637 -0.5208  0.5423 -0.4273
  174SAPI  H11Y19804   4.955   3.501   9.584 -0.7560 -1.1002  0.9124
  174SAPI  C31219805   4.894   3.668   9.456 -0.9679  0.2011 -0.0634
  174SAPI  H12X19806   4.993   3.668   9.407 -0.2788  0.7417  1.2771
  174SAPI  H12Y19807   4.869   3.775   9.476 -2.5567 -0.2946  0.8220
  174SAPI  C31319808   4.784   3.616   9.367 -0.3887  0.1678  0.4485
  174SAPI  H13X19809   4.694   3.599   9.431 -0.2528 -0.6611  0.4348
  174SAPI  H13Y19810   4.809   3.519   9.319  1.5339 -0.0684  1.8374
  174SAPI  C31419811   4.759   3.701   9.245  0.1188  0.4891  0.5377
  174SAPI  H14X19812   4.734   3.805   9.274 -0.6115  0.1946  0.9919
  174SAPI  H14Y19813   4.674   3.650   9.195  0.5570 -0.1414  0.4198
  174SAPI  C31519814   4.878   3.702   9.140 -0.1591  0.5339 -0.1988
  174SAPI  H15X19815   4.895   3.605   9.088 -3.9850 -0.3185 -0.1585
  174SAPI  H15Y19816   4.966   3.750   9.189 -1.0540  2.2087 -0.1482
  174SAPI  C31619817   4.841   3.799   9.017  0.4732  0.5874 -0.3739
  174SAPI  H16X19818   4.825   3.900   9.060  2.8316  1.0295 -0.3767
  174SAPI  H16Y19819   4.750   3.767   8.963  1.0349 -0.5342 -0.6898
  174SAPI  C31719820   4.956   3.819   8.920  0.0731  0.0768 -0.0536
  174SAPI  H17X19821   5.001   3.720   8.898  0.9515  0.3087  0.6614
  174SAPI  H17Y19822   5.021   3.896   8.968  1.6877 -1.6382  0.6075
  174SAPI  C31819823   4.906   3.867   8.790  0.2131 -0.4115  0.1227
  174SAPI  H18X19824   4.988   3.897   8.722 -0.3832  1.8365  0.3124
  174SAPI  H18Y19825   4.836   3.954   8.786  1.5657  0.7282  0.4822
  174SAPI  H18Z19826   4.854   3.784   8.737 -1.1713 -0.3347  1.3116
  175SAPI   C1219827   6.709   0.112   6.451  0.6293  0.4716  0.3954
  175SAPI    H219828   6.685   0.103   6.559  0.3141 -1.5041  0.1942
  175SAPI    O219829   6.845   0.140   6.434  0.1046 -0.1131 -0.7832
  175SAPI   HO219830   6.863   0.209   6.499 -2.0202 -0.4970  0.3045
  175SAPI   C1319831   6.677  -0.026   6.401 -0.0315  0.1775  0.7319
  175SAPI    H319832   6.569  -0.052   6.405  0.0639 -0.5583 -0.7939
  175SAPI    O319833   6.756  -0.129   6.455  0.1648 -0.1473  0.0818
  175SAPI   HO319834   6.835  -0.085   6.490 -0.2029  3.3718 -2.8017
  175SAPI   C1419835   6.701  -0.029   6.252  0.1861  0.0104  0.3278
  175SAPI    H419836   6.808  -0.009   6.231  0.0498  1.8197  1.1609
  175SAPI    O419837   6.677  -0.161   6.187  0.4959 -0.4708 -0.1513
  175SAPI   HO419838   6.756  -0.212   6.207 -0.6643 -2.2639  0.1644
  175SAPI   C1519839   6.629   0.079   6.169 -0.3409  0.2472  0.0672
  175SAPI    H519840   6.520   0.060   6.174 -0.0163 -1.8863  0.1532
  175SAPI    O519841   6.660   0.082   6.028 -0.0520  0.1761 -0.0851
  175SAPI   HO519842   6.743   0.036   6.021 -0.1437  0.0739 -0.5535
  175SAPI   C1619843   6.652   0.219   6.239  0.0595  0.6443 -0.0510
  175SAPI    H619844   6.756   0.258   6.239 -0.0316  1.0828  2.9104
  175SAPI    O619845   6.566   0.318   6.179  0.3540 -0.1773  0.3365
  175SAPI   HO619846   6.608   0.404   6.186 -0.6638  0.2833  1.0023
  175SAPI   C1119847   6.617   0.209   6.382  0.6582  0.3767  0.0647
  175SAPI    H119848   6.512   0.175   6.394  0.3339  1.2064 -0.3330
  175SAPI     P19849   6.539   0.425   6.525  0.1543 -0.0652  0.4145
  175SAPI   O1319850   6.417   0.446   6.443  0.1790  0.0514 -0.3892
  175SAPI   O1419851   6.609   0.546   6.561  0.4382  0.1333  0.7582
  175SAPI   O1219852   6.643   0.329   6.448 -0.1286  0.2549  0.0638
  175SAPI   O1119853   6.508   0.347   6.655  0.3540  0.2958  0.3308
  175SAPI    C119854   6.589   0.331   6.773 -0.5224  0.0127 -0.3167
  175SAPI    HA19855   6.699   0.332   6.755 -0.4545  0.4291  0.0902
  175SAPI    HB19856   6.565   0.413   6.844  0.1009  1.4187 -1.6680
  175SAPI    C219857   6.549   0.194   6.840 -0.5099 -0.1285 -0.2623
  175SAPI    HS19858   6.548   0.108   6.770  3.1839 -0.6781  0.1504
  175SAPI   O2119859   6.426   0.201   6.912 -0.4730 -0.1768 -0.3985
  175SAPI   C2119860   6.338   0.109   6.895  0.6722  0.5482 -0.7099
  175SAPI   O2219861   6.345   0.009   6.821  0.1968  0.1079 -1.0987
  175SAPI   C2219862   6.233   0.130   7.000  0.4612 -0.0165  0.1101
  175SAPI   H2R19863   6.252   0.047   7.071  0.0943 -1.4879 -1.4550
  175SAPI   H2S19864   6.248   0.224   7.057  1.4016  0.9098 -1.5756
  175SAPI    C319865   6.659   0.164   6.948 -0.1095 -0.2657  0.3324
  175SAPI    HX19866   6.753   0.158   6.890 -0.4566  1.2366 -0.4366
  175SAPI    HY19867   6.639   0.062   6.988 -0.0827  0.5243  2.4723
  175SAPI   O3119868   6.666   0.255   7.056 -0.6727 -0.1242 -0.0325
  175SAPI   C3119869   6.587   0.220   7.155 -0.1093 -0.5923 -0.2290
  175SAPI   O3219870   6.533   0.110   7.165  0.1356 -0.1300 -0.2277
  175SAPI   C3219871   6.570   0.332   7.259  0.2635  0.1778 -0.0493
  175SAPI   H2X19872   6.460   0.341   7.271  0.2354  1.0517 -0.8408
  175SAPI   H2Y19873   6.611   0.422   7.209  0.2433 -0.4591 -1.2606
  175SAPI   C2319874   6.090   0.110   6.943 -0.0400  0.6908  0.4379
  175SAPI   H3R19875   6.096   0.027   6.870  2.0107  0.7309  0.5106
  175SAPI   H3S19876   6.062   0.199   6.883  0.6184  0.7402  0.2002
  175SAPI   C2419877   5.979   0.069   7.043  0.4201 -0.3905  0.3005
  175SAPI   H4R19878   6.023  -0.017   7.100  1.2848 -0.9895 -1.2185
  175SAPI   H4S19879   5.890   0.035   6.986  1.1539 -0.7062 -0.6784
  175SAPI   C2519880   5.925   0.172   7.134  0.3008 -0.1101 -0.5356
  175SAPI   H5R19881   5.865   0.251   7.085  3.4856  2.1456 -1.1034
  175SAPI   C2619882   5.945   0.176   7.268 -0.5738  0.4566 -0.3072
  175SAPI   H6R19883   5.890   0.258   7.315 -1.4249  0.3929 -1.1729
  175SAPI   C2719884   6.022   0.090   7.359 -0.0423 -0.0269 -0.2628
  175SAPI   H7R19885   6.095   0.024   7.307  0.5891 -0.6167  1.2998
  175SAPI   H7S19886   5.963   0.017   7.419  1.4792 -1.8984 -0.9140
  175SAPI   C2819887   6.110   0.176   7.450 -0.9620  0.7773  0.7450
  175SAPI   H8R19888   6.186   0.236   7.398 -0.3938 -0.7305 -0.2235
  175SAPI   C2919889   6.120   0.189   7.582  0.5949 -0.0070 -0.4586
  175SAPI   H9R19890   6.186   0.258   7.637 -2.5198  1.2139  2.0791
  175SAPI  C21019891   6.037   0.110   7.680 -0.3966 -0.4099 -0.1197
  175SAPI  H10R19892   6.106   0.039   7.730  0.9626  1.6328  1.0008
  175SAPI  H10S19893   5.952   0.047   7.645 -2.4813  1.9319  0.3860
  175SAPI  C21119894   5.989   0.221   7.780  0.7854  0.3673 -0.1301
  175SAPI  H11R19895   5.903   0.284   7.754 -1.0793 -2.6615 -1.7668
  175SAPI  C21219896   6.043   0.241   7.898 -0.1429 -0.2319  0.7597
  175SAPI  H12R19897   5.999   0.322   7.958 -1.7017 -1.0374  0.7462
  175SAPI  C21319898   6.153   0.164   7.964 -0.3256  0.2169 -0.1438
  175SAPI  H13R19899   6.229   0.145   7.885 -0.6077 -2.8483  0.1819
  175SAPI  H13S19900   6.126   0.059   7.989  1.4472 -0.1846  0.2322
  175SAPI  C21419901   6.233   0.240   8.069 -0.4909  0.0495  0.8038
  175SAPI  H14R19902   6.271   0.339   8.040 -0.6136 -0.2759 -0.5065
  175SAPI  C21519903   6.266   0.202   8.197 -0.0517 -0.1945 -0.1589
  175SAPI  H15R19904   6.314   0.268   8.270  1.1474 -2.2608  1.0265
  175SAPI  C21619905   6.217   0.077   8.263  0.3357  0.0804 -0.5260
  175SAPI  H16R19906   6.303   0.043   8.324  0.6460 -2.9588 -2.4519
  175SAPI  H16S19907   6.193  -0.001   8.188  4.9250  0.5471 -2.8436
  175SAPI  C21719908   6.081   0.101   8.344 -0.3858 -0.2614 -0.7238
  175SAPI  H17R19909   6.032   0.002   8.357  0.2834 -0.6285 -0.9611
  175SAPI  H17S19910   6.016   0.154   8.271  1.1756 -0.4310 -2.2960
  175SAPI  C21819911   6.090   0.178   8.482  0.1161 -0.3700  0.8113
  175SAPI  H18R19912   5.987   0.187   8.522 -0.1216 -0.2784  0.2050
  175SAPI  H18S19913   6.123   0.284   8.472 -2.7531  0.5957  0.7092
  175SAPI  C21919914   6.181   0.094   8.576 -0.4098  0.1645  0.9088
  175SAPI  H19R19915   6.287   0.087   8.542 -0.5558 -1.2406  0.7039
  175SAPI  H19S19916   6.143  -0.010   8.581  1.2081 -0.4078  2.5678
  175SAPI  C22019917   6.181   0.147   8.717  0.0507  0.7066 -0.1364
  175SAPI  H20R19918   6.090   0.115   8.771  0.3530  0.1395  0.0532
  175SAPI  H20S19919   6.191   0.257   8.724 -0.6312  0.7541  0.2167
  175SAPI  H20T19920   6.275   0.112   8.765  0.3796 -0.3257 -1.4612
  175SAPI   C3319921   6.646   0.299   7.387  0.1893  0.0152 -0.3376
  175SAPI   H3X19922   6.675   0.385   7.450 -1.4127  0.3492 -0.0070
  175SAPI   H3Y19923   6.745   0.252   7.370  0.1707 -0.8583  1.7335
  175SAPI   C3419924   6.573   0.204   7.490  0.4376  0.3506  0.2070
  175SAPI   H4X19925   6.550   0.105   7.445  0.6405  1.4213 -2.4494
  175SAPI   H4Y19926   6.472   0.249   7.497  0.0088 -0.3888 -0.9718
  175SAPI   C3519927   6.653   0.172   7.608  0.1756 -0.5990  0.4413
  175SAPI   H5X19928   6.675   0.274   7.648 -1.6470 -0.6427  1.7028
  175SAPI   H5Y19929   6.743   0.130   7.560 -0.8498  0.7392 -2.9726
  175SAPI   C3619930   6.592   0.072   7.700  0.0036 -0.1148 -0.4805
  175SAPI   H6X19931   6.570  -0.030   7.662 -0.6341  0.0868 -0.6638
  175SAPI   H6Y19932   6.493   0.109   7.733  1.0190  0.9968  1.4911
  175SAPI   C3719933   6.678   0.057   7.827  0.0111  0.2384 -0.5629
  175SAPI   H7X19934   6.701   0.154   7.876 -1.6902 -0.1913  1.2000
  175SAPI   H7Y19935   6.778   0.014   7.804 -0.5272 -1.1885 -0.3502
  175SAPI   C3819936   6.604  -0.031   7.934 -0.8414 -0.4519 -0.1474
  175SAPI   H8X19937   6.565  -0.125   7.889 -0.0252 -1.0485  0.3634
  175SAPI   H8Y19938   6.526   0.027   7.988  0.0747  1.8271 -1.1366
  175SAPI   C3919939   6.702  -0.075   8.042  0.7477  0.1863  0.0148
  175SAPI   H9X19940   6.785  -0.138   8.005 -0.4681 -1.3174 -0.2831
  175SAPI   H9Y19941   6.641  -0.139   8.110 -1.0302  1.0379 -0.7043
  175SAPI  C31019942   6.752   0.032   8.132 -0.4252 -0.0743  0.3676
  175SAPI  H10X19943   6.668   0.087   8.180 -0.5116  0.6176 -0.5679
  175SAPI  H10Y19944   6.818   0.104   8.079 -0.4916 -0.4025 -0.1711
  175SAPI  C31119945   6.835  -0.026   8.252 -0.4234 -0.2890 -0.7854
  175SAPI  H11X19946   6.773  -0.075   8.329 -0.4660  1.7417  0.5612
  175SAPI  H11Y19947   6.864   0.067   8.306 -0.9028 -1.0836  0.9075
  175SAPI  C31219948   6.961  -0.111   8.210  0.0644 -0.4030  0.3050
  175SAPI  H12X19949   6.994  -0.054   8.121 -0.5226 -0.0694  0.2942
  175SAPI  H12Y19950   6.919  -0.207   8.171  1.9408 -1.3224  0.4356
  175SAPI  C31319951   7.066  -0.141   8.311  0.2203  0.2961  0.8070
  175SAPI  H13X19952   7.130  -0.226   8.279  1.2673  1.7735 -1.3572
  175SAPI  H13Y19953   7.000  -0.180   8.392  1.7159  1.4583  2.6470
  175SAPI  C31419954   7.155  -0.033   8.360 -0.0701 -0.7582  0.1455
  175SAPI  H14X19955   7.089   0.053   8.383 -0.2024 -0.9082  0.3271
  175SAPI  H14Y19956   7.226   0.000   8.281 -0.6316  1.3718  0.4711
  175SAPI  C31519957   7.230  -0.092   8.486  0.6437 -0.6051  0.7939
  175SAPI  H15X19958   7.295  -0.173   8.446 -0.9147 -0.3923 -2.4915
  175SAPI  H15Y19959   7.159  -0.139   8.557 -0.8549  0.9028  0.3355
  175SAPI  C31619960   7.305   0.017   8.560 -1.1095 -0.0215 -0.3382
  175SAPI  H16X19961   7.241   0.090   8.613  0.9655  2.2593 -0.7877
  175SAPI  H16Y19962   7.374   0.068   8.490  2.7319 -0.6842  2.6268
  175SAPI  C31719963   7.391  -0.032   8.676  0.4203 -0.1117 -0.3240
  175SAPI  H17X19964   7.481  -0.086   8.639  0.2077 -0.3602 -0.4878
  175SAPI  H17Y19965   7.346  -0.109   8.742  3.5205 -1.3199  0.5539
  175SAPI  C31819966   7.442   0.075   8.769 -0.1850  0.6522 -0.2051
  175SAPI  H18X19967   7.516   0.041   8.844 -0.5224  2.7823  1.2166
  175SAPI  H18Y19968   7.354   0.108   8.829 -0.4553 -0.0999 -0.1875
  175SAPI  H18Z19969   7.484   0.156   8.706 -1.8085 -0.1674 -2.4656
  176SAPI   C1219970   4.188   6.788   6.356 -0.3447  0.1200  0.2129
  176SAPI    H219971   4.175   6.690   6.408  0.7138 -0.5278 -0.6912
  176SAPI    O219972   4.261   6.758   6.235  0.0434 -0.1551 -0.3180
  176SAPI   HO219973   4.341   6.711   6.256 -0.6917 -3.0343 -3.2925
  176SAPI   C1319974   4.047   6.836   6.312  0.2803 -0.2176  0.9849
  176SAPI    H319975   3.992   6.856   6.407  0.2117 -0.5857  1.0231
  176SAPI    O319976   3.967   6.737   6.243 -0.0442 -0.2362  0.2519
  176SAPI   HO319977   3.882   6.729   6.287 -0.2999  1.1142  0.0462
  176SAPI   C1419978   4.060   6.966   6.240  0.2006 -0.0810 -0.3872
  176SAPI    H419979   4.119   6.950   6.147  1.3998  0.3790  0.2809
  176SAPI    O419980   3.929   7.007   6.199  0.3197 -0.5099  0.0674
  176SAPI   HO419981   3.935   7.046   6.112 -0.4721 -0.0883  0.1958
  176SAPI   C1519982   4.133   7.077   6.314 -0.5215  0.3931 -0.0140
  176SAPI    H519983   4.073   7.082   6.407  2.2161 -2.0942  2.0790
  176SAPI    O519984   4.138   7.192   6.235  0.7831 -0.8679 -0.0987
  176SAPI   HO519985   4.200   7.189   6.161 -0.7409  1.5410 -1.6016
  176SAPI   C1619986   4.266   7.023   6.353  0.3774 -0.6928 -0.2781
  176SAPI    H619987   4.325   7.018   6.258  0.5926  1.6891 -0.3107
  176SAPI    O619988   4.316   7.122   6.445 -0.7198 -0.0520 -0.1334
  176SAPI   HO619989   4.392   7.165   6.404 -0.3957 -2.3436 -2.1632
  176SAPI   C1119990   4.254   6.899   6.433  0.0131  0.0312 -0.4755
  176SAPI    H119991   4.181   6.912   6.517 -0.5837 -1.0331 -0.8020
  176SAPI     P19992   4.379   6.795   6.643  0.1468  0.1507 -0.0495
  176SAPI   O1319993   4.493   6.703   6.652 -0.6056 -0.5698 -0.3527
  176SAPI   O1419994   4.245   6.742   6.680 -0.1560 -0.4070 -0.1694
  176SAPI   O1219995   4.376   6.851   6.480 -0.5046  0.6901 -1.0121
  176SAPI   O1119996   4.412   6.929   6.717 -0.2359 -0.1552  0.5945
  176SAPI    C119997   4.542   6.972   6.759 -0.1123 -0.0670  0.1156
  176SAPI    HA19998   4.615   6.953   6.677 -1.0708  1.7573 -1.2369
  176SAPI    HB19999   4.537   7.083   6.764 -1.8694 -0.0647 -0.9980
  176SAPI    C220000   4.598   6.917   6.895  0.9679 -0.2976 -0.3851
  176SAPI    HS20001   4.634   6.813   6.874 -2.8911 -1.4408 -2.3015
  176SAPI   O2120002   4.492   6.925   6.993 -0.1522  0.1658  0.1433
  176SAPI   C2120003   4.435   6.813   7.034  0.5120 -0.3354  0.2697
  176SAPI   O2220004   4.466   6.700   7.003 -0.0764  0.5179  0.5410
  176SAPI   C2220005   4.320   6.859   7.121  0.2367  0.2055  0.1912
  176SAPI   H2R20006   4.266   6.934   7.059 -1.1331 -1.4785 -0.7687
  176SAPI   H2S20007   4.250   6.773   7.130 -0.7772  0.9503 -0.3651
  176SAPI    C320008   4.715   7.000   6.940 -0.9768 -0.2694  0.0005
  176SAPI    HX20009   4.695   7.109   6.948  1.4754  0.2837 -0.4543
  176SAPI    HY20010   4.791   6.990   6.860 -0.6147  0.3046  0.2674
  176SAPI   O3120011   4.769   6.956   7.065  0.5731 -0.5769 -0.4676
  176SAPI   C3120012   4.841   6.848   7.065 -0.3365 -0.0661  0.6188
  176SAPI   O3220013   4.871   6.785   6.965  0.5042 -0.0772  0.1654
  176SAPI   C3220014   4.890   6.818   7.205 -0.4228  0.4779  0.2625
  176SAPI   H2X20015   4.833   6.884   7.274  2.6392  0.4131  3.0841
  176SAPI   H2Y20016   4.991   6.862   7.222  0.3712 -0.0006 -2.6381
  176SAPI   C2320017   4.369   6.924   7.253 -0.4350  0.3442  0.4451
  176SAPI   H3R20018   4.282   6.968   7.306 -0.1929 -0.2165  1.3322
  176SAPI   H3S20019   4.443   7.006   7.238 -1.1808  1.3931  2.1470
  176SAPI   C2420020   4.433   6.822   7.353 -0.5237  0.5460  0.8967
  176SAPI   H4R20021   4.543   6.815   7.334 -0.1702 -3.3608  3.2387
  176SAPI   H4S20022   4.396   6.725   7.313  1.6535 -0.1748  0.4855
  176SAPI   C2520023   4.413   6.847   7.498  0.3808 -0.0591  0.2597
  176SAPI   H5R20024   4.309   6.861   7.532  0.9595  0.6683  1.8668
  176SAPI   C2620025   4.504   6.859   7.598 -0.5347  0.4412  0.1496
  176SAPI   H6R20026   4.472   6.866   7.703 -0.7180 -0.5813  0.1751
  176SAPI   C2720027   4.654   6.856   7.583  0.1034  0.1305  0.4166
  176SAPI   H7R20028   4.689   6.950   7.631  0.5842 -0.4560  1.2323
  176SAPI   H7S20029   4.689   6.855   7.478 -1.0404  1.1847  0.0046
  176SAPI   C2820030   4.710   6.729   7.649  0.1103  0.2140 -0.3827
  176SAPI   H8R20031   4.710   6.640   7.584  2.9160 -1.1169  1.2540
  176SAPI   C2920032   4.733   6.710   7.783  0.0914 -0.3039 -0.3500
  176SAPI   H9R20033   4.762   6.607   7.809 -1.5443 -0.6453  0.2468
  176SAPI  C21020034   4.712   6.808   7.893 -0.7705 -0.4734  0.5043
  176SAPI  H10R20035   4.666   6.901   7.854  1.0755 -0.3246 -1.5104
  176SAPI  H10S20036   4.813   6.842   7.922 -0.0520  1.1215 -3.2334
  176SAPI  C21120037   4.640   6.753   8.012  0.0870  0.6059  0.0356
  176SAPI  H11R20038   4.537   6.726   7.987 -0.2347  0.8526  1.0561
  176SAPI  C21220039   4.680   6.754   8.141  0.6009  0.1871 -0.0614
  176SAPI  H12R20040   4.625   6.687   8.209  0.6089  0.0994 -0.1412
  176SAPI  C21320041   4.811   6.800   8.202 -0.3576  0.4645  0.1383
  176SAPI  H13R20042   4.893   6.797   8.128  0.0694  0.1926  0.6091
  176SAPI  H13S20043   4.839   6.728   8.283 -0.9126  0.4532  0.3225
  176SAPI  C21420044   4.792   6.938   8.256 -0.4580  0.3155 -0.4524
  176SAPI  H14R20045   4.778   7.018   8.182 -5.6187 -0.5366 -0.7645
  176SAPI  C21520046   4.761   6.963   8.385 -0.2089 -0.6292  0.2761
  176SAPI  H15R20047   4.731   7.064   8.417  1.0353 -0.4440  0.9039
  176SAPI  C21620048   4.753   6.867   8.497  0.1263 -0.4090 -0.4040
  176SAPI  H16R20049   4.858   6.845   8.529  0.2830 -0.2086 -0.7687
  176SAPI  H16S20050   4.713   6.770   8.459 -1.3703 -0.0657  0.2283
  176SAPI  C21720051   4.674   6.911   8.623 -0.1023 -0.0279 -0.3502
  176SAPI  H17R20052   4.662   6.817   8.681 -0.5928 -0.3155 -0.9215
  176SAPI  H17S20053   4.574   6.940   8.584  0.4881 -1.2720 -3.0040
  176SAPI  C21820054   4.734   7.023   8.719  0.3061  0.2159 -0.0837
  176SAPI  H18R20055   4.759   7.116   8.664 -0.3042  0.4935  0.0953
  176SAPI  H18S20056   4.830   6.983   8.756 -1.2420 -3.3541  0.5150
  176SAPI  C21920057   4.641   7.057   8.833 -0.2506  0.6905  0.0241
  176SAPI  H19R20058   4.543   7.074   8.784  0.1260  0.5475 -0.7896
  176SAPI  H19S20059   4.674   7.156   8.871  0.1863  1.2836 -1.7940
  176SAPI  C22020060   4.618   6.965   8.940  0.4045 -0.7236 -0.3515
  176SAPI  H20R20061   4.697   6.968   9.018  0.5415  0.6686 -0.5188
  176SAPI  H20S20062   4.607   6.860   8.905  2.4397 -1.5606  1.2902
  176SAPI  H20T20063   4.520   7.003   8.978  0.6364  0.5545 -0.9898
  176SAPI   C3320064   4.901   6.662   7.229 -0.5783  0.1758 -0.1027
  176SAPI   H3X20065   4.944   6.617   7.137  1.6108 -1.5859  1.6747
  176SAPI   H3Y20066   4.809   6.603   7.251  0.2959 -0.3120  2.6113
  176SAPI   C3420067   4.997   6.637   7.345  0.1317 -0.4698  0.1967
  176SAPI   H4X20068   5.099   6.628   7.300 -0.6436  1.7059 -2.2259
  176SAPI   H4Y20069   4.987   6.537   7.393  0.5114 -0.4729  0.2714
  176SAPI   C3520070   5.002   6.746   7.461  0.7702  0.2867  0.2879
  176SAPI   H5X20071   4.902   6.786   7.486  0.6577  0.0388  0.2384
  176SAPI   H5Y20072   5.062   6.834   7.429 -1.0133  1.7920  0.9319
  176SAPI   C3620073   5.056   6.694   7.596  0.0239  0.2921  0.1578
  176SAPI   H6X20074   5.158   6.652   7.581  0.2278  1.0210 -0.6074
  176SAPI   H6Y20075   4.993   6.611   7.633 -0.2201  0.5912  0.4173
  176SAPI   C3720076   5.085   6.810   7.699  0.4928  0.5111  0.4569
  176SAPI   H7X20077   4.990   6.867   7.710  0.1628 -0.0317  0.4321
  176SAPI   H7Y20078   5.162   6.880   7.658  1.2523 -1.8678 -2.5039
  176SAPI   C3820079   5.126   6.749   7.842  0.1021 -0.6677  0.3364
  176SAPI   H8X20080   5.228   6.710   7.818  0.2957  1.0398 -1.9686
  176SAPI   H8Y20081   5.046   6.681   7.876  1.3724 -2.5556 -0.2826
  176SAPI   C3920082   5.148   6.861   7.947 -0.0079  1.0322  0.5982
  176SAPI   H9X20083   5.048   6.894   7.982 -0.0812  0.1756  1.2415
  176SAPI   H9Y20084   5.204   6.942   7.897 -1.4036  1.0605 -1.0445
  176SAPI  C31020085   5.224   6.818   8.066  0.0556  0.5387 -0.1216
  176SAPI  H10X20086   5.326   6.789   8.034  0.0536 -3.1812  2.5949
  176SAPI  H10Y20087   5.186   6.719   8.100 -0.9736  1.0500  0.2557
  176SAPI  C31120088   5.226   6.909   8.187  0.4165  0.1293  0.2544
  176SAPI  H11X20089   5.119   6.929   8.209 -0.0209 -1.6445 -0.1145
  176SAPI  H11Y20090   5.262   7.009   8.157 -2.2391  0.6937 -1.2899
  176SAPI  C31220091   5.296   6.851   8.313 -0.3268 -0.3204 -0.2375
  176SAPI  H12X20092   5.294   6.933   8.387 -0.3655  0.5699 -1.1944
  176SAPI  H12Y20093   5.400   6.814   8.296  0.6597  2.8107 -1.7608
  176SAPI  C31320094   5.192   6.746   8.368  0.7885  0.2796 -0.1651
  176SAPI  H13X20095   5.204   6.659   8.300  0.0395  0.0479 -0.0126
  176SAPI  H13Y20096   5.088   6.785   8.369  0.2111 -1.1820  0.0788
  176SAPI  C31420097   5.221   6.687   8.505  0.5956  0.2390  0.1404
  176SAPI  H14X20098   5.323   6.645   8.521 -0.0043 -0.9349  1.0402
  176SAPI  H14Y20099   5.149   6.604   8.519  0.1214  0.4637 -0.9152
  176SAPI  C31520100   5.182   6.785   8.621  0.0356  0.1478 -0.8440
  176SAPI  H15X20101   5.074   6.808   8.638 -0.3292 -0.7458 -1.8461
  176SAPI  H15Y20102   5.242   6.878   8.612 -0.0312  0.3335  0.3670
  176SAPI  C31620103   5.228   6.720   8.759  0.1656  0.0225 -0.1136
  176SAPI  H16X20104   5.338   6.719   8.770  0.4770  2.3014 -2.0201
  176SAPI  H16Y20105   5.189   6.616   8.769  0.4361 -0.2248 -1.4701
  176SAPI  C31720106   5.196   6.790   8.893 -0.2329 -0.2051 -0.2788
  176SAPI  H17X20107   5.093   6.830   8.887 -0.2679  0.0343  1.4638
  176SAPI  H17Y20108   5.261   6.877   8.914 -1.4214  0.8811 -1.0001
  176SAPI  C31820109   5.211   6.693   9.008 -0.2708 -0.0968  0.1668
  176SAPI  H18X20110   5.309   6.642   8.997  0.7478  1.6453  0.8471
  176SAPI  H18Y20111   5.133   6.614   9.012  0.5143 -0.9373 -0.5738
  176SAPI  H18Z20112   5.211   6.755   9.100 -1.9361 -0.5050  0.4681
  177SLPC     N20113   5.421   4.956  11.210  0.1366 -0.3602  0.8331
  177SLPC   C1320114   5.338   5.083  11.221 -0.0724  0.2445 -0.3618
  177SLPC  H13A20115   5.404   5.169  11.213  1.3408 -0.2873  3.2478
  177SLPC  H13B20116   5.250   5.085  11.159 -1.0427 -0.4678  0.9422
  177SLPC  H13C20117   5.290   5.094  11.317 -1.4053  2.4028 -1.2038
  177SLPC   C1420118   5.327   4.841  11.244  0.5465  0.1231  0.1745
  177SLPC  H14A20119   5.335   4.811  11.347 -0.7904 -0.0220  0.2557
  177SLPC  H14B20120   5.224   4.844  11.212  1.1062  0.3124 -1.7432
  177SLPC  H14C20121   5.361   4.758  11.184 -0.6911  0.3135 -0.8249
  177SLPC   C1520122   5.538   4.957  11.303 -0.3488 -0.1058  0.4251
  177SLPC  H15A20123   5.601   4.873  11.276 -0.3243 -0.6899  2.1384
  177SLPC  H15B20124   5.605   5.042  11.303 -0.2756  0.0652 -3.9939
  177SLPC  H15C20125   5.514   4.931  11.405 -0.2776  0.6671  0.6379
  177SLPC   C1220126   5.468   4.946  11.064  0.5001  0.6334 -0.5086
  177SLPC  H12A20127   5.536   5.027  11.044  3.6804 -1.9140 -0.8855
  177SLPC  H12B20128   5.386   4.944  10.994  0.3118  0.6471 -0.2860
  177SLPC   C1120129   5.555   4.811  11.030  0.3737 -0.3002 -0.0375
  177SLPC  H11A20130   5.636   4.800  11.104  0.8070  1.3414 -0.2161
  177SLPC  H11B20131   5.602   4.843  10.935 -0.0759  2.0963  0.4766
  177SLPC     P20132   5.423   4.632  10.890  0.0143 -0.2112 -0.4832
  177SLPC   O1320133   5.396   4.491  10.919  0.0273 -0.2010 -0.2671
  177SLPC   O1420134   5.309   4.705  10.820  0.5966  0.2822 -0.3133
  177SLPC   O1220135   5.476   4.695  11.027  0.0190 -0.3884  0.4278
  177SLPC   O1120136   5.542   4.631  10.792 -0.3457  0.0826 -0.6599
  177SLPC    C120137   5.549   4.697  10.669 -0.8024 -0.1494 -0.2031
  177SLPC    HA20138   5.514   4.802  10.680  0.5841  0.2573  0.5264
  177SLPC    HB20139   5.655   4.691  10.638 -1.2780 -2.1398 -1.6760
  177SLPC    C220140   5.458   4.630  10.560  0.8775 -0.0466 -0.1247
  177SLPC    HS20141   5.356   4.625  10.604  1.0543  0.3731  0.3358
  177SLPC   O2120142   5.505   4.498  10.529 -0.5830  0.6016  0.1726
  177SLPC   C2120143   5.413   4.411  10.483 -0.0298  0.1090 -0.0268
  177SLPC   O2220144   5.294   4.423  10.482  0.4279 -0.2335  0.0198
  177SLPC   C2220145   5.487   4.295  10.406 -1.4509  0.0194 -0.0347
  177SLPC   H2R20146   5.538   4.217  10.468  1.8501  0.7875 -1.5305
  177SLPC   H2S20147   5.406   4.236  10.358  0.7863 -0.2351 -3.9217
  177SLPC    C320148   5.462   4.701  10.421  0.1348  0.4978  0.0717
  177SLPC    HX20149   5.559   4.674  10.375  0.0079 -0.5966  0.4172
  177SLPC    HY20150   5.456   4.807  10.456 -2.6302  0.0775  1.1350
  177SLPC   O3120151   5.345   4.682  10.335 -0.0926  0.5679  0.1139
  177SLPC   C3120152   5.354   4.732  10.218 -0.2215  0.5098  0.1122
  177SLPC   O3220153   5.454   4.796  10.182  0.0518 -0.6983  0.2425
  177SLPC   C3220154   5.237   4.688  10.130  0.5357 -0.2398  0.4410
  177SLPC   H2X20155   5.137   4.709  10.174  0.1503 -0.4932 -0.3020
  177SLPC   H2Y20156   5.251   4.581  10.104  1.2385  0.4648 -2.4186
  177SLPC   C2320157   5.592   4.342  10.300 -0.0735 -0.8186 -0.1865
  177SLPC   H3R20158   5.668   4.261  10.300  0.2308 -0.8904  4.9179
  177SLPC   H3S20159   5.655   4.430  10.327  0.6290 -0.3925 -2.9344
  177SLPC   C2420160   5.535   4.366  10.158 -0.6022  0.6689 -0.0278
  177SLPC   H4R20161   5.607   4.430  10.103 -2.6711  3.2142  0.0692
  177SLPC   H4S20162   5.441   4.424  10.167  0.2211  1.9410  0.7123
  177SLPC   C2520163   5.513   4.240  10.076 -0.4130 -0.4503 -0.1672
  177SLPC   H5R20164   5.435   4.175  10.120 -0.3142  0.1183  0.8891
  177SLPC   H5S20165   5.603   4.175  10.071 -1.0247 -1.3078 -0.0960
  177SLPC   C2620166   5.478   4.274   9.929  0.1427  0.1521 -0.7174
  177SLPC   H6R20167   5.414   4.365   9.923  1.1745  1.0973  1.5135
  177SLPC   H6S20168   5.419   4.189   9.889  0.1417  1.3334 -3.4267
  177SLPC   C2720169   5.603   4.287   9.838 -1.4827 -0.3519 -0.1861
  177SLPC   H7R20170   5.654   4.189   9.845  0.5618  0.7403  1.4172
  177SLPC   H7S20171   5.668   4.362   9.889 -1.3162 -1.3296  1.0864
  177SLPC   C2820172   5.553   4.332   9.702  0.6426 -0.3537  0.1940
  177SLPC   H8R20173   5.470   4.263   9.676 -0.8093  1.0826  0.8475
  177SLPC   H8S20174   5.634   4.323   9.627  0.1868  2.3156 -0.7550
  177SLPC   C2920175   5.497   4.473   9.685  0.1310 -0.6788 -0.4196
  177SLPC   H9R20176   5.457   4.515   9.778  1.4644  3.2681 -1.4191
  177SLPC  C21020177   5.512   4.544   9.572 -0.4881 -0.7680  0.2949
  177SLPC  H10R20178   5.467   4.644   9.565  0.7500 -0.2696 -1.0017
  177SLPC  C21120179   5.578   4.503   9.439  0.7414  0.5966  0.3610
  177SLPC  H11R20180   5.578   4.588   9.368 -0.8189 -0.7875 -1.3825
  177SLPC  H11S20181   5.687   4.484   9.448  0.8525  0.9615 -0.2113
  177SLPC  C21220182   5.510   4.393   9.358  0.4796  0.3569  0.3935
  177SLPC  H12R20183   5.443   4.338   9.425 -0.8849  0.1164 -1.0925
  177SLPC  C21320184   5.523   4.367   9.229  0.0983 -0.0133  0.0294
  177SLPC  H13R20185   5.453   4.289   9.194  2.1991 -2.1242  0.2837
  177SLPC  C21420186   5.609   4.434   9.124  0.6599 -0.2599  0.0667
  177SLPC  H14R20187   5.673   4.517   9.161  0.4066  0.6734 -1.5106
  177SLPC  H14S20188   5.538   4.469   9.046 -0.9136 -1.2630  0.9890
  177SLPC  C21520189   5.700   4.325   9.045  0.3615 -0.1309 -0.4845
  177SLPC  H15R20190   5.735   4.249   9.118  0.8519  0.6530  0.1146
  177SLPC  H15S20191   5.783   4.376   8.991  0.8677 -0.7257 -0.2804
  177SLPC  C21620192   5.622   4.237   8.941  0.0846  0.6166  0.4090
  177SLPC  H16R20193   5.551   4.311   8.898 -0.4818  1.2174  2.2566
  177SLPC  H16S20194   5.557   4.163   8.992  0.1172 -1.3971 -2.2613
  177SLPC  C21720195   5.707   4.189   8.826 -0.2387  0.2628 -0.4666
  177SLPC  H17R20196   5.642   4.117   8.771 -1.3475 -0.9896  2.2904
  177SLPC  H17S20197   5.792   4.129   8.864  0.8433  1.1655 -1.3984
  177SLPC  C21820198   5.748   4.295   8.724  0.1273 -0.5306  0.7080
  177SLPC  H18R20199   5.825   4.367   8.759  1.6874 -1.2679 -1.0779
  177SLPC  H18S20200   5.657   4.350   8.693  0.0355 -1.3921 -0.6044
  177SLPC  H18T20201   5.799   4.239   8.643 -1.3631  1.4359 -1.7154
  177SLPC   C3320202   5.248   4.758   9.988 -0.4843 -0.2224 -0.6326
  177SLPC   H3X20203   5.344   4.724   9.944  1.6238  2.2412  1.7301
  177SLPC   H3Y20204   5.260   4.866  10.011  1.7093 -0.7173  0.8374
  177SLPC   C3420205   5.130   4.714   9.899 -0.4462  0.0032  0.8384
  177SLPC   H4X20206   5.038   4.718   9.961 -1.4814 -0.1922 -0.6226
  177SLPC   H4Y20207   5.149   4.609   9.866 -2.1083 -0.0168 -0.1896
  177SLPC   C3520208   5.114   4.801   9.774  0.3145 -0.4559  0.4791
  177SLPC   H5X20209   5.210   4.809   9.718 -1.0861 -2.7601 -2.5335
  177SLPC   H5Y20210   5.072   4.900   9.801 -0.3326 -0.2989 -1.0344
  177SLPC   C3620211   5.026   4.731   9.675 -0.0669 -0.5361  0.5599
  177SLPC   H6X20212   4.920   4.731   9.706 -0.0101  4.0659  1.4046
  177SLPC   H6Y20213   5.066   4.630   9.649  3.6721  1.1629 -1.1419
  177SLPC   C3720214   5.030   4.790   9.534  0.3538 -0.2299  0.1475
  177SLPC   H7X20215   5.136   4.790   9.501  0.4361  3.0000  0.1606
  177SLPC   H7Y20216   5.001   4.896   9.522  1.2500  0.1435  1.1227
  177SLPC   C3820217   4.957   4.699   9.424  0.0466 -0.5095 -0.6583
  177SLPC   H8X20218   4.852   4.734   9.426 -0.7684 -2.8228  0.9075
  177SLPC   H8Y20219   4.942   4.595   9.461 -1.6139 -0.0130  0.1361
  177SLPC   C3920220   5.020   4.699   9.285 -0.6718  0.6289  0.5812
  177SLPC   H9X20221   5.036   4.804   9.254 -0.3662  0.8768  1.5454
  177SLPC   H9Y20222   4.933   4.657   9.231  0.1548  0.4120 -0.6285
  177SLPC  C31020223   5.140   4.608   9.264 -1.1321 -0.0454  0.5656
  177SLPC  H10X20224   5.123   4.499   9.274  0.9114 -0.2096  3.4756
  177SLPC  H10Y20225   5.218   4.621   9.342 -0.3762 -3.0983  0.4569
  177SLPC  C31120226   5.198   4.631   9.123  0.3547  0.0666 -0.1075
  177SLPC  H11X20227   5.300   4.589   9.107  0.9587  0.9702  1.2063
  177SLPC  H11Y20228   5.216   4.737   9.096 -0.5090  0.4945  0.9629
  177SLPC  C31220229   5.112   4.576   9.016 -0.2842 -0.0864 -0.1249
  177SLPC  H12X20230   5.012   4.625   9.006 -1.2020 -1.7289  0.5148
  177SLPC  H12Y20231   5.088   4.472   9.046 -0.9184  0.6253  2.0198
  177SLPC  C31320232   5.165   4.569   8.869  0.5403 -0.4404 -0.2154
  177SLPC  H13X20233   5.197   4.670   8.834  0.2969 -0.4653 -0.5135
  177SLPC  H13Y20234   5.082   4.533   8.805 -0.8687 -2.1470  2.4311
  177SLPC  C31420235   5.289   4.487   8.845 -0.3072  0.4292  0.1614
  177SLPC  H14X20236   5.364   4.509   8.924 -1.8458 -2.0576  2.4921
  177SLPC  H14Y20237   5.336   4.498   8.745  2.6404 -0.5155  1.3260
  177SLPC  C31520238   5.253   4.333   8.856 -0.0697  0.1862 -0.2599
  177SLPC  H15X20239   5.178   4.314   8.936 -1.3268 -0.0113 -1.4617
  177SLPC  H15Y20240   5.345   4.278   8.885  0.3719  1.2704  0.4672
  177SLPC  C31620241   5.201   4.268   8.722  0.1140  0.3572  0.4632
  177SLPC  H16X20242   5.101   4.310   8.700 -0.1584 -0.6423 -0.2368
  177SLPC  H16Y20243   5.189   4.163   8.755  2.6682  0.4535  2.0384
  177SLPC  C31720244   5.288   4.274   8.597  0.1841  0.3821  0.6104
  177SLPC  H17X20245   5.389   4.239   8.628  0.2387 -0.2123 -0.2039
  177SLPC  H17Y20246   5.289   4.380   8.564 -3.0252  0.2880 -0.0888
  177SLPC  C31820247   5.233   4.180   8.490 -0.1392 -0.3447  0.7869
  177SLPC  H18X20248   5.233   4.073   8.520 -1.5416 -0.9582 -1.1871
  177SLPC  H18Y20249   5.289   4.189   8.395  0.0358 -1.6165  0.7560
  177SLPC  H18Z20250   5.130   4.212   8.463  0.5730  0.9797 -0.5168
  178SLPC     N20251   0.841   5.278  11.358  0.4865 -0.5347  0.1248
  178SLPC   C1320252   0.890   5.417  11.348  0.5774  0.3054 -0.3035
  178SLPC  H13A20253   0.809   5.485  11.329  1.3071  1.5969  0.9507
  178SLPC  H13B20254   0.920   5.445  11.448 -2.5881 -1.1563  1.1975
  178SLPC  H13C20255   0.970   5.417  11.276  0.7594 -3.0610 -0.2875
  178SLPC   C1420256   0.764   5.257  11.486  0.2675  0.9935  0.5002
  178SLPC  H14A20257   0.819   5.298  11.569  1.8248 -2.5243  1.4087
  178SLPC  H14B20258   0.677   5.319  11.474  1.1628  2.1380 -0.3076
  178SLPC  H14C20259   0.724   5.158  11.502  0.9297  0.3954 -1.3117
  178SLPC   C1520260   0.947   5.181  11.361  0.2618 -0.4714 -0.4103
  178SLPC  H15A20261   0.922   5.076  11.365  0.7333 -0.6360 -1.3775
  178SLPC  H15B20262   0.999   5.184  11.266  1.5330  0.2518  0.2917
  178SLPC  H15C20263   1.021   5.212  11.433 -0.4849  0.7566 -0.1454
  178SLPC   C1220264   0.746   5.255  11.238  0.1991  0.5720 -0.2239
  178SLPC  H12A20265   0.650   5.300  11.254  0.8208  1.2171  1.9704
  178SLPC  H12B20266   0.724   5.149  11.240  2.2456  0.0970 -0.2613
  178SLPC   C1120267   0.804   5.286  11.101  0.3033  0.0075  0.2480
  178SLPC  H11A20268   0.842   5.390  11.107  0.8214 -0.1923  0.4636
  178SLPC  H11B20269   0.718   5.266  11.033 -1.6025 -0.8365  2.7417
  178SLPC     P20270   0.903   5.064  10.998  0.0539  0.0637  0.6945
  178SLPC   O1320271   1.029   5.050  10.922  0.1088  0.6796  0.2870
  178SLPC   O1420272   0.867   4.964  11.101 -0.5673  0.3241 -0.3565
  178SLPC   O1220273   0.914   5.200  11.072 -0.4508  0.0528 -0.2393
  178SLPC   O1120274   0.782   5.082  10.893 -0.6108  0.1361  0.1233
  178SLPC    C120275   0.714   4.960  10.850  0.1599 -0.5949 -0.7613
  178SLPC    HA20276   0.785   4.875  10.840  1.4460  0.2297  0.8320
  178SLPC    HB20277   0.638   4.928  10.925  1.6987  0.1413  1.2152
  178SLPC    C220278   0.644   4.981  10.721  0.3133 -0.3875 -0.4147
  178SLPC    HS20279   0.579   4.892  10.704 -2.8300  2.2726 -3.7881
  178SLPC   O2120280   0.742   4.995  10.617  0.5265  0.0911  0.2688
  178SLPC   C2120281   0.766   4.885  10.545  0.3475  1.3525  0.0187
  178SLPC   O2220282   0.725   4.773  10.573  0.1379 -0.2258  0.0766
  178SLPC   C2220283   0.866   4.908  10.432 -0.5241 -0.3772  1.2287
  178SLPC   H2R20284   0.927   4.997  10.455  0.1543 -0.6081  0.3812
  178SLPC   H2S20285   0.924   4.814  10.416  0.3783  0.2145  0.9677
  178SLPC    C320286   0.538   5.100  10.730  0.2430  0.4381 -0.4655
  178SLPC    HX20287   0.588   5.199  10.739  0.5926  0.1510  0.8229
  178SLPC    HY20288   0.478   5.086  10.822  0.4555 -1.6790 -0.5981
  178SLPC   O3120289   0.452   5.100  10.609 -0.4212 -0.6568  0.3014
  178SLPC   C3120290   0.495   5.187  10.519  0.1247  0.1514  0.1627
  178SLPC   O3220291   0.599   5.252  10.518  0.6180 -0.0885  0.1595
  178SLPC   C3220292   0.384   5.194  10.409  0.1790 -0.3279 -0.0529
  178SLPC   H2X20293   0.305   5.258  10.454  1.9971  2.3682 -0.4735
  178SLPC   H2Y20294   0.337   5.095  10.387  1.3680 -1.4198  2.0011
  178SLPC   C2320295   0.790   4.940  10.301 -0.1637  0.1685 -1.5798
  178SLPC   H3R20296   0.867   4.965  10.225 -0.2574 -1.4543 -2.2428
  178SLPC   H3S20297   0.719   5.024  10.316 -0.4949 -0.4463  0.8284
  178SLPC   C2420298   0.729   4.807  10.249 -0.1218 -0.1879  0.7193
  178SLPC   H4R20299   0.624   4.798  10.284 -0.8601  0.7024 -1.1414
  178SLPC   H4S20300   0.790   4.717  10.270  2.5914  1.8942  2.5267
  178SLPC   C2520301   0.735   4.801  10.093 -0.2726 -0.3995  0.2496
  178SLPC   H5R20302   0.842   4.802  10.064  0.0990 -1.4381  1.5070
  178SLPC   H5S20303   0.689   4.897  10.061 -1.4461 -0.4569  1.6854
  178SLPC   C2620304   0.657   4.693  10.036  0.3102  0.8905 -0.3470
  178SLPC   H6R20305   0.548   4.714  10.036  0.4425  1.5926 -1.1083
  178SLPC   H6S20306   0.680   4.593  10.079  1.1114 -0.0898 -2.8883
  178SLPC   C2720307   0.688   4.677   9.886 -0.0332  1.0803  0.1729
  178SLPC   H7R20308   0.629   4.587   9.860  0.8039  0.8777 -1.1259
  178SLPC   H7S20309   0.794   4.652   9.863 -0.3987  1.1564 -1.8000
  178SLPC   C2820310   0.632   4.787   9.803  0.0050  0.4398  0.4973
  178SLPC   H8R20311   0.667   4.885   9.842  1.7977 -0.1061  0.3428
  178SLPC   H8S20312   0.522   4.779   9.809  0.1385 -2.1772  0.2972
  178SLPC   C2920313   0.678   4.787   9.660 -0.1115  0.3640 -0.2921
  178SLPC   H9R20314   0.752   4.716   9.619 -0.7470 -2.2024  2.6151
  178SLPC  C21020315   0.603   4.854   9.567 -0.8863 -0.7735  0.7000
  178SLPC  H10R20316   0.628   4.839   9.461 -2.2997 -1.3383  0.4143
  178SLPC  C21120317   0.466   4.917   9.593 -0.7759 -0.5638 -0.5991
  178SLPC  H11R20318   0.460   4.964   9.693  2.2732  0.9969 -1.0357
  178SLPC  H11S20319   0.396   4.831   9.591  0.8861 -2.0536  1.0393
  178SLPC  C21220320   0.414   5.018   9.489 -0.1788  0.1247  0.0782
  178SLPC  H12R20321   0.374   5.111   9.531 -0.0415 -0.2438  1.0450
  178SLPC  C21320322   0.407   5.015   9.357  0.1941  0.0492  0.7698
  178SLPC  H13R20323   0.350   5.094   9.307 -1.3599 -1.0947  0.6796
  178SLPC  C21420324   0.433   4.902   9.257 -0.5835 -0.4766 -1.1283
  178SLPC  H14R20325   0.331   4.886   9.215 -0.6983  0.0042 -1.0455
  178SLPC  H14S20326   0.462   4.808   9.307  0.2222 -0.5741 -1.7544
  178SLPC  C21520327   0.525   4.931   9.138  0.0492  0.9156  0.1562
  178SLPC  H15R20328   0.466   4.993   9.067  1.7538  0.9966 -1.2988
  178SLPC  H15S20329   0.531   4.832   9.086 -0.0523  0.5196  0.8913
  178SLPC  C21620330   0.661   4.984   9.164  0.0341 -0.3551 -1.1757
  178SLPC  H16R20331   0.719   4.930   9.242  0.3578  0.0256 -1.1510
  178SLPC  H16S20332   0.637   5.088   9.195  0.4158 -0.9067  1.2069
  178SLPC  C21720333   0.756   4.968   9.041  0.3027  0.5681  0.0220
  178SLPC  H17R20334   0.840   5.041   9.042  0.9482 -0.1645  1.1458
  178SLPC  H17S20335   0.688   5.001   8.960  0.4739 -0.1137 -0.4025
  178SLPC  C21820336   0.818   4.826   9.010  0.2144 -0.6549  0.2749
  178SLPC  H18R20337   0.741   4.747   9.021  0.9249 -1.4088 -0.0774
  178SLPC  H18S20338   0.906   4.803   9.074 -0.5431 -2.5554  0.7077
  178SLPC  H18T20339   0.855   4.828   8.905 -1.7925  1.0025 -0.4569
  178SLPC   C3320340   0.433   5.246  10.274 -0.2236  0.4386 -0.1608
  178SLPC   H3X20341   0.524   5.193  10.238 -1.0662  0.4920 -2.5241
  178SLPC   H3Y20342   0.448   5.356  10.276  2.8343  0.2587 -3.0589
  178SLPC   C3420343   0.341   5.215  10.154  0.4396  0.4827 -0.1324
  178SLPC   H4X20344   0.241   5.261  10.166 -0.6813 -1.8781  0.1150
  178SLPC   H4Y20345   0.315   5.107  10.159  3.4552 -0.3714 -0.7660
  178SLPC   C3520346   0.407   5.257  10.018  0.0537  0.3132  0.7889
  178SLPC   H5X20347   0.482   5.183   9.984  1.2247  1.1387  1.5160
  178SLPC   H5Y20348   0.467   5.349  10.033  1.1029 -0.3083  0.5224
  178SLPC   C3620349   0.314   5.271   9.897 -0.9291 -0.3054  0.2069
  178SLPC   H6X20350   0.236   5.349   9.916  1.8657  2.6588  0.3471
  178SLPC   H6Y20351   0.265   5.171   9.896 -0.8065 -0.3636 -0.5658
  178SLPC   C3720352   0.380   5.304   9.756 -0.4624 -0.4049  0.9550
  178SLPC   H7X20353   0.309   5.264   9.680  3.0526 -1.5584 -2.0425
  178SLPC   H7Y20354   0.476   5.249   9.743  1.4532  2.3761  2.2053
  178SLPC   C3820355   0.410   5.459   9.737  0.0682  0.6983  0.0004
  178SLPC   H8X20356   0.472   5.501   9.818 -1.6530 -1.2531  2.4842
  178SLPC   H8Y20357   0.309   5.498   9.761  0.0697  1.3341 -0.9769
  178SLPC   C3920358   0.458   5.510   9.606 -0.4281 -0.3945 -0.7432
  178SLPC   H9X20359   0.566   5.491   9.589  0.4856  3.4089 -0.0383
  178SLPC   H9Y20360   0.455   5.621   9.604 -1.4394 -0.2971  2.0344
  178SLPC  C31020361   0.374   5.449   9.490  0.3877  0.1479 -0.0969
  178SLPC  H10X20362   0.266   5.472   9.494  0.7174  1.6517  0.7593
  178SLPC  H10Y20363   0.399   5.340   9.486 -0.7516 -0.0818 -1.8597
  178SLPC  C31120364   0.415   5.509   9.361 -0.2039 -0.0264 -0.5015
  178SLPC  H11X20365   0.524   5.493   9.349 -0.0245  1.3933 -0.9385
  178SLPC  H11Y20366   0.392   5.618   9.358  2.5145  0.7049  1.2340
  178SLPC  C31220367   0.369   5.439   9.234 -0.5856 -0.2060 -0.0643
  178SLPC  H12X20368   0.424   5.343   9.226  0.7808  0.7212 -4.3310
  178SLPC  H12Y20369   0.409   5.495   9.147 -0.1434 -0.1418  0.1742
  178SLPC  C31320370   0.220   5.418   9.215  0.4445  0.2008  0.5669
  178SLPC  H13X20371   0.183   5.518   9.248  0.5794  1.0141 -1.5898
  178SLPC  H13Y20372   0.179   5.335   9.276 -0.7601  0.1706 -0.2504
  178SLPC  C31420373   0.194   5.394   9.065  0.4279  0.0331 -0.6048
  178SLPC  H14X20374   0.246   5.300   9.038  0.0243 -0.8072  1.3259
  178SLPC  H14Y20375   0.244   5.479   9.013  2.5264 -0.0882  1.0362
  178SLPC  C31520376   0.038   5.386   9.032 -0.9386 -0.0601 -0.0145
  178SLPC  H15X20377  -0.008   5.305   9.092  0.6013  1.1523  2.9904
  178SLPC  H15Y20378  -0.000   5.484   9.067  0.0281  0.2654  0.1529
  178SLPC  C31620379   0.024   5.372   8.874 -0.2561 -0.0619 -0.5213
  178SLPC  H16X20380   0.053   5.470   8.832 -0.1265  1.1233  2.0889
  178SLPC  H16Y20381  -0.083   5.357   8.849 -0.8157  2.3440  0.1558
  178SLPC  C31720382   0.117   5.265   8.815  0.2893 -0.2557 -0.0472
  178SLPC  H17X20383   0.055   5.227   8.731  0.2074 -0.0272 -0.0919
  178SLPC  H17Y20384   0.138   5.178   8.882 -0.6436 -0.9711 -0.6532
  178SLPC  C31820385   0.250   5.320   8.756  0.9255  0.0223 -0.2401
  178SLPC  H18X20386   0.288   5.256   8.673 -0.1655  1.4084 -1.8850
  178SLPC  H18Y20387   0.331   5.342   8.828 -0.0523 -0.9079  1.1939
  178SLPC  H18Z20388   0.222   5.407   8.693 -0.6382 -1.7910 -2.2450
  179SLPC     N20389   3.502   2.872  10.647  0.3734  0.2300  0.3464
  179SLPC   C1320390   3.653   2.847  10.674 -0.4644  0.3472 -0.1929
  179SLPC  H13A20391   3.714   2.825  10.588  0.5811  0.5173  0.4836
  179SLPC  H13B20392   3.692   2.938  10.719 -0.1504 -0.3127  0.9178
  179SLPC  H13C20393   3.664   2.766  10.744 -0.5115  0.3782 -0.1492
  179SLPC   C1420394   3.433   2.908  10.768  0.0922 -0.0818  0.1282
  179SLPC  H14A20395   3.463   2.835  10.841  1.2392  0.3705  0.1204
  179SLPC  H14B20396   3.463   3.005  10.804  0.9062  0.3753 -1.6564
  179SLPC  H14C20397   3.328   2.913  10.743 -0.0944 -0.5491  0.7942
  179SLPC   C1520398   3.439   2.739  10.587 -0.1018  0.6382 -0.4389
  179SLPC  H15A20399   3.334   2.747  10.562 -0.0047  1.6015 -0.5818
  179SLPC  H15B20400   3.491   2.725  10.494  1.3584 -1.2548  0.5952
  179SLPC  H15C20401   3.454   2.657  10.656  1.4057  1.7800  0.6421
  179SLPC   C1220402   3.494   2.979  10.543  0.2804  0.4685  0.4694
  179SLPC  H12A20403   3.559   2.963  10.459  0.4679 -0.6881  0.8238
  179SLPC  H12B20404   3.524   3.072  10.590  2.2801  0.5024 -0.7600
  179SLPC   C1120405   3.349   2.993  10.475 -0.3693  0.0413  0.9050
  179SLPC  H11A20406   3.339   2.898  10.416 -0.6003  1.2689 -1.1486
  179SLPC  H11B20407   3.360   3.073  10.399  2.6727 -1.4585 -0.4000
  179SLPC     P20408   3.103   2.949  10.537 -0.4064 -0.0789 -0.3415
  179SLPC   O1320409   3.099   2.830  10.624  0.5257  0.0644 -0.0179
  179SLPC   O1420410   2.993   3.047  10.555 -0.2981 -0.2319 -0.1200
  179SLPC   O1220411   3.246   3.017  10.576 -0.1780 -0.0322  0.1728
  179SLPC   O1120412   3.115   2.926  10.384  0.1901 -0.2159  0.5324
  179SLPC    C120413   3.011   2.849  10.323  0.0401  0.4862 -0.0910
  179SLPC    HA20414   3.042   2.742  10.324 -1.3727  0.0641  0.1832
  179SLPC    HB20415   2.906   2.864  10.356 -0.2345 -1.3485 -0.0489
  179SLPC    C220416   2.994   2.887  10.172  0.1777  0.5143  0.3937
  179SLPC    HS20417   2.905   2.834  10.132 -1.0457 -0.6492  4.2642
  179SLPC   O2120418   3.111   2.836  10.097 -0.1361  0.5532 -0.7872
  179SLPC   C2120419   3.095   2.710  10.050  0.0218 -0.0220 -0.5866
  179SLPC   O2220420   3.008   2.633  10.088  0.1825  0.0421 -0.9798
  179SLPC   C2220421   3.205   2.684   9.951 -0.4542 -0.1523 -0.0702
  179SLPC   H2R20422   3.249   2.781   9.918 -1.6405 -0.4360 -2.8382
  179SLPC   H2S20423   3.274   2.626  10.015 -1.0651  0.4637  1.1695
  179SLPC    C320424   2.961   3.038  10.143 -0.0702  0.1641  0.6345
  179SLPC    HX20425   3.053   3.099  10.159 -1.2317  2.6099 -1.3223
  179SLPC    HY20426   2.888   3.061  10.224 -0.5031  0.4643  0.1652
  179SLPC   O3120427   2.913   3.074  10.011  0.3500 -0.3690 -0.1955
  179SLPC   C3120428   2.781   3.070   9.992  0.0627 -0.1896 -0.5014
  179SLPC   O3220429   2.696   3.042  10.075 -0.1474  0.2397 -0.5640
  179SLPC   C3220430   2.760   3.105   9.847  0.4328 -0.3211  0.1928
  179SLPC   H2X20431   2.803   3.023   9.785 -0.0763 -0.1874 -0.3500
  179SLPC   H2Y20432   2.813   3.202   9.835  0.1194 -0.0853  0.6945
  179SLPC   C2320433   3.167   2.588   9.836 -0.7278  0.2153  0.6204
  179SLPC   H3R20434   3.088   2.513   9.855 -1.2289  0.2490 -1.1420
  179SLPC   H3S20435   3.257   2.531   9.803 -0.2687  0.6799  1.0486
  179SLPC   C2420436   3.124   2.663   9.705 -0.6412  0.2278  0.1773
  179SLPC   H4R20437   3.140   2.591   9.622  1.5491 -1.2211  1.7194
  179SLPC   H4S20438   3.190   2.752   9.691 -1.7109  0.9659 -0.2817
  179SLPC   C2520439   2.987   2.733   9.708 -0.3200 -0.0019 -0.2146
  179SLPC   H5R20440   2.976   2.788   9.612  0.2261 -0.9951 -0.8588
  179SLPC   H5S20441   2.981   2.808   9.790  0.1989 -1.0886  0.8509
  179SLPC   C2620442   2.864   2.640   9.711  0.4391  0.1223  0.0568
  179SLPC   H6R20443   2.862   2.567   9.795  0.8171  1.1974  1.0455
  179SLPC   H6S20444   2.846   2.582   9.618 -0.3718 -0.1400  0.3623
  179SLPC   C2720445   2.741   2.724   9.747 -0.4364  0.2216  0.2526
  179SLPC   H7R20446   2.730   2.803   9.670  0.4114  1.0535  0.9620
  179SLPC   H7S20447   2.757   2.767   9.849  0.1024  2.1475 -0.6047
  179SLPC   C2820448   2.615   2.637   9.750  0.3470 -0.2816  0.7487
  179SLPC   H8R20449   2.638   2.539   9.798  1.7914  0.4003  1.5343
  179SLPC   H8S20450   2.591   2.619   9.643  0.1186  1.9439  0.3807
  179SLPC   C2920451   2.501   2.690   9.838  0.4811  0.3492  0.7755
  179SLPC   H9R20452   2.535   2.735   9.933  3.4022  0.2254 -0.1291
  179SLPC  C21020453   2.371   2.674   9.814  0.8845  0.0303 -0.7359
  179SLPC  H10R20454   2.305   2.737   9.876 -0.2685 -2.1663  0.3617
  179SLPC  C21120455   2.314   2.608   9.703  0.3921  0.2217  0.4344
  179SLPC  H11R20456   2.335   2.500   9.714 -3.3382 -0.7471 -0.4902
  179SLPC  H11S20457   2.364   2.636   9.608  1.3165 -0.0783  0.8251
  179SLPC  C21220458   2.160   2.603   9.695 -0.5654 -0.7807 -0.2386
  179SLPC  H12R20459   2.112   2.580   9.791 -0.6646 -0.1872 -0.1461
  179SLPC  C21320460   2.083   2.616   9.589  0.1798  0.0548  0.2948
  179SLPC  H13R20461   1.975   2.595   9.590 -0.0088  0.8494 -0.9374
  179SLPC  C21420462   2.114   2.645   9.440 -0.1767 -0.4075 -0.5997
  179SLPC  H14R20463   2.218   2.679   9.418 -0.7174  0.7312 -1.5120
  179SLPC  H14S20464   2.064   2.739   9.407  0.1441  0.3441  0.9138
  179SLPC  C21520465   2.081   2.526   9.344  0.9022 -0.6497 -1.0972
  179SLPC  H15R20466   1.971   2.509   9.345  1.1330 -2.6012  1.1700
  179SLPC  H15S20467   2.118   2.432   9.391  1.1745  0.6234  1.4269
  179SLPC  C21620468   2.145   2.523   9.205  0.0626 -0.3922  0.0058
  179SLPC  H16R20469   2.144   2.415   9.177  1.9004  0.1320 -2.3968
  179SLPC  H16S20470   2.252   2.551   9.195 -0.0714  0.6648  1.2832
  179SLPC  C21720471   2.061   2.591   9.098  0.9377  0.2205  0.4650
  179SLPC  H17R20472   2.073   2.700   9.113  0.5569  0.6339 -1.7751
  179SLPC  H17S20473   1.956   2.561   9.119 -0.2950  0.6218 -4.0237
  179SLPC  C21820474   2.096   2.571   8.954 -0.5549  0.5979 -0.6943
  179SLPC  H18R20475   2.093   2.462   8.931  0.6953  0.2298  0.7674
  179SLPC  H18S20476   2.204   2.595   8.947  0.1185 -1.2487  1.7556
  179SLPC  H18T20477   2.035   2.624   8.878 -0.6423 -0.5136 -1.4382
  179SLPC   C3320478   2.611   3.112   9.828  1.3263  1.3014  0.1388
  179SLPC   H3X20479   2.577   3.193   9.896 -0.2337  0.9096 -0.1339
  179SLPC   H3Y20480   2.563   3.017   9.858  0.3128  1.6353 -0.3431
  179SLPC   C3420481   2.574   3.148   9.684 -0.0674 -0.2899  0.9314
  179SLPC   H4X20482   2.632   3.240   9.660 -1.5597  0.4950  0.1853
  179SLPC   H4Y20483   2.471   3.188   9.688  0.0154 -0.1582  2.0433
  179SLPC   C3520484   2.577   3.039   9.570  0.0706 -0.3240 -1.5241
  179SLPC   H5X20485   2.515   2.955   9.607  0.4485  0.6520  1.6403
  179SLPC   H5Y20486   2.679   2.997   9.568  0.0166 -1.0050  2.1278
  179SLPC   C3620487   2.530   3.089   9.437 -0.6309  0.1697 -0.4459
  179SLPC   H6X20488   2.579   3.186   9.411 -0.8386  0.3604 -0.1275
  179SLPC   H6Y20489   2.420   3.100   9.439 -0.9523 -2.3702  2.4943
  179SLPC   C3720490   2.549   2.993   9.323  0.5391 -0.4017  0.8982
  179SLPC   H7X20491   2.567   2.889   9.357  1.9077 -1.0642 -1.5694
  179SLPC   H7Y20492   2.637   3.030   9.265  1.3856 -1.3234  1.5718
  179SLPC   C3820493   2.417   2.999   9.234  0.1593  0.0677  0.2735
  179SLPC   H8X20494   2.369   3.099   9.240  2.3865  1.1396  1.2518
  179SLPC   H8Y20495   2.342   2.928   9.275 -0.3195 -0.4010 -1.3361
  179SLPC   C3920496   2.436   2.967   9.088  0.7942 -0.4559 -0.0913
  179SLPC   H9X20497   2.506   3.039   9.040 -0.3710  0.1418 -0.9474
  179SLPC   H9Y20498   2.342   2.961   9.030  0.0154  1.8082  0.8012
  179SLPC  C31020499   2.504   2.830   9.070  0.4723 -0.6798  1.0319
  179SLPC  H10X20500   2.445   2.762   9.134  0.1464  0.4794  1.9963
  179SLPC  H10Y20501   2.612   2.834   9.095  0.3644  0.8973  1.3195
  179SLPC  C31120502   2.494   2.776   8.921 -0.2185 -0.6535 -0.4270
  179SLPC  H11X20503   2.527   2.859   8.854 -2.9010  0.5166 -0.4449
  179SLPC  H11Y20504   2.388   2.776   8.887 -1.5139  1.5807  3.0650
  179SLPC  C31220505   2.549   2.636   8.922 -0.3101 -0.7578  0.6201
  179SLPC  H12X20506   2.518   2.563   8.999  1.6360 -3.8297 -1.2946
  179SLPC  H12Y20507   2.658   2.643   8.938 -0.3673  3.4827  0.3150
  179SLPC  C31320508   2.525   2.565   8.787  0.0095 -0.2593 -0.0802
  179SLPC  H13X20509   2.589   2.614   8.711  0.4156  0.0232  0.4393
  179SLPC  H13Y20510   2.418   2.585   8.765  0.4204  1.9457 -0.2457
  179SLPC  C31420511   2.561   2.412   8.774 -0.1613 -1.4862  0.1118
  179SLPC  H14X20512   2.516   2.371   8.681 -2.0943  0.2311  0.2394
  179SLPC  H14Y20513   2.511   2.364   8.862 -0.7592 -1.2532 -0.0968
  179SLPC  C31520514   2.706   2.393   8.770  0.2857  0.0989  0.8339
  179SLPC  H15X20515   2.743   2.436   8.866 -0.2346 -1.4446  1.7708
  179SLPC  H15Y20516   2.741   2.447   8.679 -0.3804 -0.6283  0.1308
  179SLPC  C31620517   2.754   2.250   8.757 -0.4822  0.4446 -0.6366
  179SLPC  H16X20518   2.736   2.195   8.662  0.8532 -1.7904  0.3090
  179SLPC  H16Y20519   2.699   2.192   8.834  0.7616 -0.7915 -0.6303
  179SLPC  C31720520   2.897   2.229   8.784  0.1869 -0.3127 -0.2684
  179SLPC  H17X20521   2.914   2.119   8.795 -0.3546 -0.5865 -1.9183
  179SLPC  H17Y20522   2.932   2.287   8.872  2.5927  1.0485 -1.9874
  179SLPC  C31820523   2.989   2.279   8.673  0.2930  0.2874 -0.1551
  179SLPC  H18X20524   3.095   2.267   8.704 -0.0737 -0.6854  0.7689
  179SLPC  H18Y20525   2.975   2.385   8.640  0.3120  0.7878  1.3851
  179SLPC  H18Z20526   2.977   2.213   8.585 -0.5744 -0.9858  0.8839
  180SLPC     N20527   2.340   0.249  11.005 -0.1661 -0.1892 -0.3685
  180SLPC   C1320528   2.492   0.224  11.031  0.2127  0.3074  0.3505
  180SLPC  H13A20529   2.539   0.303  11.087  4.1923 -1.6164  0.0768
  180SLPC  H13B20530   2.502   0.122  11.063 -1.1769  0.0255 -0.0368
  180SLPC  H13C20531   2.540   0.240  10.935 -0.4161 -1.0039 -0.2083
  180SLPC   C1420532   2.265   0.262  11.138 -0.1897  0.0859 -0.3031
  180SLPC  H14A20533   2.277   0.179  11.205 -2.7019 -0.2325 -0.1580
  180SLPC  H14B20534   2.304   0.347  11.192 -1.0770  1.4512 -1.7014
  180SLPC  H14C20535   2.158   0.275  11.124  0.1480  1.6839 -1.7469
  180SLPC   C1520536   2.297   0.127  10.930 -0.0669  0.3327 -0.1913
  180SLPC  H15A20537   2.324   0.043  10.993 -2.2470 -0.0437  0.2999
  180SLPC  H15B20538   2.190   0.129  10.943 -0.0421  0.2426  0.0301
  180SLPC  H15C20539   2.326   0.123  10.826  2.0271 -0.9696  0.3766
  180SLPC   C1220540   2.331   0.379  10.926  0.9531 -0.3458 -0.1703
  180SLPC  H12A20541   2.353   0.467  10.985 -1.1336  1.6838 -2.1692
  180SLPC  H12B20542   2.226   0.393  10.907  0.0941 -2.1299  2.8055
  180SLPC   C1120543   2.403   0.385  10.787 -1.0041  0.0121 -0.5088
  180SLPC  H11A20544   2.387   0.487  10.746  1.0903  0.6869  0.2253
  180SLPC  H11B20545   2.350   0.318  10.716  0.8821 -0.6822 -1.3098
  180SLPC     P20546   2.636   0.348  10.680 -0.2881  0.3925  0.0992
  180SLPC   O1320547   2.765   0.411  10.716  0.4464  0.0056  0.1408
  180SLPC   O1420548   2.640   0.204  10.642 -0.0603 -0.9371 -0.0775
  180SLPC   O1220549   2.540   0.360  10.801 -0.2603  0.0026 -0.1893
  180SLPC   O1120550   2.572   0.422  10.563  0.5033  0.0722 -0.0573
  180SLPC    C120551   2.572   0.564  10.547  0.2083  0.1208 -0.1813
  180SLPC    HA20552   2.468   0.604  10.542 -0.2065 -1.0412 -1.2065
  180SLPC    HB20553   2.629   0.606  10.633 -0.4415 -1.6151  1.1565
  180SLPC    C220554   2.656   0.595  10.427 -0.4481  0.3300  0.4443
  180SLPC    HS20555   2.651   0.702  10.398 -2.6855  0.0104 -0.5764
  180SLPC   O2120556   2.617   0.510  10.313  0.6234 -0.0847  0.6019
  180SLPC   C2120557   2.519   0.572  10.246 -0.0222 -0.9589 -0.4253
  180SLPC   O2220558   2.473   0.682  10.277  0.0075  0.0704  0.2769
  180SLPC   C2220559   2.508   0.495  10.114  0.1904  0.0164  0.2882
  180SLPC   H2R20560   2.605   0.458  10.074 -0.7856 -0.3393 -1.9071
  180SLPC   H2S20561   2.445   0.404  10.127  1.6993 -1.2048 -0.6685
  180SLPC    C320562   2.811   0.572  10.442  0.3365 -0.3706  0.4079
  180SLPC    HX20563   2.822   0.462  10.449 -0.3542 -0.4593  0.2273
  180SLPC    HY20564   2.845   0.600  10.544  1.5590  1.0823 -0.3510
  180SLPC   O3120565   2.893   0.622  10.335 -0.3739 -0.3281 -0.3202
  180SLPC   C3120566   3.027   0.599  10.363  0.8404 -0.3333 -0.2712
  180SLPC   O3220567   3.065   0.537  10.459 -0.4242 -0.4113  0.2412
  180SLPC   C3220568   3.122   0.668  10.266 -0.0115 -0.0914 -0.7703
  180SLPC   H2X20569   3.218   0.620  10.294 -0.2545  0.1986  0.6614
  180SLPC   H2Y20570   3.126   0.776  10.293 -0.1484 -0.0474 -0.9227
  180SLPC   C2320571   2.436   0.583  10.006  0.0399  0.5897  0.2608
  180SLPC   H3R20572   2.476   0.687  10.007  2.2290 -0.0800 -2.6056
  180SLPC   H3S20573   2.335   0.585  10.051  0.0974 -0.7774  0.4980
  180SLPC   C2420574   2.437   0.531   9.862 -1.0083  0.4276  0.0221
  180SLPC   H4R20575   2.400   0.427   9.857 -0.1409  0.1693 -1.9633
  180SLPC   H4S20576   2.538   0.537   9.816 -0.3778  1.8461  1.4758
  180SLPC   C2520577   2.355   0.622   9.776 -0.0664  0.3051  0.3961
  180SLPC   H5R20578   2.381   0.728   9.800 -0.6224  0.3536  0.8043
  180SLPC   H5S20579   2.249   0.607   9.803  0.1818 -4.0950 -0.3157
  180SLPC   C2620580   2.383   0.593   9.629 -0.0373 -0.0542 -0.1928
  180SLPC   H6R20581   2.359   0.486   9.611  0.6183 -0.4940  1.3740
  180SLPC   H6S20582   2.486   0.609   9.590 -0.0344  0.1839 -0.0885
  180SLPC   C2720583   2.300   0.689   9.542  0.5550 -0.2006 -0.1655
  180SLPC   H7R20584   2.289   0.782   9.602 -2.4245  0.2888 -1.3045
  180SLPC   H7S20585   2.198   0.646   9.545  0.1279  0.8432  1.7802
  180SLPC   C2820586   2.346   0.721   9.394 -0.0137 -0.2526 -0.2320
  180SLPC   H8R20587   2.444   0.774   9.391 -0.8810  1.4700  0.6952
  180SLPC   H8S20588   2.267   0.786   9.351 -0.2966 -0.8062 -0.5576
  180SLPC   C2920589   2.355   0.595   9.314  0.1056  0.1516  0.2871
  180SLPC   H9R20590   2.357   0.496   9.362 -0.3786  0.8011  1.7264
  180SLPC  C21020591   2.349   0.599   9.179 -0.1874 -0.5185  0.4578
  180SLPC  H10R20592   2.347   0.504   9.122  0.4426  1.2182 -2.6948
  180SLPC  C21120593   2.349   0.725   9.094 -0.2462 -0.0780  0.4999
  180SLPC  H11R20594   2.394   0.717   8.993 -0.4823 -2.0610  0.5002
  180SLPC  H11S20595   2.420   0.796   9.142  0.2050 -0.3557  0.2566
  180SLPC  C21220596   2.209   0.787   9.081 -0.0683 -0.0984 -0.2812
  180SLPC  H12R20597   2.132   0.753   9.153 -0.5886  0.6933 -0.4578
  180SLPC  C21320598   2.177   0.879   8.987 -0.2163 -0.2194 -0.7343
  180SLPC  H13R20599   2.075   0.921   8.994 -0.3398 -0.6040 -0.1904
  180SLPC  C21420600   2.262   0.943   8.883 -1.1807  0.4616 -0.7373
  180SLPC  H14R20601   2.355   0.885   8.863 -3.1586 -2.4493 -2.1856
  180SLPC  H14S20602   2.285   1.046   8.919 -0.5455 -0.6192  2.2556
  180SLPC  C21520603   2.192   0.949   8.745  0.2739  0.2371 -0.4008
  180SLPC  H15R20604   2.095   1.002   8.762  1.0921  1.4886  0.5380
  180SLPC  H15S20605   2.167   0.846   8.711 -0.8431 -0.2116  1.6003
  180SLPC  C21620606   2.265   1.041   8.652  0.4182 -0.3553 -0.4055
  180SLPC  H16R20607   2.368   1.008   8.630  0.0850 -1.2784 -0.6180
  180SLPC  H16S20608   2.285   1.140   8.699 -0.6789  0.2052 -1.0732
  180SLPC  C21720609   2.188   1.065   8.521 -0.0229 -0.3502 -0.5524
  180SLPC  H17R20610   2.170   0.963   8.481  2.8789 -0.6269 -1.3807
  180SLPC  H17S20611   2.267   1.104   8.453  3.0052 -0.2777  2.6894
  180SLPC  C21820612   2.057   1.147   8.517 -0.6397  0.8001  0.4459
  180SLPC  H18R20613   1.979   1.103   8.582 -0.2117  0.1038  0.5021
  180SLPC  H18S20614   2.012   1.151   8.416 -2.0636 -1.7478  0.9110
  180SLPC  H18T20615   2.061   1.253   8.552  1.6783  0.9245  0.0059
  180SLPC   C3320616   3.107   0.644  10.116 -0.4785  0.0389 -0.1783
  180SLPC   H3X20617   3.012   0.691  10.084 -0.3360  0.7492  0.4321
  180SLPC   H3Y20618   3.084   0.538  10.090 -1.3426 -0.1734  1.3417
  180SLPC   C3420619   3.215   0.714  10.025  0.6571  0.1815  0.2575
  180SLPC   H4X20620   3.317   0.688  10.062 -0.2493  0.2871  3.0778
  180SLPC   H4Y20621   3.213   0.824  10.034  2.9876  0.3458 -0.6019
  180SLPC   C3520622   3.199   0.673   9.876 -0.2274 -0.6375 -0.5216
  180SLPC   H5X20623   3.104   0.715   9.836 -0.7111 -2.2285 -1.1365
  180SLPC   H5Y20624   3.190   0.562   9.871  1.5228 -0.8801  0.7716
  180SLPC   C3620625   3.312   0.725   9.786  0.5182  0.3190  0.1741
  180SLPC   H6X20626   3.407   0.720   9.844 -0.2928  0.8229  1.5680
  180SLPC   H6Y20627   3.288   0.829   9.758 -0.0038  0.0003 -0.6006
  180SLPC   C3720628   3.306   0.640   9.657  0.5048  0.1070 -0.4964
  180SLPC   H7X20629   3.209   0.657   9.605  1.1331  0.0743 -1.7010
  180SLPC   H7Y20630   3.336   0.538   9.689  1.6194  0.5472 -0.1235
  180SLPC   C3820631   3.411   0.677   9.560  0.4427  0.0190  0.3908
  180SLPC   H8X20632   3.506   0.682   9.617  0.2807  3.3657  0.5532
  180SLPC   H8Y20633   3.395   0.770   9.501  1.1508 -1.3989 -2.2288
  180SLPC   C3920634   3.439   0.571   9.450  0.5637 -0.2332  0.2263
  180SLPC   H9X20635   3.452   0.465   9.478  1.0134  0.2633  2.0723
  180SLPC   H9Y20636   3.532   0.606   9.399 -0.5699  2.2065 -0.3540
  180SLPC  C31020637   3.334   0.569   9.344 -0.0906 -0.1974 -0.0204
  180SLPC  H10X20638   3.294   0.670   9.318 -0.6149 -0.4523 -0.2210
  180SLPC  H10Y20639   3.252   0.510   9.391 -0.4322 -2.4626 -3.1614
  180SLPC  C31120640   3.368   0.496   9.220 -0.3836 -0.1574  0.3871
  180SLPC  H11X20641   3.396   0.394   9.252  2.5825  1.0086  1.8814
  180SLPC  H11Y20642   3.455   0.546   9.174 -1.5557  0.9548 -0.7111
  180SLPC  C31220643   3.248   0.492   9.125 -0.2604 -0.3001 -0.8556
  180SLPC  H12X20644   3.194   0.589   9.132 -3.2484 -1.7294 -2.2658
  180SLPC  H12Y20645   3.170   0.420   9.156 -1.0227  0.1722 -1.6283
  180SLPC  C31320646   3.285   0.477   8.980  0.2660  0.0231  0.5852
  180SLPC  H13X20647   3.317   0.374   8.954 -0.3611  0.4207 -2.0471
  180SLPC  H13Y20648   3.357   0.558   8.955 -2.4123  1.9875 -1.5104
  180SLPC  C31420649   3.172   0.515   8.877 -0.2508  0.0923 -0.3298
  180SLPC  H14X20650   3.138   0.616   8.909  0.0766 -0.0534  0.5119
  180SLPC  H14Y20651   3.091   0.442   8.896  1.3531 -1.9933 -1.0716
  180SLPC  C31520652   3.211   0.530   8.731 -0.8086 -0.0525  0.7349
  180SLPC  H15X20653   3.283   0.615   8.722 -0.6345 -0.3747 -1.5831
  180SLPC  H15Y20654   3.123   0.563   8.673 -1.2993 -1.2346  0.7751
  180SLPC  C31620655   3.262   0.398   8.665 -0.2798 -0.6203 -0.1300
  180SLPC  H16X20656   3.185   0.322   8.641  0.7377 -2.0896  1.0334
  180SLPC  H16Y20657   3.330   0.340   8.731 -0.8438 -0.5093  0.5561
  180SLPC  C31720658   3.345   0.436   8.536 -0.4952 -0.7406  0.6796
  180SLPC  H17X20659   3.420   0.359   8.510  0.8809  0.6317  0.4783
  180SLPC  H17Y20660   3.399   0.529   8.563 -0.5160 -0.1924 -1.0925
  180SLPC  C31820661   3.249   0.457   8.415 -0.3224  0.1627  0.5222
  180SLPC  H18X20662   3.165   0.522   8.446  0.8399  0.6874  2.7527
  180SLPC  H18Y20663   3.215   0.355   8.385 -0.2390  0.4243 -0.4900
  180SLPC  H18Z20664   3.292   0.501   8.322 -1.2316 -0.8523 -0.4171
  181SLPC     N20665   6.080   4.718  10.978 -0.0705  0.1520 -0.4157
  181SLPC   C1320666   5.943   4.667  10.937 -1.2465  0.1313 -0.1079
  181SLPC  H13A20667   5.893   4.625  11.024  1.4424  0.0292  1.4960
  181SLPC  H13B20668   5.877   4.748  10.909 -2.2806 -1.3198 -2.1139
  181SLPC  H13C20669   5.953   4.590  10.862 -0.6221 -0.5521  0.6592
  181SLPC   C1420670   6.151   4.805  10.872  0.1997 -0.0504  0.2651
  181SLPC  H14A20671   6.085   4.888  10.852 -1.3962 -1.2526  0.2702
  181SLPC  H14B20672   6.244   4.834  10.919 -0.7955 -0.4650  2.6192
  181SLPC  H14C20673   6.176   4.750  10.782  1.2146  0.5111  0.1888
  181SLPC   C1520674   6.163   4.597  11.011  0.3993 -0.8388 -0.0187
  181SLPC  H15A20675   6.115   4.543  11.092 -1.8941  1.4434  0.2787
  181SLPC  H15B20676   6.179   4.527  10.929  2.0737  2.7752 -3.0812
  181SLPC  H15C20677   6.265   4.620  11.038 -0.1261 -0.9222  2.2235
  181SLPC   C1220678   6.053   4.797  11.104 -0.3678 -0.2068  0.6316
  181SLPC  H12A20679   5.996   4.736  11.173  1.9354 -1.4416  1.5799
  181SLPC  H12B20680   5.989   4.876  11.069  0.3565  1.1786  2.2760
  181SLPC   C1120681   6.168   4.866  11.176 -0.2768  0.1431  0.0408
  181SLPC  H11A20682   6.245   4.785  11.175 -1.5101 -1.0766  0.7982
  181SLPC  H11B20683   6.158   4.891  11.284  2.6401  1.0616  0.1903
  181SLPC     P20684   6.159   5.103  11.067  0.3835  0.5426  0.0604
  181SLPC   O1320685   6.033   5.114  11.146  0.5376  0.4741  0.1603
  181SLPC   O1420686   6.256   5.215  11.092 -0.2428  0.3038 -0.6242
  181SLPC   O1220687   6.220   4.969  11.091  0.1948  0.5069 -0.0043
  181SLPC   O1120688   6.115   5.111  10.921  0.3739  0.0513  0.6461
  181SLPC    C120689   6.214   5.147  10.822 -0.4647 -0.1063  0.4107
  181SLPC    HA20690   6.249   5.252  10.834 -1.6219  0.4624 -0.9216
  181SLPC    HB20691   6.306   5.086  10.834 -0.2459  0.0714 -0.3426
  181SLPC    C220692   6.160   5.140  10.676 -0.4029 -0.1375  0.3551
  181SLPC    HS20693   6.076   5.210  10.658 -1.1731 -0.9623  0.7023
  181SLPC   O2120694   6.117   4.998  10.652 -0.6303 -0.4451 -0.3768
  181SLPC   C2120695   6.015   4.977  10.574 -0.4071  0.4697 -0.0995
  181SLPC   O2220696   5.945   5.061  10.520  0.1251 -0.4678  0.9351
  181SLPC   C2220697   5.996   4.832  10.550 -0.5023 -0.2130 -0.3614
  181SLPC   H2R20698   6.082   4.792  10.492  0.5158  1.3483  0.0343
  181SLPC   H2S20699   5.984   4.774  10.644 -0.0142  0.2921  0.0138
  181SLPC    C320700   6.282   5.174  10.584  0.5072 -0.2414 -0.2800
  181SLPC    HX20701   6.354   5.092  10.602 -0.1694 -0.7574  0.1115
  181SLPC    HY20702   6.323   5.272  10.617  1.6146 -1.2372  1.4602
  181SLPC   O3120703   6.249   5.174  10.441  0.5308  0.1651  0.1978
  181SLPC   C3120704   6.175   5.283  10.399  0.3185 -0.5931  0.4259
  181SLPC   O3220705   6.166   5.388  10.458  0.2724  0.6576 -0.1812
  181SLPC   C3220706   6.098   5.236  10.278 -0.6557 -0.0820  0.1650
  181SLPC   H2X20707   6.009   5.181  10.313 -0.4396  0.6596  1.9700
  181SLPC   H2Y20708   6.169   5.172  10.221  0.5364  0.5447  0.9140
  181SLPC   C2320709   5.868   4.812  10.462 -0.4161 -0.0079  0.9502
  181SLPC   H3R20710   5.781   4.868  10.504 -0.9060 -1.9070  2.6271
  181SLPC   H3S20711   5.830   4.710  10.483 -3.2317  0.4258 -1.4984
  181SLPC   C2420712   5.911   4.838  10.313  0.4864  0.2739 -0.0691
  181SLPC   H4R20713   5.985   4.760  10.285  0.4712 -0.8483  2.6348
  181SLPC   H4S20714   5.952   4.941  10.311 -2.3836  1.6501  2.8789
  181SLPC   C2520715   5.782   4.823  10.229 -0.4761 -1.3411  0.3283
  181SLPC   H5R20716   5.705   4.885  10.280 -0.1489  1.7264 -2.5366
  181SLPC   H5S20717   5.744   4.719  10.223 -1.2522 -0.9858 -2.5571
  181SLPC   C2620718   5.802   4.867  10.084 -1.2804  0.9870 -0.0855
  181SLPC   H6R20719   5.832   4.974  10.078 -0.2714  0.7860  1.0006
  181SLPC   H6S20720   5.710   4.862  10.023 -1.5200 -0.5825  0.3533
  181SLPC   C2720721   5.915   4.771  10.016  0.6036  0.6265 -0.8903
  181SLPC   H7R20722   5.888   4.668  10.049  0.5646  1.5424  2.2404
  181SLPC   H7S20723   6.014   4.794  10.060 -0.7357  2.6957  1.2882
  181SLPC   C2820724   5.933   4.787   9.862 -0.0090 -0.0172 -0.2411
  181SLPC   H8R20725   6.013   4.712   9.845 -0.3662 -0.1322 -1.5187
  181SLPC   H8S20726   5.967   4.887   9.827  1.9870  0.1268  1.8961
  181SLPC   C2920727   5.810   4.750   9.783 -0.2428  0.0922 -0.6772
  181SLPC   H9R20728   5.733   4.700   9.844 -0.1129  0.6892 -0.0099
  181SLPC  C21020729   5.794   4.750   9.654 -0.5019 -0.6093  0.7012
  181SLPC  H10R20730   5.696   4.731   9.608  0.2211  1.6198 -2.0650
  181SLPC  C21120731   5.912   4.782   9.561 -0.4237 -0.8103  0.5560
  181SLPC  H11R20732   5.982   4.848   9.616  0.4637 -0.3000 -1.1359
  181SLPC  H11S20733   5.879   4.843   9.474  1.2543 -1.5973 -0.6903
  181SLPC  C21220734   5.971   4.662   9.486 -0.0228  1.1049 -0.2640
  181SLPC  H12R20735   6.000   4.582   9.555 -2.9045 -0.4052 -0.6581
  181SLPC  C21320736   5.970   4.628   9.355  0.6879 -0.1919 -0.8850
  181SLPC  H13R20737   6.024   4.540   9.318  1.2255  0.8795 -2.8276
  181SLPC  C21420738   5.912   4.703   9.232 -0.8358 -0.3202 -0.8415
  181SLPC  H14R20739   5.840   4.785   9.255 -0.8993 -0.5508 -0.1868
  181SLPC  H14S20740   5.849   4.627   9.181 -1.4668  0.5912 -1.4604
  181SLPC  C21520741   6.012   4.761   9.130  0.4371  0.4413 -0.0937
  181SLPC  H15R20742   6.082   4.678   9.106  0.9027  0.6731  0.4295
  181SLPC  H15S20743   6.062   4.849   9.176 -2.7330  1.5001  1.6676
  181SLPC  C21620744   5.943   4.808   9.003  0.4385 -0.1389 -0.5976
  181SLPC  H16R20745   6.026   4.845   8.938  2.1862 -1.0708  1.0174
  181SLPC  H16S20746   5.877   4.895   9.021 -1.9967 -1.7746 -0.9953
  181SLPC  C21720747   5.864   4.696   8.936  0.4885  0.1337  0.5097
  181SLPC  H17R20748   5.782   4.661   9.001 -0.4129 -0.1077 -0.7250
  181SLPC  H17S20749   5.931   4.612   8.908  3.2073  1.6715  1.8886
  181SLPC  C21820750   5.793   4.740   8.807 -1.3885  0.2924 -0.4071
  181SLPC  H18R20751   5.774   4.662   8.731  1.0922 -0.0984 -0.7213
  181SLPC  H18S20752   5.866   4.810   8.759 -1.5284  0.6331 -0.1292
  181SLPC  H18T20753   5.697   4.787   8.835 -1.1640 -0.3378  1.5507
  181SLPC   C3320754   6.061   5.362  10.192  0.8265  0.5928 -0.1711
  181SLPC   H3X20755   6.159   5.397  10.153  0.8048  0.5700 -0.2436
  181SLPC   H3Y20756   6.017   5.438  10.261  1.6391  0.7275  0.2109
  181SLPC   C3420757   5.945   5.322  10.099 -0.6178 -0.0028  0.0104
  181SLPC   H4X20758   5.891   5.411  10.061  0.5031  1.2616  1.2601
  181SLPC   H4Y20759   5.871   5.263  10.158  1.0206 -0.5478  1.6075
  181SLPC   C3520760   5.981   5.246   9.971 -0.0687  0.2732 -0.4361
  181SLPC   H5X20761   5.885   5.241   9.915  0.4086  3.4726 -1.7036
  181SLPC   H5Y20762   6.034   5.150   9.989  3.0879  1.8319 -0.7460
  181SLPC   C3620763   6.076   5.331   9.891  0.2133 -0.7678  0.1872
  181SLPC   H6X20764   6.171   5.352   9.946  1.1256 -0.8516 -1.3174
  181SLPC   H6Y20765   6.026   5.430   9.882 -0.5761 -1.1072  0.7173
  181SLPC   C3720766   6.110   5.271   9.755 -0.4735 -0.0813  0.0502
  181SLPC   H7X20767   6.178   5.185   9.774  0.4033  0.6860  0.4602
  181SLPC   H7Y20768   6.173   5.344   9.700  0.2724 -0.3226  0.5644
  181SLPC   C3820769   5.990   5.229   9.669 -0.2560  0.8841  0.0232
  181SLPC   H8X20770   5.903   5.297   9.676  0.2596  1.6843 -1.0668
  181SLPC   H8Y20771   5.955   5.134   9.714 -0.0129  0.6222 -0.3391
  181SLPC   C3920772   6.031   5.192   9.531  0.1719 -0.3333  0.7150
  181SLPC   H9X20773   6.109   5.113   9.528 -0.0035 -0.4955  0.3756
  181SLPC   H9Y20774   6.094   5.276   9.494  0.8973 -0.6291  1.2848
  181SLPC  C31020775   5.913   5.157   9.436 -0.3548 -0.6102 -0.0327
  181SLPC  H10X20776   5.848   5.246   9.428 -0.2034 -0.5918 -1.1753
  181SLPC  H10Y20777   5.849   5.084   9.489 -2.2076  0.7244 -0.3335
  181SLPC  C31120778   5.955   5.102   9.297 -0.8736 -0.0764  0.3663
  181SLPC  H11X20779   5.873   5.057   9.238  0.4665 -1.7768 -0.2746
  181SLPC  H11Y20780   6.030   5.023   9.318  3.1792  3.3105  0.1366
  181SLPC  C31220781   6.031   5.203   9.206 -0.0149  0.1358 -0.0467
  181SLPC  H12X20782   6.141   5.205   9.223  0.3029 -2.5974 -1.2480
  181SLPC  H12Y20783   6.000   5.308   9.228  2.3831  0.3804  2.8456
  181SLPC  C31320784   6.028   5.168   9.055 -0.0379 -0.2119 -0.4431
  181SLPC  H13X20785   5.930   5.164   9.002  0.7096 -0.8560 -1.8212
  181SLPC  H13Y20786   6.088   5.081   9.023  1.9332  1.3794 -1.2710
  181SLPC  C31420787   6.095   5.291   8.991  0.2531 -0.0508  0.7335
  181SLPC  H14X20788   6.198   5.298   9.033  0.9920 -0.9549 -0.8427
  181SLPC  H14Y20789   6.034   5.384   8.989 -0.9856 -0.8554 -1.5996
  181SLPC  C31520790   6.144   5.264   8.843 -0.2532  0.0139  0.0097
  181SLPC  H15X20791   6.059   5.240   8.776  0.9712 -2.0864 -0.8919
  181SLPC  H15Y20792   6.198   5.167   8.851 -1.1271 -0.4016  1.1882
  181SLPC  C31620793   6.235   5.376   8.793 -0.0096  0.1787  0.3926
  181SLPC  H16X20794   6.304   5.399   8.878  0.5286  0.3472 -0.0786
  181SLPC  H16Y20795   6.180   5.471   8.773  2.2971  1.2693 -1.2921
  181SLPC  C31720796   6.315   5.345   8.665  0.1087  0.2649  0.8419
  181SLPC  H17X20797   6.390   5.271   8.702 -0.5725  0.3453  2.4747
  181SLPC  H17Y20798   6.373   5.435   8.637  2.0090 -1.1647 -0.0250
  181SLPC  C31820799   6.235   5.295   8.553 -0.2047 -0.2434  0.1680
  181SLPC  H18X20800   6.187   5.386   8.511 -0.9601 -0.0825  1.3642
  181SLPC  H18Y20801   6.157   5.218   8.570 -2.3623  1.9853  0.9101
  181SLPC  H18Z20802   6.309   5.257   8.480  0.6862 -1.5669  1.7039
  182SLPC     N20803   5.586   0.508  11.156 -0.1727  0.7187  0.1384
  182SLPC   C1320804   5.629   0.390  11.075  0.5397  0.5627  0.1235
  182SLPC  H13A20805   5.635   0.414  10.969  0.8647  1.2309  0.2860
  182SLPC  H13B20806   5.719   0.344  11.113  0.6440 -0.1834 -0.9805
  182SLPC  H13C20807   5.544   0.325  11.077 -2.3187  3.9938  0.4681
  182SLPC   C1420808   5.573   0.469  11.299 -0.0966 -0.0854  0.9739
  182SLPC  H14A20809   5.495   0.396  11.312  0.1445 -0.9030 -1.5962
  182SLPC  H14B20810   5.666   0.428  11.335  0.7264 -0.1069 -0.9986
  182SLPC  H14C20811   5.544   0.556  11.356  1.5114 -0.7829  2.9430
  182SLPC   C1520812   5.445   0.532  11.105 -0.3799 -0.1579  0.6642
  182SLPC  H15A20813   5.394   0.611  11.159 -1.5479 -1.1222  1.0229
  182SLPC  H15B20814   5.432   0.562  11.003  0.7520  0.2766  0.6355
  182SLPC  H15C20815   5.376   0.452  11.128 -1.0109 -0.3631 -1.7244
  182SLPC   C1220816   5.680   0.629  11.139  1.4286  0.5226  0.3276
  182SLPC  H12A20817   5.626   0.715  11.174  0.8474  1.0071 -1.6305
  182SLPC  H12B20818   5.679   0.653  11.034  2.0462 -2.6483 -0.5093
  182SLPC   C1120819   5.830   0.630  11.168  0.2596 -0.7161 -0.3319
  182SLPC  H11A20820   5.842   0.597  11.273 -2.4667  0.9994  0.6314
  182SLPC  H11B20821   5.858   0.738  11.161 -1.3387 -0.2101  0.4160
  182SLPC     P20822   5.933   0.562  10.930  0.1118 -0.0615  0.2544
  182SLPC   O1320823   6.080   0.530  10.919  0.1502  0.0135 -0.3781
  182SLPC   O1420824   5.840   0.468  10.867  0.1431 -0.6603  0.1695
  182SLPC   O1220825   5.906   0.554  11.082  0.0755  0.1808 -0.2094
  182SLPC   O1120826   5.911   0.718  10.883  0.2539 -0.5133 -0.3363
  182SLPC    C120827   5.823   0.746  10.775 -0.1418  0.0521 -0.0459
  182SLPC    HA20828   5.747   0.667  10.756 -1.3529  1.1077  0.2435
  182SLPC    HB20829   5.762   0.836  10.798 -3.2933 -1.8857 -0.0370
  182SLPC    C220830   5.904   0.761  10.642  0.6156  0.3824  0.3635
  182SLPC    HS20831   5.835   0.795  10.562  0.8815 -1.1644 -0.5654
  182SLPC   O2120832   5.965   0.632  10.601 -0.4612  0.1654 -0.7935
  182SLPC   C2120833   5.884   0.539  10.567  0.0367 -0.7536 -0.0331
  182SLPC   O2220834   5.764   0.551  10.543  0.6619 -0.1515  0.4005
  182SLPC   C2220835   5.956   0.407  10.561 -0.2555  0.4060 -0.1681
  182SLPC   H2R20836   5.989   0.389  10.665 -0.9045 -0.0485 -0.0290
  182SLPC   H2S20837   5.883   0.326  10.537  0.2417 -0.1810  0.2943
  182SLPC    C320838   6.011   0.869  10.642  0.5784 -1.0763 -0.0590
  182SLPC    HX20839   6.078   0.850  10.729  3.0693  1.2543 -1.2957
  182SLPC    HY20840   5.968   0.968  10.667 -1.6633 -1.9473 -0.3112
  182SLPC   O3120841   6.062   0.889  10.512 -0.3198  0.4808 -0.1035
  182SLPC   C3120842   6.172   0.838  10.482  1.1575 -0.1813 -0.0610
  182SLPC   O3220843   6.247   0.771  10.554  0.0342  0.4944 -0.0440
  182SLPC   C3220844   6.202   0.870  10.335 -0.0580 -0.2367 -0.7620
  182SLPC   H2X20845   6.132   0.815  10.268 -0.9505  1.5215 -1.3474
  182SLPC   H2Y20846   6.304   0.832  10.316  0.2330 -0.2860  0.8281
  182SLPC   C2320847   6.078   0.410  10.465 -0.0912 -0.0476 -0.2352
  182SLPC   H3R20848   6.127   0.311  10.480  0.2886 -0.0605 -1.4603
  182SLPC   H3S20849   6.153   0.480  10.509  0.4058 -1.9174  2.0885
  182SLPC   C2420850   6.046   0.440  10.321 -0.4899 -0.6348  0.3748
  182SLPC   H4R20851   5.952   0.499  10.308  0.4009  0.7584  0.0191
  182SLPC   H4S20852   6.036   0.339  10.276  0.5424 -0.7214  0.3160
  182SLPC   C2520853   6.167   0.496  10.242  0.2007  0.3041  0.1043
  182SLPC   H5R20854   6.247   0.419  10.239 -0.4637 -0.3705 -1.6207
  182SLPC   H5S20855   6.203   0.590  10.288 -0.7675 -0.2647  2.1867
  182SLPC   C2620856   6.127   0.520  10.100  0.7357  0.7617  0.3143
  182SLPC   H6R20857   6.074   0.617  10.097  0.5760  0.6535 -1.0423
  182SLPC   H6S20858   6.055   0.445  10.062  0.3977  2.0790 -1.8360
  182SLPC   C2720859   6.255   0.513  10.014  0.6334 -0.0772 -0.5620
  182SLPC   H7R20860   6.301   0.413  10.025 -1.5977 -0.9640  1.8579
  182SLPC   H7S20861   6.330   0.584  10.055 -0.6201  1.2915 -0.5632
  182SLPC   C2820862   6.218   0.546   9.871  0.0086  0.1063 -0.5521
  182SLPC   H8R20863   6.166   0.642   9.888  1.2481  0.6130  0.4995
  182SLPC   H8S20864   6.146   0.476   9.822  3.1702 -2.4924 -1.8755
  182SLPC   C2920865   6.341   0.567   9.793  0.0822 -0.1464 -0.2859
  182SLPC   H9R20866   6.428   0.604   9.850  1.0741 -1.3924 -0.9598
  182SLPC  C21020867   6.358   0.538   9.669 -0.0486  0.3899  0.5699
  182SLPC  H10R20868   6.460   0.550   9.629 -0.8274  1.5885 -1.1941
  182SLPC  C21120869   6.253   0.478   9.580  0.2242  0.1493  0.3122
  182SLPC  H11R20870   6.154   0.490   9.629  0.6589 -0.5915  1.4381
  182SLPC  H11S20871   6.277   0.370   9.571 -2.6738 -0.3961 -2.7794
  182SLPC  C21220872   6.259   0.522   9.436 -0.6749 -0.0467  0.7864
  182SLPC  H12R20873   6.316   0.448   9.377  0.5215  1.4384  0.0060
  182SLPC  C21320874   6.247   0.646   9.384 -0.0583 -0.4714 -0.2908
  182SLPC  H13R20875   6.256   0.666   9.277 -0.9300  0.9890 -0.1103
  182SLPC  C21420876   6.212   0.771   9.464 -0.7303 -0.2767 -0.3807
  182SLPC  H14R20877   6.278   0.855   9.433  0.7400 -0.2910  2.3619
  182SLPC  H14S20878   6.246   0.758   9.569  2.0256  0.0220 -1.1559
  182SLPC  C21520879   6.063   0.806   9.454 -0.5735 -0.6837 -0.2246
  182SLPC  H15R20880   6.047   0.891   9.523 -0.3761 -1.0886  0.3300
  182SLPC  H15S20881   5.992   0.722   9.468 -2.2273  0.5633 -0.7659
  182SLPC  C21620882   6.036   0.857   9.311  0.3558  0.7076 -0.2827
  182SLPC  H16R20883   6.058   0.774   9.241  1.5510  0.8367 -0.0924
  182SLPC  H16S20884   6.107   0.939   9.286 -0.2029  1.1269 -0.5059
  182SLPC  C21720885   5.894   0.918   9.290 -0.4301  0.7605 -1.1292
  182SLPC  H17R20886   5.884   1.011   9.349 -0.9227  0.9314 -1.4718
  182SLPC  H17S20887   5.825   0.841   9.330  1.3919  0.0293  0.7214
  182SLPC  C21820888   5.859   0.947   9.143  0.1057  0.4903  0.5123
  182SLPC  H18R20889   5.891   0.857   9.087 -0.6960 -0.1232  1.0301
  182SLPC  H18S20890   5.918   1.026   9.092  1.5411 -0.5118  0.5754
  182SLPC  H18T20891   5.751   0.969   9.130  0.4941  1.2850 -1.7199
  182SLPC   C3320892   6.188   1.015  10.306 -0.6337 -0.1454  0.1974
  182SLPC   H3X20893   6.250   1.077  10.373 -0.1722  2.0841 -2.1327
  182SLPC   H3Y20894   6.082   1.041  10.327 -0.6687  0.2486 -0.4428
  182SLPC   C3420895   6.216   1.050  10.167 -0.4328  0.6892  0.0566
  182SLPC   H4X20896   6.171   0.987  10.087 -1.0522 -1.2786  1.8853
  182SLPC   H4Y20897   6.324   1.026  10.164 -0.7922 -1.4653  1.9484
  182SLPC   C3520898   6.194   1.196  10.139 -0.1685 -1.0907  0.1691
  182SLPC   H5X20899   6.248   1.265  10.206 -1.7871 -0.7223  1.1512
  182SLPC   H5Y20900   6.090   1.232  10.148  0.5005  0.4642  2.7198
  182SLPC   C3620901   6.225   1.245   9.997  0.1092  0.2773 -0.6530
  182SLPC   H6X20902   6.335   1.240   9.983 -0.1449 -0.0377 -2.9445
  182SLPC   H6Y20903   6.196   1.352   9.993 -0.6009  0.0967 -0.4545
  182SLPC   C3720904   6.152   1.169   9.889 -0.4035  0.5320 -0.0931
  182SLPC   H7X20905   6.047   1.159   9.927 -0.5550  0.7633 -0.4473
  182SLPC   H7Y20906   6.195   1.068   9.872  0.7235  0.9520  0.1742
  182SLPC   C3820907   6.161   1.241   9.755  0.3108 -0.2825 -0.2186
  182SLPC   H8X20908   6.267   1.236   9.722 -0.1214 -1.0981 -1.5495
  182SLPC   H8Y20909   6.139   1.347   9.779 -1.2727 -0.6669  0.1571
  182SLPC   C3920910   6.069   1.186   9.649  0.3393  0.6360 -0.3658
  182SLPC   H9X20911   5.967   1.209   9.688 -0.5146 -0.1051 -2.0554
  182SLPC   H9Y20912   6.091   1.078   9.636 -0.2773  0.5620 -0.8218
  182SLPC  C31020913   6.084   1.256   9.514 -0.6978  0.0665  0.8497
  182SLPC  H10X20914   6.061   1.364   9.527  1.0036  0.2657  2.5342
  182SLPC  H10Y20915   5.995   1.227   9.454  0.2193 -3.0351  0.7907
  182SLPC  C31120916   6.214   1.237   9.439  0.5195 -0.4365  0.8748
  182SLPC  H11X20917   6.225   1.128   9.418 -1.0816 -0.4924  0.1592
  182SLPC  H11Y20918   6.301   1.275   9.497  1.6575  0.6380 -1.3888
  182SLPC  C31220919   6.204   1.320   9.306 -0.2292  0.1784 -0.3347
  182SLPC  H12X20920   6.200   1.425   9.341 -0.4952 -0.3232  1.1859
  182SLPC  H12Y20921   6.115   1.313   9.240 -1.4054 -0.8019  1.2827
  182SLPC  C31320922   6.335   1.296   9.227  0.5298  0.6155 -0.6744
  182SLPC  H13X20923   6.347   1.192   9.191  0.6007  1.0821 -2.0480
  182SLPC  H13Y20924   6.416   1.322   9.299 -0.1716 -0.2271  0.4566
  182SLPC  C31420925   6.364   1.391   9.108  0.8051 -0.4119  0.1245
  182SLPC  H14X20926   6.460   1.350   9.070  0.8652 -1.0969  0.9834
  182SLPC  H14Y20927   6.395   1.493   9.140  0.9793 -0.2804 -0.4467
  182SLPC  C31520928   6.263   1.410   9.007  0.6454 -0.3078  0.5618
  182SLPC  H15X20929   6.170   1.466   9.034  0.2924 -0.3709 -0.4943
  182SLPC  H15Y20930   6.221   1.312   8.977  1.2564  0.4111 -3.0564
  182SLPC  C31620931   6.304   1.482   8.881 -1.2491 -0.0482  1.1184
  182SLPC  H16X20932   6.404   1.445   8.848 -1.1596 -0.3745  1.7291
  182SLPC  H16Y20933   6.308   1.592   8.892  0.6636 -0.0259  0.5759
  182SLPC  C31720934   6.207   1.463   8.762  0.5362 -0.5844 -0.7612
  182SLPC  H17X20935   6.102   1.468   8.798  0.9586  2.2010  0.3683
  182SLPC  H17Y20936   6.220   1.364   8.713 -2.4349 -0.7360 -1.4231
  182SLPC  C31820937   6.209   1.578   8.662 -0.5367  0.2995  0.3176
  182SLPC  H18X20938   6.135   1.575   8.580  1.2692  5.9646 -2.0326
  182SLPC  H18Y20939   6.307   1.588   8.609 -1.5129  0.7006 -1.4851
  182SLPC  H18Z20940   6.184   1.670   8.719 -0.1785 -0.3395  1.5593
  183SLPC     N20941   0.029   0.850  10.710  0.0563 -0.0419  0.0846
  183SLPC   C1320942   0.161   0.862  10.795  0.7447  0.2299  0.8378
  183SLPC  H13A20943   0.234   0.804  10.741  2.0589  0.7183  2.0260
  183SLPC  H13B20944   0.197   0.964  10.792 -1.9229  1.2332 -0.7138
  183SLPC  H13C20945   0.153   0.816  10.893 -0.8817 -2.4675 -0.4482
  183SLPC   C1420946   0.077   0.871  10.571  0.2154  0.3075 -0.3456
  183SLPC  H14A20947   0.106   0.975  10.565  1.3350  0.1315  1.2065
  183SLPC  H14B20948   0.152   0.797  10.548 -1.7498 -2.3620  1.2163
  183SLPC  H14C20949   0.004   0.855  10.493  0.5621  1.0683 -0.8391
  183SLPC   C1520950  -0.055   0.967  10.754  0.1305 -0.0444 -0.1512
  183SLPC  H15A20951   0.013   1.049  10.770  1.4090 -1.2706  0.9855
  183SLPC  H15B20952  -0.136   0.996  10.689  0.5300  1.0442 -0.1942
  183SLPC  H15C20953  -0.093   0.944  10.853  1.5988  1.1594  0.7459
  183SLPC   C1220954  -0.045   0.723  10.726  0.4333  0.4350 -0.3402
  183SLPC  H12A20955   0.007   0.648  10.668 -1.2777  3.0097 -5.9300
  183SLPC  H12B20956  -0.142   0.735  10.680  0.0751 -0.5712  0.1321
  183SLPC   C1120957  -0.081   0.672  10.871 -0.0404 -0.0858  0.5346
  183SLPC  H11A20958  -0.147   0.584  10.859  0.7609 -1.1073  2.9450
  183SLPC  H11B20959  -0.153   0.739  10.923 -2.9741 -2.7090  0.1513
  183SLPC     P20960   0.098   0.505  10.929 -0.2231 -0.5989  0.1567
  183SLPC   O1320961   0.239   0.515  10.946  0.1279  0.2819 -0.4630
  183SLPC   O1420962   0.024   0.405  11.005  0.6790 -0.1847  0.3156
  183SLPC   O1220963   0.035   0.645  10.948  0.0039  0.1467 -0.0663
  183SLPC   O1120964   0.074   0.482  10.778 -0.1060 -0.4551 -0.1152
  183SLPC    C120965   0.007   0.363  10.727  0.7623 -0.2816 -0.3121
  183SLPC    HA20966  -0.063   0.322  10.803  1.3700  2.5870  1.9573
  183SLPC    HB20967  -0.046   0.378  10.631 -0.2679 -1.3148  0.0682
  183SLPC    C220968   0.111   0.251  10.677 -0.0832 -0.6471 -0.1330
  183SLPC    HS20969   0.168   0.222  10.767  1.2810 -0.2412 -0.8450
  183SLPC   O2120970   0.201   0.301  10.574 -0.5733  0.2882  0.0166
  183SLPC   C2120971   0.315   0.229  10.570  1.2910 -0.4832  0.4712
  183SLPC   O2220972   0.339   0.125  10.629  0.0759 -0.9140 -0.0995
  183SLPC   C2220973   0.422   0.298  10.478  0.0102  0.2505  0.4039
  183SLPC   H2R20974   0.375   0.395  10.455 -0.3930  0.2726  1.2785
  183SLPC   H2S20975   0.513   0.324  10.537 -0.6985  2.1264  0.7044
  183SLPC    C320976   0.038   0.119  10.627  0.7808  0.5867  0.1603
  183SLPC    HX20977  -0.037   0.106  10.708  0.9261  1.4680  0.4469
  183SLPC    HY20978   0.105   0.030  10.623 -2.3025 -1.8633 -2.5557
  183SLPC   O3120979  -0.023   0.155  10.495  0.1809  0.5721  0.2102
  183SLPC   C3120980  -0.077   0.055  10.425 -0.3080 -0.6954 -0.5671
  183SLPC   O3220981  -0.084  -0.060  10.461 -0.8253  0.0021 -0.4696
  183SLPC   C3220982  -0.094   0.105  10.278 -0.0672  0.4814 -0.0801
  183SLPC   H2X20983  -0.002   0.081  10.221 -0.3222 -1.6912  0.3369
  183SLPC   H2Y20984  -0.098   0.216  10.276 -0.6121  0.4717  0.1876
  183SLPC   C2320985   0.458   0.218  10.354  0.6184  0.4213 -0.3010
  183SLPC   H3R20986   0.474   0.114  10.390  3.2843  0.2068 -1.8257
  183SLPC   H3S20987   0.564   0.240  10.326  0.7372 -0.3154 -0.4505
  183SLPC   C2420988   0.370   0.218  10.234  0.8000  0.1094 -0.0414
  183SLPC   H4R20989   0.263   0.216  10.261  0.0865  1.8980 -2.3551
  183SLPC   H4S20990   0.389   0.132  10.166  1.2204  0.9797 -1.0722
  183SLPC   C2520991   0.397   0.344  10.160  0.6793 -0.3954 -0.0885
  183SLPC   H5R20992   0.506   0.348  10.138  0.6191  0.1948 -0.3021
  183SLPC   H5S20993   0.386   0.425  10.236 -0.5652 -0.9721  0.3764
  183SLPC   C2620994   0.320   0.385  10.036  0.5215 -0.0941 -0.3946
  183SLPC   H6R20995   0.319   0.299   9.966 -4.5694 -0.0884 -0.7323
  183SLPC   H6S20996   0.363   0.472   9.982 -0.3858 -0.7276 -2.2091
  183SLPC   C2720997   0.183   0.435  10.077  0.8165  0.2382 -0.5081
  183SLPC   H7R20998   0.204   0.528  10.135 -0.4504 -0.9441  1.9998
  183SLPC   H7S20999   0.138   0.365  10.150  0.2044  1.6835  0.5535
  183SLPC   C2821000   0.087   0.484   9.973 -0.2070  0.8160 -0.4529
  183SLPC   H8R21001   0.139   0.560   9.910  1.1247  1.1573  1.0219
  183SLPC   H8S21002   0.013   0.541  10.033  0.6871  0.2367  1.2622
  183SLPC   C2921003   0.019   0.372   9.892  0.2989 -0.1812 -0.2018
  183SLPC   H9R21004  -0.039   0.308   9.960 -0.4222  0.8407  0.1602
  183SLPC  C21021005   0.022   0.363   9.756  0.9815 -0.2114  0.7597
  183SLPC  H10R21006  -0.032   0.276   9.717  0.0300  0.4577  0.5475
  183SLPC  C21121007   0.086   0.451   9.655 -0.0819  0.3405 -0.5657
  183SLPC  H11R21008   0.072   0.554   9.693  0.3751  0.2071 -0.0126
  183SLPC  H11S21009   0.015   0.456   9.569 -2.2765  0.8942  1.1849
  183SLPC  C21221010   0.230   0.432   9.616 -0.2803 -0.3947  0.1407
  183SLPC  H12R21011   0.292   0.449   9.705 -0.1801 -0.1010  0.0153
  183SLPC  C21321012   0.284   0.386   9.509  0.0487 -0.0268 -0.1579
  183SLPC  H13R21013   0.392   0.372   9.522 -0.1146  0.4049  2.0409
  183SLPC  C21421014   0.208   0.346   9.385 -0.7708 -0.2501 -0.2591
  183SLPC  H14R21015   0.103   0.379   9.371 -0.6922  0.8211  1.3389
  183SLPC  H14S21016   0.208   0.235   9.389 -0.3173 -0.5188 -3.9686
  183SLPC  C21521017   0.285   0.397   9.267 -0.4879  0.1646  0.3092
  183SLPC  H15R21018   0.393   0.379   9.285 -0.6560  1.0108  2.4429
  183SLPC  H15S21019   0.270   0.505   9.245  0.5622 -0.0943 -2.0224
  183SLPC  C21621020   0.241   0.312   9.146 -0.0143  0.1792  1.2415
  183SLPC  H16R21021   0.135   0.339   9.130  0.7298  1.8143 -1.5656
  183SLPC  H16S21022   0.257   0.206   9.175 -0.2545 -1.1361 -2.9034
  183SLPC  C21721023   0.318   0.322   9.014  0.3842  0.1935 -0.2717
  183SLPC  H17R21024   0.413   0.269   9.036 -0.9303 -1.5045  1.6880
  183SLPC  H17S21025   0.329   0.425   8.973  1.2306  0.2433  0.0520
  183SLPC  C21821026   0.243   0.250   8.901 -0.6298  0.6935  0.0268
  183SLPC  H18R21027   0.241   0.140   8.920  2.9231  0.5554  0.3035
  183SLPC  H18S21028   0.306   0.248   8.809 -0.3483  2.6240  0.1433
  183SLPC  H18T21029   0.140   0.290   8.889 -0.6847 -0.0102 -2.6374
  183SLPC   C3321030  -0.213   0.043  10.199 -0.4019 -0.9177  0.2556
  183SLPC   H3X21031  -0.303   0.057  10.263 -0.3554  1.5078 -0.1053
  183SLPC   H3Y21032  -0.206  -0.067  10.191  1.6344 -0.8122 -0.0670
  183SLPC   C3421033  -0.246   0.108  10.062 -0.4741  0.0901  0.3205
  183SLPC   H4X21034  -0.155   0.098   9.999 -0.3439 -1.7158  0.7550
  183SLPC   H4Y21035  -0.262   0.216  10.083  0.2352 -0.3230  3.5503
  183SLPC   C3521036  -0.367   0.045   9.993 -0.3391  0.2201 -0.6782
  183SLPC   H5X21037  -0.455   0.085  10.047  0.1982  0.8573 -0.2648
  183SLPC   H5Y21038  -0.361  -0.065  10.007  0.4943  0.3696  0.2574
  183SLPC   C3621039  -0.359   0.070   9.842 -0.5145  0.3154  0.4058
  183SLPC   H6X21040  -0.274   0.002   9.819  2.0593  3.5563 -0.4830
  183SLPC   H6Y21041  -0.339   0.179   9.831 -1.4460  0.3975 -0.6571
  183SLPC   C3721042  -0.487   0.037   9.768  0.1368 -0.8008  0.5277
  183SLPC   H7X21043  -0.568   0.111   9.787 -0.3660 -1.5140  1.2264
  183SLPC   H7Y21044  -0.534  -0.062   9.785 -0.3315 -0.7749 -0.4788
  183SLPC   C3821045  -0.464   0.028   9.614 -0.1212  0.3168  0.2917
  183SLPC   H8X21046  -0.382  -0.045   9.599 -0.4758  0.1233 -0.8655
  183SLPC   H8Y21047  -0.423   0.118   9.565  0.7844 -0.9904 -1.5042
  183SLPC   C3921048  -0.588  -0.015   9.535 -0.4502 -0.4564 -0.3477
  183SLPC   H9X21049  -0.681   0.042   9.558  0.3087  2.2574 -3.1992
  183SLPC   H9Y21050  -0.611  -0.121   9.560 -2.5720 -0.0628 -0.4072
  183SLPC  C31021051  -0.569  -0.011   9.384 -0.9223  0.0866  0.5507
  183SLPC  H10X21052  -0.472  -0.057   9.355 -0.6026 -0.5107  2.4583
  183SLPC  H10Y21053  -0.571   0.095   9.351 -0.4832 -0.4234 -1.2045
  183SLPC  C31121054  -0.687  -0.081   9.300 -0.2773  0.2651 -0.4975
  183SLPC  H11X21055  -0.768  -0.005   9.299  1.6833  2.5458 -2.8587
  183SLPC  H11Y21056  -0.720  -0.175   9.347 -1.3104  1.1453  0.5929
  183SLPC  C31221057  -0.644  -0.100   9.148  0.2782  0.6466 -0.1421
  183SLPC  H12X21058  -0.551  -0.161   9.147 -2.0605 -3.2996 -2.1993
  183SLPC  H12Y21059  -0.636   0.007   9.118  1.9938  0.2097 -1.4079
  183SLPC  C31321060  -0.753  -0.174   9.068  0.2770  0.7606 -0.3214
  183SLPC  H13X21061  -0.761  -0.126   8.967 -1.0698  2.0574  0.3588
  183SLPC  H13Y21062  -0.853  -0.161   9.113  0.0672 -0.8996 -0.2448
  183SLPC  C31421063  -0.718  -0.322   9.058  0.2651 -0.1542  0.1085
  183SLPC  H14X21064  -0.727  -0.365   9.160 -1.0538 -0.7702 -0.2466
  183SLPC  H14Y21065  -0.623  -0.347   9.007 -0.0493 -1.4825  0.1326
  183SLPC  C31521066  -0.819  -0.406   8.971  0.2015 -0.4000  0.3903
  183SLPC  H15X21067  -0.830  -0.363   8.869 -0.4399 -1.3735  0.0436
  183SLPC  H15Y21068  -0.914  -0.393   9.027  1.7104 -0.7060  3.1916
  183SLPC  C31621069  -0.783  -0.550   8.944 -0.3696 -0.0885  0.8122
  183SLPC  H16X21070  -0.752  -0.604   9.036  2.2221 -2.8420 -1.4584
  183SLPC  H16Y21071  -0.689  -0.556   8.885  0.7883  1.4720  2.3963
  183SLPC  C31721072  -0.895  -0.626   8.874 -0.0713 -0.6928  0.1007
  183SLPC  H17X21073  -0.920  -0.589   8.772 -0.5185  1.3072  0.8919
  183SLPC  H17Y21074  -0.986  -0.603   8.934  1.0951 -0.7795  1.9976
  183SLPC  C31821075  -0.872  -0.782   8.870 -0.0889  0.2604 -0.7484
  183SLPC  H18X21076  -0.857  -0.821   8.973  1.2205 -3.3527 -2.1363
  183SLPC  H18Y21077  -0.771  -0.801   8.827  0.1989  0.4683 -0.1671
  183SLPC  H18Z21078  -0.941  -0.846   8.811  1.5016  0.0261 -2.4675
  184SLPC     N21079   0.281   3.929  10.704  0.5838  0.1174  0.6486
  184SLPC   C1321080   0.192   3.874  10.599 -0.3885  0.4734 -0.5818
  184SLPC  H13A21081   0.209   3.922  10.504 -0.0585 -3.3463 -2.6425
  184SLPC  H13B21082   0.197   3.767  10.585 -0.8288  0.6113 -1.8927
  184SLPC  H13C21083   0.094   3.903  10.633 -0.6820 -0.2115 -0.8161
  184SLPC   C1421084   0.282   3.833  10.820  0.1078 -0.1393 -0.5120
  184SLPC  H14A21085   0.341   3.858  10.907 -2.0168 -1.3622  1.3873
  184SLPC  H14B21086   0.182   3.811  10.854  0.8556 -3.6600 -0.1451
  184SLPC  H14C21087   0.337   3.745  10.789  0.9560  0.1611  0.0857
  184SLPC   C1521088   0.229   4.061  10.750 -0.2275 -0.0290  0.5032
  184SLPC  H15A21089   0.135   4.043  10.800 -0.0062 -0.0834  0.9041
  184SLPC  H15B21090   0.295   4.112  10.819 -1.5460  1.4574  0.7101
  184SLPC  H15C21091   0.199   4.131  10.673 -1.7821  0.8861  1.8701
  184SLPC   C1221092   0.422   3.946  10.643  0.1710 -0.5045 -0.1240
  184SLPC  H12A21093   0.489   3.973  10.724  1.5662 -2.1511 -0.6781
  184SLPC  H12B21094   0.420   4.029  10.574 -1.3866 -0.9716 -0.6687
  184SLPC   C1121095   0.489   3.826  10.572  0.0718 -0.1468  0.8109
  184SLPC  H11A21096   0.588   3.857  10.533  0.2887 -2.7018 -0.9538
  184SLPC  H11B21097   0.427   3.792  10.485  1.1040  1.3258 -0.5623
  184SLPC     P21098   0.567   3.583  10.627  0.3858  0.0013  0.0883
  184SLPC   O1321099   0.703   3.569  10.684  0.2942  0.3204  0.5267
  184SLPC   O1421100   0.462   3.493  10.665  0.1237 -0.1639  0.0841
  184SLPC   O1221101   0.516   3.726  10.672  0.0368  0.1806  0.3664
  184SLPC   O1121102   0.584   3.593  10.474  0.2818 -0.4048 -0.8305
  184SLPC    C121103   0.485   3.532  10.390 -0.3312  0.5920  0.2584
  184SLPC    HA21104   0.386   3.542  10.440 -0.1460  0.9444  0.5526
  184SLPC    HB21105   0.482   3.593  10.298  1.5279 -0.3983 -0.5098
  184SLPC    C221106   0.528   3.380  10.356 -0.4065  0.4160 -1.0276
  184SLPC    HS21107   0.542   3.334  10.456  3.0520  0.4514 -1.3912
  184SLPC   O2121108   0.651   3.368  10.288  0.2238 -0.3163 -0.1854
  184SLPC   C2121109   0.723   3.257  10.292 -0.2671 -0.1517  0.3707
  184SLPC   O2221110   0.698   3.162  10.360  0.0190 -0.5556  0.0598
  184SLPC   C2221111   0.863   3.266  10.214  0.1730 -0.0331 -0.4811
  184SLPC   H2R21112   0.847   3.344  10.137 -2.1256  0.3804  0.3274
  184SLPC   H2S21113   0.943   3.293  10.287 -1.9503  0.0350  1.9998
  184SLPC    C321114   0.419   3.300  10.278 -0.8524  0.1892 -0.0081
  184SLPC    HX21115   0.332   3.305  10.348  0.7311  0.6736  2.0195
  184SLPC    HY21116   0.448   3.193  10.265 -1.6367  0.0909 -1.1777
  184SLPC   O3121117   0.386   3.367  10.151 -0.1053  0.4654 -0.3303
  184SLPC   C3121118   0.444   3.299  10.047  0.8316  0.4933  0.8491
  184SLPC   O3221119   0.521   3.204  10.053  0.2360 -0.1234 -0.1318
  184SLPC   C3221120   0.424   3.382   9.922  0.1275  0.7008  0.0613
  184SLPC   H2X21121   0.470   3.483   9.931 -2.6168  1.9534  1.0461
  184SLPC   H2Y21122   0.315   3.400   9.908 -0.4989 -1.1594  2.1037
  184SLPC   C2321123   0.895   3.132  10.139  0.0456 -0.5320 -0.5627
  184SLPC   H3R21124   0.802   3.101  10.087  1.2158 -1.9657 -1.8829
  184SLPC   H3S21125   0.940   3.051  10.200  0.9952  0.5029  0.1552
  184SLPC   C2421126   1.005   3.158  10.027 -0.0101 -0.4053 -0.8082
  184SLPC   H4R21127   1.094   3.205  10.074 -0.6155  0.1268 -0.1727
  184SLPC   H4S21128   0.971   3.232   9.951 -0.1155  1.2620  0.8084
  184SLPC   C2521129   1.034   3.031   9.950  0.3455 -0.0225  0.5607
  184SLPC   H5R21130   0.951   3.012   9.879  1.5684  1.6139 -1.4103
  184SLPC   H5S21131   1.036   2.948  10.024  1.3419 -1.3120 -0.8705
  184SLPC   C2621132   1.172   3.031   9.886  0.0618  0.9429  0.3812
  184SLPC   H6R21133   1.165   2.935   9.831 -1.7744 -0.0274  2.1428
  184SLPC   H6S21134   1.249   3.007   9.962  0.8964  0.3926 -0.6154
  184SLPC   C2721135   1.204   3.147   9.789  0.4479 -0.5846 -0.2016
  184SLPC   H7R21136   1.298   3.135   9.732  1.1416  0.9468  0.5472
  184SLPC   H7S21137   1.224   3.240   9.847  1.6360 -0.6219 -0.5181
  184SLPC   C2821138   1.092   3.164   9.682 -1.1142 -0.3546 -0.6006
  184SLPC   H8R21139   1.132   3.243   9.616  1.0203 -2.0150 -1.4134
  184SLPC   H8S21140   1.006   3.204   9.740  1.1241  1.0206  2.0527
  184SLPC   C2921141   1.056   3.051   9.593 -0.4176  0.6223  0.5518
  184SLPC   H9R21142   1.134   2.987   9.548 -2.0109  0.0499 -1.5753
  184SLPC  C21021143   0.930   3.011   9.549 -0.3110 -0.6490 -0.1126
  184SLPC  H10R21144   0.930   2.935   9.470 -1.2657 -2.6806  1.7170
  184SLPC  C21121145   0.803   3.059   9.606  0.1071 -0.1733 -0.2309
  184SLPC  H11R21146   0.790   3.163   9.569 -0.1980 -0.3890 -0.7430
  184SLPC  H11S21147   0.801   3.065   9.717 -1.0442  0.2046 -0.2524
  184SLPC  C21221148   0.678   3.001   9.542 -0.5324 -0.0592 -0.2921
  184SLPC  H12R21149   0.644   3.049   9.450 -2.5376 -1.2846 -0.2611
  184SLPC  C21321150   0.598   2.899   9.588 -0.1827 -0.6269  0.1183
  184SLPC  H13R21151   0.505   2.875   9.534 -0.1854 -0.9740  0.2739
  184SLPC  C21421152   0.625   2.822   9.714 -0.2597 -0.1680  1.0573
  184SLPC  H14R21153   0.550   2.836   9.795 -0.8674  1.5905  0.2411
  184SLPC  H14S21154   0.726   2.856   9.746  0.2269 -1.8192  1.3797
  184SLPC  C21521155   0.637   2.666   9.691 -0.2947  0.3530 -0.2996
  184SLPC  H15R21156   0.707   2.644   9.607 -1.2341 -0.9515 -0.7712
  184SLPC  H15S21157   0.540   2.626   9.656 -1.2032  1.5671  0.7455
  184SLPC  C21621158   0.678   2.586   9.817 -0.1896 -0.4975  0.4862
  184SLPC  H16R21159   0.612   2.626   9.898 -0.5949  0.3092 -0.2226
  184SLPC  H16S21160   0.782   2.609   9.850  0.3775 -2.6781  0.3633
  184SLPC  C21721161   0.658   2.440   9.805  0.3433 -0.4536  0.4538
  184SLPC  H17R21162   0.675   2.411   9.699 -3.0204  0.9433 -0.6376
  184SLPC  H17S21163   0.554   2.417   9.838  0.5713 -0.0874  1.4697
  184SLPC  C21821164   0.751   2.364   9.897 -0.0407  0.3924  0.8791
  184SLPC  H18R21165   0.719   2.377  10.003  0.3074 -1.0625  1.1842
  184SLPC  H18S21166   0.853   2.405   9.891 -0.1486  0.6875  1.0337
  184SLPC  H18T21167   0.747   2.256   9.872 -0.2458  0.2732  1.4093
  184SLPC   C3321168   0.481   3.309   9.803 -0.4276  0.1194 -0.7674
  184SLPC   H3X21169   0.424   3.214   9.790  0.5568 -0.5398 -0.3905
  184SLPC   H3Y21170   0.587   3.280   9.817 -1.0396 -2.1562 -0.4293
  184SLPC   C3421171   0.466   3.391   9.675 -0.3830  0.3336  0.4404
  184SLPC   H4X21172   0.527   3.484   9.686  1.0106 -0.6066  0.9022
  184SLPC   H4Y21173   0.360   3.421   9.659 -1.4019 -2.9622  0.2586
  184SLPC   C3521174   0.522   3.329   9.547  0.1506  0.0247  0.1743
  184SLPC   H5X21175   0.502   3.220   9.550 -1.0998  0.2452  0.5107
  184SLPC   H5Y21176   0.633   3.342   9.548  0.0544  1.3698 -1.4182
  184SLPC   C3621177   0.457   3.389   9.420  0.0341  0.2893 -0.1037
  184SLPC   H6X21178   0.472   3.498   9.436 -0.3052  0.1594  1.2050
  184SLPC   H6Y21179   0.346   3.377   9.418 -0.0039  0.6348 -2.1938
  184SLPC   C3721180   0.518   3.326   9.293  0.3664  0.3151 -0.6658
  184SLPC   H7X21181   0.498   3.216   9.297 -0.8084  0.5403  0.2983
  184SLPC   H7Y21182   0.627   3.340   9.304  0.4737 -0.4043 -0.7740
  184SLPC   C3821183   0.458   3.384   9.167  0.5349  0.0478  0.4243
  184SLPC   H8X21184   0.353   3.353   9.152  1.1836 -2.1270  0.0906
  184SLPC   H8Y21185   0.509   3.351   9.074 -1.6859  1.4365 -1.3968
  184SLPC   C3921186   0.469   3.543   9.158  0.4073  0.3502  0.1152
  184SLPC   H9X21187   0.411   3.585   9.243  0.2245  0.9285 -0.2923
  184SLPC   H9Y21188   0.425   3.572   9.060  0.7630 -0.2130 -0.2206
  184SLPC  C31021189   0.608   3.600   9.179 -0.7549 -0.2354  0.4347
  184SLPC  H10X21190   0.662   3.547   9.098  1.5388 -0.7701  2.2097
  184SLPC  H10Y21191   0.661   3.578   9.274  1.3586 -0.2930 -0.6947
  184SLPC  C31121192   0.605   3.746   9.145  0.4679  0.3920 -0.3777
  184SLPC  H11X21193   0.553   3.768   9.049 -1.4636  0.8098  0.6943
  184SLPC  H11Y21194   0.710   3.781   9.138  0.8108 -0.2601  1.1146
  184SLPC  C31221195   0.530   3.834   9.253 -0.2407  0.3045  1.0875
  184SLPC  H12X21196   0.537   3.798   9.357 -1.0791  0.7507  1.3145
  184SLPC  H12Y21197   0.422   3.846   9.229  0.4067 -0.3064 -2.7511
  184SLPC  C31321198   0.579   3.978   9.245  0.0599 -0.3540 -0.4389
  184SLPC  H13X21199   0.540   4.010   9.146 -2.5419 -0.7201  0.3828
  184SLPC  H13Y21200   0.688   3.972   9.267 -0.0479 -0.0016  0.1952
  184SLPC  C31421201   0.514   4.070   9.348 -0.3808  0.0272  0.1717
  184SLPC  H14X21202   0.480   4.015   9.438 -2.6374  1.5202  0.3091
  184SLPC  H14Y21203   0.423   4.111   9.300 -0.6605 -2.2245 -1.3738
  184SLPC  C31521204   0.608   4.182   9.392 -0.9475 -0.3110  0.2934
  184SLPC  H15X21205   0.709   4.139   9.405 -1.4546 -1.5269  0.3159
  184SLPC  H15Y21206   0.585   4.214   9.495  0.3156  0.9138  0.2284
  184SLPC  C31621207   0.611   4.299   9.292  0.3322 -0.4467 -0.1242
  184SLPC  H16X21208   0.508   4.329   9.266 -0.0895 -1.6742  0.0886
  184SLPC  H16Y21209   0.662   4.262   9.200 -0.5462 -3.3173  0.4745
  184SLPC  C31721210   0.686   4.428   9.333 -0.7385 -0.6220 -0.3771
  184SLPC  H17X21211   0.792   4.394   9.331 -0.8877 -1.0839 -0.5762
  184SLPC  H17Y21212   0.658   4.458   9.437  0.2271 -1.6081  0.1941
  184SLPC  C31821213   0.655   4.543   9.235  0.4015 -0.8572  0.4049
  184SLPC  H18X21214   0.711   4.636   9.257  1.4051 -1.3136 -0.1713
  184SLPC  H18Y21215   0.546   4.569   9.232  0.6449  0.1467 -0.4806
  184SLPC  H18Z21216   0.689   4.516   9.133  1.3540  0.9770  0.1894
  185SLPC     N21217   5.173   0.996   5.964  0.5090 -0.0604 -0.4463
  185SLPC   C1321218   5.071   1.037   5.856  0.2527  0.7683  0.5178
  185SLPC  H13A21219   5.091   1.139   5.825  1.3613  0.6782  0.9177
  185SLPC  H13B21220   5.092   0.974   5.771  1.6802  1.9777 -0.0701
  185SLPC  H13C21221   4.968   1.022   5.886  0.5150  0.7536  1.4276
  185SLPC   C1421222   5.311   1.063   5.951 -0.1098 -0.1350  0.6431
  185SLPC  H14A21223   5.304   1.171   5.959  0.0809 -0.2088  1.9902
  185SLPC  H14B21224   5.385   1.028   6.021  1.8132  0.6605 -0.9111
  185SLPC  H14C21225   5.347   1.041   5.852 -0.4152  2.4913 -0.1252
  185SLPC   C1521226   5.191   0.851   5.964  0.0401  0.2441 -0.1995
  185SLPC  H15A21227   5.238   0.820   5.872 -1.2851 -0.0789 -0.7829
  185SLPC  H15B21228   5.249   0.834   6.054  0.7497  1.0962 -0.4785
  185SLPC  H15C21229   5.099   0.795   5.972 -0.6543  1.4849  1.0529
  185SLPC   C1221230   5.108   1.030   6.101 -0.1450 -0.1412  0.3531
  185SLPC  H12A21231   5.020   0.967   6.108 -1.7891  1.8612 -1.0722
  185SLPC  H12B21232   5.068   1.130   6.105 -1.5047 -0.5967 -0.9523
  185SLPC   C1121233   5.193   1.018   6.228 -0.5077 -0.5199  0.4755
  185SLPC  H11A21234   5.290   1.069   6.211  0.0074 -1.7807 -0.5708
  185SLPC  H11B21235   5.228   0.915   6.251  1.3576  0.5469  2.7711
  185SLPC     P21236   5.018   1.000   6.408  0.7730 -0.1945 -0.1150
  185SLPC   O1321237   4.914   1.094   6.452  0.3842 -0.7369  0.0756
  185SLPC   O1421238   4.967   0.893   6.315  0.0405 -0.6078  0.2729
  185SLPC   O1221239   5.113   1.086   6.326 -0.0581  0.2105 -0.2172
  185SLPC   O1121240   5.096   0.937   6.537 -0.1925 -0.2641 -0.4863
  185SLPC    C121241   5.202   1.008   6.597 -0.6605  0.3819 -0.3398
  185SLPC    HA21242   5.296   0.982   6.544 -0.1907  0.7532  0.3002
  185SLPC    HB21243   5.178   1.116   6.591  0.4218  0.7916  1.6489
  185SLPC    C221244   5.229   0.971   6.751  0.4614 -0.6379 -0.0366
  185SLPC    HS21245   5.210   0.863   6.767 -3.9800  0.1461  1.0818
  185SLPC   O2121246   5.134   1.053   6.825 -0.0959 -0.0608 -0.0507
  185SLPC   C2121247   5.039   0.990   6.891  1.4694  0.1365  0.6886
  185SLPC   O2221248   5.016   0.872   6.882 -0.5701  0.3430  0.0593
  185SLPC   C2221249   4.945   1.094   6.945 -0.6586 -0.8336  0.6484
  185SLPC   H2R21250   4.980   1.199   6.935 -1.1662 -0.6136  1.1111
  185SLPC   H2S21251   4.850   1.088   6.888 -0.2120  1.5979 -0.4744
  185SLPC    C321252   5.369   1.013   6.798 -0.1729 -0.2974 -0.1186
  185SLPC    HX21253   5.384   1.118   6.764  2.4449  0.2881  2.4142
  185SLPC    HY21254   5.435   0.941   6.745 -0.1249 -0.4012  0.0808
  185SLPC   O3121255   5.393   1.024   6.945  0.5683  0.0771 -0.2204
  185SLPC   C3121256   5.407   0.911   6.996  0.2983 -0.1083 -0.0864
  185SLPC   O3221257   5.395   0.798   6.941 -0.5421 -0.3501 -0.4134
  185SLPC   C3221258   5.411   0.941   7.145 -0.1325 -0.3041  0.6501
  185SLPC   H2X21259   5.313   0.982   7.178 -0.2387 -1.9583  2.5517
  185SLPC   H2Y21260   5.486   1.022   7.158  0.7908 -1.4236  2.7854
  185SLPC   C2321261   4.901   1.073   7.089 -0.6646 -0.1063  0.0684
  185SLPC   H3R21262   4.881   0.966   7.110  3.3760 -0.8619  0.8397
  185SLPC   H3S21263   4.809   1.132   7.109 -0.2920  0.3353  0.4963
  185SLPC   C2421264   5.011   1.092   7.200  0.1679 -0.7429 -0.5072
  185SLPC   H4R21265   5.049   1.196   7.200 -0.3519 -0.5181  1.2314
  185SLPC   H4S21266   5.084   1.014   7.168  0.1627  0.5610 -4.0413
  185SLPC   C2521267   4.957   1.061   7.340 -0.2053 -0.6666 -0.0427
  185SLPC   H5R21268   4.945   0.951   7.353  0.5021 -0.8335 -0.7501
  185SLPC   H5S21269   4.851   1.096   7.341 -0.2522 -0.6872 -1.5049
  185SLPC   C2621270   5.045   1.129   7.449 -0.2289 -0.1390  0.0428
  185SLPC   H6R21271   5.014   1.096   7.550  1.0547  0.3759  0.6372
  185SLPC   H6S21272   5.028   1.239   7.448 -3.3499 -0.5426 -0.8287
  185SLPC   C2721273   5.197   1.107   7.437  0.5537 -0.2024 -0.2612
  185SLPC   H7R21274   5.239   1.175   7.360  1.5621  0.1590  0.5874
  185SLPC   H7S21275   5.215   1.007   7.392  1.1476 -0.1312 -0.1868
  185SLPC   C2821276   5.287   1.110   7.563 -0.4147 -0.5789 -0.3748
  185SLPC   H8R21277   5.384   1.067   7.530 -0.3642 -2.4724  1.9607
  185SLPC   H8S21278   5.245   1.042   7.640  0.2290 -0.4949  0.0548
  185SLPC   C2921279   5.306   1.251   7.606  0.0281 -0.3482  0.5460
  185SLPC   H9R21280   5.311   1.321   7.521 -0.7230  0.3485  1.0523
  185SLPC  C21021281   5.306   1.304   7.731 -0.4147  0.3695 -0.2091
  185SLPC  H10R21282   5.320   1.411   7.749  0.9964  0.1309  0.2020
  185SLPC  C21121283   5.278   1.233   7.859  0.4563  0.5410  0.6831
  185SLPC  H11R21284   5.335   1.273   7.945  4.0230 -2.4756  0.0227
  185SLPC  H11S21285   5.327   1.133   7.855  1.1187  0.8805  0.1455
  185SLPC  C21221286   5.134   1.214   7.898 -0.3222  0.0008 -0.0518
  185SLPC  H12R21287   5.074   1.183   7.812 -0.7838  0.6559  0.0285
  185SLPC  C21321288   5.069   1.229   8.021  0.7471 -0.1894  0.8337
  185SLPC  H13R21289   4.960   1.216   8.025  0.4982  1.1351 -0.4693
  185SLPC  C21421290   5.134   1.268   8.152  0.3334 -0.1447 -0.1309
  185SLPC  H14R21291   5.058   1.298   8.227  1.0001  0.5617  0.2795
  185SLPC  H14S21292   5.201   1.356   8.151 -0.6928  0.8414  3.3481
  185SLPC  C21521293   5.206   1.148   8.212 -1.1405 -0.3868 -0.1311
  185SLPC  H15R21294   5.297   1.130   8.151 -1.0565  2.7253 -1.1213
  185SLPC  H15S21295   5.142   1.057   8.211 -1.5715 -0.0856 -0.5667
  185SLPC  C21621296   5.251   1.184   8.356  0.1858 -0.3409 -0.7139
  185SLPC  H16R21297   5.278   1.092   8.413 -2.1731 -0.1017  0.9173
  185SLPC  H16S21298   5.156   1.211   8.408  0.4328  0.5804 -0.7286
  185SLPC  C21721299   5.362   1.292   8.379  0.3378 -0.2041 -0.0192
  185SLPC  H17R21300   5.342   1.379   8.313  0.8212 -0.7756 -0.9382
  185SLPC  H17S21301   5.462   1.251   8.354  0.3379 -0.4489  0.3675
  185SLPC  C21821302   5.362   1.311   8.526 -0.2650  0.7228  0.0901
  185SLPC  H18R21303   5.439   1.387   8.551 -0.4869  1.1632 -0.5400
  185SLPC  H18S21304   5.380   1.216   8.581  0.3498  1.6574  1.5736
  185SLPC  H18T21305   5.266   1.350   8.565 -0.2015 -0.2288  1.2669
  185SLPC   C3321306   5.453   0.824   7.234 -0.3259 -0.6069  0.2588
  185SLPC   H3X21307   5.449   0.863   7.338 -1.4004 -1.2375  0.4691
  185SLPC   H3Y21308   5.558   0.798   7.210 -0.4022  1.4313 -2.8474
  185SLPC   C3421309   5.362   0.701   7.239  0.3791  0.3944 -0.4553
  185SLPC   H4X21310   5.421   0.613   7.275 -0.1650  0.1794 -0.0922
  185SLPC   H4Y21311   5.335   0.670   7.135  0.2172  1.9434 -0.8933
  185SLPC   C3521312   5.236   0.717   7.328 -0.5566 -0.3092  0.0312
  185SLPC   H5X21313   5.188   0.620   7.305 -1.7518 -0.2017  1.8488
  185SLPC   H5Y21314   5.174   0.802   7.291 -0.6286 -0.1956  0.4061
  185SLPC   C3621315   5.273   0.716   7.476  0.4757 -0.8231  0.0304
  185SLPC   H6X21316   5.355   0.787   7.501 -1.4020  1.2550  0.5580
  185SLPC   H6Y21317   5.320   0.622   7.513  0.8415 -0.7717 -0.2977
  185SLPC   C3721318   5.156   0.750   7.573 -0.2164  0.2227  0.0993
  185SLPC   H7X21319   5.071   0.682   7.552  0.5045 -0.4113 -0.8574
  185SLPC   H7Y21320   5.116   0.851   7.550  0.3116  0.2023 -0.9772
  185SLPC   C3821321   5.196   0.732   7.725 -0.4089 -0.3103  0.2307
  185SLPC   H8X21322   5.300   0.767   7.745 -0.3035 -0.3254 -0.2767
  185SLPC   H8Y21323   5.189   0.626   7.758 -1.2681 -0.7201 -1.1923
  185SLPC   C3921324   5.116   0.816   7.823 -0.1786  0.1178 -0.5973
  185SLPC   H9X21325   5.012   0.777   7.827 -0.0681 -0.1551 -0.3496
  185SLPC   H9Y21326   5.115   0.924   7.798 -2.9553  0.1156 -0.8981
  185SLPC  C31021327   5.165   0.789   7.969  0.0029  0.0789  0.1580
  185SLPC  H10X21328   5.127   0.864   8.042 -1.1613  0.4891 -0.8355
  185SLPC  H10Y21329   5.276   0.786   7.968  0.0440  0.7807 -1.6404
  185SLPC  C31121330   5.125   0.653   8.030 -0.1013  0.7154  0.0286
  185SLPC  H11X21331   5.155   0.576   7.956  0.4381  0.3114  0.6641
  185SLPC  H11Y21332   5.014   0.662   8.040 -0.0560  0.1948  1.1981
  185SLPC  C31221333   5.157   0.630   8.181  0.2755 -0.3993  0.3391
  185SLPC  H12X21334   5.110   0.706   8.247  0.7377  2.4627 -2.4260
  185SLPC  H12Y21335   5.266   0.642   8.198  0.2418 -2.1423  2.2326
  185SLPC  C31321336   5.119   0.481   8.218  0.5257 -0.4066  0.8075
  185SLPC  H13X21337   5.181   0.411   8.158 -1.1893 -1.4482  0.1649
  185SLPC  H13Y21338   5.009   0.470   8.202  0.1391  1.1742  2.0767
  185SLPC  C31421339   5.157   0.452   8.366  0.0709 -0.3219  0.0365
  185SLPC  H14X21340   5.267   0.441   8.374 -0.0301 -1.3602  0.2306
  185SLPC  H14Y21341   5.105   0.357   8.393  0.8598 -0.3553  1.5809
  185SLPC  C31521342   5.119   0.562   8.471  0.0246  0.4924 -0.0523
  185SLPC  H15X21343   5.010   0.579   8.461 -0.1666  0.3308  1.5477
  185SLPC  H15Y21344   5.168   0.658   8.444  0.8047 -0.2975 -1.6106
  185SLPC  C31621345   5.141   0.517   8.622  0.2492  0.7886  0.0575
  185SLPC  H16X21346   5.150   0.607   8.686  1.6112  0.1410  0.8192
  185SLPC  H16Y21347   5.236   0.460   8.630  1.1987  2.2065 -0.7710
  185SLPC  C31721348   5.029   0.433   8.671  0.7930 -0.6997 -0.1776
  185SLPC  H17X21349   5.035   0.327   8.638  0.2783 -0.3432 -1.4898
  185SLPC  H17Y21350   4.925   0.461   8.645  0.8984  0.9743  1.0059
  185SLPC  C31821351   5.026   0.428   8.827 -0.8145 -0.4900 -0.4167
  185SLPC  H18X21352   4.958   0.348   8.862 -0.3420 -0.9310 -0.5086
  185SLPC  H18Y21353   5.004   0.524   8.878 -0.8346 -2.0950  2.8087
  185SLPC  H18Z21354   5.127   0.401   8.865 -0.1959  1.2031 -0.7596
  186SLPC     N21355   1.043   3.855   5.869  0.6166 -0.4574 -0.4334
  186SLPC   C1321356   1.093   3.767   5.757 -0.0356 -0.0888  0.2652
  186SLPC  H13A21357   1.094   3.664   5.792  0.8913 -0.0009  0.5185
  186SLPC  H13B21358   1.039   3.776   5.664 -0.6291  0.7718  0.6778
  186SLPC  H13C21359   1.199   3.776   5.738 -0.1935 -1.6597 -1.7216
  186SLPC   C1421360   1.081   4.002   5.844  0.1365  0.1728 -0.2336
  186SLPC  H14A21361   1.188   4.014   5.836  0.3147 -0.5746  0.7603
  186SLPC  H14B21362   1.054   4.028   5.743  1.0909  0.6679 -0.3686
  186SLPC  H14C21363   1.044   4.069   5.921 -1.5584 -0.0109 -0.8542
  186SLPC   C1521364   1.114   3.826   6.002  0.3368 -0.2037 -0.1710
  186SLPC  H15A21365   1.091   3.728   6.041 -2.5918 -0.5181 -2.3996
  186SLPC  H15B21366   1.222   3.837   5.997  0.8094 -3.6524 -0.1071
  186SLPC  H15C21367   1.071   3.897   6.072 -0.7407 -1.4678  0.4937
  186SLPC   C1221368   0.894   3.851   5.881 -0.2183 -0.7334  0.3662
  186SLPC  H12A21369   0.851   3.895   5.793  1.0054  2.5937  1.2658
  186SLPC  H12B21370   0.866   3.921   5.958 -0.3186 -0.9010  0.4824
  186SLPC   C1121371   0.824   3.710   5.909  0.1197 -0.4817  0.5742
  186SLPC  H11A21372   0.856   3.635   5.834 -0.3280  0.2875 -0.4129
  186SLPC  H11B21373   0.718   3.729   5.879  1.0154  4.0937 -0.4799
  186SLPC     P21374   0.777   3.705   6.173 -0.3930 -0.2426 -0.2055
  186SLPC   O1321375   0.818   3.604   6.272  0.2161 -0.2645 -0.4557
  186SLPC   O1421376   0.811   3.843   6.205  0.3701 -0.5361  0.3933
  186SLPC   O1221377   0.850   3.657   6.037 -0.3197  0.0267  0.0532
  186SLPC   O1121378   0.633   3.672   6.128 -0.4169 -0.1122  0.1325
  186SLPC    C121379   0.525   3.761   6.168  0.0141 -0.1835 -0.9480
  186SLPC    HA21380   0.561   3.866   6.167  0.2110  0.0082  3.9532
  186SLPC    HB21381   0.429   3.751   6.113 -1.5550  0.4978  1.4947
  186SLPC    C221382   0.470   3.724   6.309 -0.0117  0.1649 -0.2458
  186SLPC    HS21383   0.375   3.779   6.325 -0.2401 -0.2497 -0.1613
  186SLPC   O2121384   0.577   3.750   6.418 -0.2072  0.1047  0.2476
  186SLPC   C2121385   0.533   3.822   6.528 -0.0048  0.0068  0.8770
  186SLPC   O2221386   0.427   3.879   6.529 -0.2919 -0.6395  0.4818
  186SLPC   C2221387   0.636   3.833   6.636  1.1224  0.2122 -0.5056
  186SLPC   H2R21388   0.623   3.748   6.707 -0.1166  1.2977  0.6319
  186SLPC   H2S21389   0.734   3.831   6.584  1.4895 -0.9971  0.1960
  186SLPC    C321390   0.414   3.586   6.319  0.2365  0.2149  0.2625
  186SLPC    HX21391   0.502   3.523   6.295  0.0958 -0.3534  1.2033
  186SLPC    HY21392   0.346   3.579   6.231  0.7141  2.0094 -0.3137
  186SLPC   O3121393   0.357   3.567   6.450 -0.4055 -0.8887 -0.4749
  186SLPC   C3121394   0.413   3.478   6.526  0.1223  0.1906  0.2512
  186SLPC   O3221395   0.520   3.419   6.491  0.3930  0.1895 -0.2474
  186SLPC   C3221396   0.344   3.462   6.664  0.5892 -0.0365  0.5600
  186SLPC   H2X21397   0.240   3.428   6.646  0.4062 -0.7300  2.7042
  186SLPC   H2Y21398   0.346   3.562   6.711  1.9174  0.4905 -0.5309
  186SLPC   C2321399   0.632   3.963   6.722  0.1732 -0.5209 -0.9321
  186SLPC   H3R21400   0.534   3.973   6.774  0.6145 -0.1314 -0.1785
  186SLPC   H3S21401   0.635   4.052   6.655 -0.5090  0.4960  0.3454
  186SLPC   C2421402   0.742   3.979   6.825 -0.2701 -0.1204 -0.5288
  186SLPC   H4R21403   0.843   3.975   6.780 -0.2470 -0.3083 -0.4634
  186SLPC   H4S21404   0.739   3.899   6.902 -1.2273 -0.6839 -1.1332
  186SLPC   C2521405   0.723   4.109   6.901  0.6055 -0.4930 -0.1921
  186SLPC   H5R21406   0.713   4.194   6.830  0.6883  1.0105  1.5502
  186SLPC   H5S21407   0.812   4.123   6.966 -0.0174  0.5831  0.4397
  186SLPC   C2621408   0.601   4.106   6.994 -0.0694 -0.1614 -0.5207
  186SLPC   H6R21409   0.509   4.066   6.946 -0.7671  0.3566  0.3481
  186SLPC   H6S21410   0.587   4.211   7.027 -3.4268 -0.2899 -1.1731
  186SLPC   C2721411   0.625   4.008   7.110  0.2942  1.2937  0.1088
  186SLPC   H7R21412   0.725   4.029   7.155  1.7151  0.9202 -2.6362
  186SLPC   H7S21413   0.629   3.907   7.065  1.1594  2.1100 -1.7930
  186SLPC   C2821414   0.506   4.002   7.198  0.2793 -0.2916 -0.0123
  186SLPC   H8R21415   0.514   3.915   7.267 -1.3254 -1.7063 -1.5468
  186SLPC   H8S21416   0.414   3.990   7.137  0.2029 -0.4329  0.1295
  186SLPC   C2921417   0.497   4.139   7.266  0.2442 -0.7208  0.2603
  186SLPC   H9R21418   0.496   4.227   7.200  0.2708 -1.6907 -1.0663
  186SLPC  C21021419   0.504   4.174   7.400 -0.5206 -0.0067 -0.6559
  186SLPC  H10R21420   0.485   4.278   7.433  2.0435  0.5690 -0.8133
  186SLPC  C21121421   0.515   4.081   7.524  0.1319 -0.7852  0.3351
  186SLPC  H11R21422   0.550   3.982   7.488  1.1776 -0.6413  0.9243
  186SLPC  H11S21423   0.408   4.080   7.556 -0.5077  2.7984 -1.1135
  186SLPC  C21221424   0.614   4.108   7.633 -0.3728  0.2599  0.0665
  186SLPC  H12R21425   0.703   4.163   7.601  0.1955 -0.9170 -0.4411
  186SLPC  C21321426   0.595   4.080   7.766 -0.3382 -0.5973  0.4224
  186SLPC  H13R21427   0.679   4.083   7.837 -1.0174  3.6523  1.3140
  186SLPC  C21421428   0.478   4.003   7.830  0.4250  0.2734  0.2744
  186SLPC  H14R21429   0.409   3.963   7.752  2.1988  0.2387 -1.3611
  186SLPC  H14S21430   0.427   4.073   7.899  1.4998  0.7970  0.5608
  186SLPC  C21521431   0.504   3.882   7.924  1.1858  0.8089  0.0343
  186SLPC  H15R21432   0.580   3.912   8.000  0.5771 -0.2510  1.1097
  186SLPC  H15S21433   0.540   3.806   7.852 -1.0394 -0.4331  0.1216
  186SLPC  C21621434   0.379   3.843   8.002  0.4815 -1.0321 -0.7950
  186SLPC  H16R21435   0.295   3.853   7.929  1.3221 -0.2113 -1.6749
  186SLPC  H16S21436   0.364   3.910   8.089  1.3830 -2.3316  0.4137
  186SLPC  C21721437   0.386   3.701   8.060 -0.3790  0.0914  0.4245
  186SLPC  H17R21438   0.487   3.692   8.105  0.0227  0.8623 -0.3092
  186SLPC  H17S21439   0.378   3.628   7.977 -1.8478 -0.5162  1.0509
  186SLPC  C21821440   0.274   3.670   8.167 -0.7387 -0.7217  0.7306
  186SLPC  H18R21441   0.290   3.567   8.208  2.3158 -0.2167  1.0318
  186SLPC  H18S21442   0.181   3.692   8.111 -0.3115 -1.4064 -0.2804
  186SLPC  H18T21443   0.282   3.734   8.257 -1.4984  0.5897 -0.1089
  186SLPC   C3321444   0.401   3.367   6.763  0.2674  0.5362 -0.5161
  186SLPC   H3X21445   0.499   3.410   6.792 -0.1700  0.4607  1.1715
  186SLPC   H3Y21446   0.427   3.270   6.714 -0.1520  0.4064 -0.4887
  186SLPC   C3421447   0.303   3.339   6.884 -0.2622  0.2845  0.0732
  186SLPC   H4X21448   0.226   3.262   6.861 -1.8505  0.6391  3.5467
  186SLPC   H4Y21449   0.243   3.429   6.908 -0.4987  0.4755 -1.1633
  186SLPC   C3521450   0.386   3.297   7.003 -0.4364  0.0069  0.2693
  186SLPC   H5X21451   0.428   3.385   7.057  0.2643 -1.1798  1.7328
  186SLPC   H5Y21452   0.464   3.221   6.982  0.3884  0.9202 -0.0651
  186SLPC   C3621453   0.293   3.218   7.103 -0.1703 -0.1652 -0.0276
  186SLPC   H6X21454   0.264   3.123   7.052  1.1919 -0.5753 -0.0934
  186SLPC   H6Y21455   0.203   3.274   7.134 -1.8839 -2.9141  0.2959
  186SLPC   C3721456   0.371   3.182   7.227 -0.2409 -0.4403 -0.4738
  186SLPC   H7X21457   0.400   3.279   7.275 -1.7289  0.2717 -0.9557
  186SLPC   H7Y21458   0.459   3.117   7.208 -1.0012 -2.1015  1.3414
  186SLPC   C3821459   0.275   3.126   7.340  0.5159  0.0932  0.5254
  186SLPC   H8X21460   0.241   3.030   7.296 -0.3795  0.9267 -0.6719
  186SLPC   H8Y21461   0.187   3.193   7.350  0.9666  0.7010  0.4535
  186SLPC   C3921462   0.357   3.123   7.474  0.1108 -0.1778  0.8284
  186SLPC   H9X21463   0.381   3.229   7.499  2.3525 -0.1674 -1.0094
  186SLPC   H9Y21464   0.459   3.079   7.470  0.3230  0.3892 -0.5097
  186SLPC  C31021465   0.279   3.058   7.587 -0.1783  0.3467 -0.1402
  186SLPC  H10X21466   0.237   2.961   7.553  1.1155 -0.0324 -0.7185
  186SLPC  H10Y21467   0.203   3.132   7.621  1.1193 -0.0852  4.3544
  186SLPC  C31121468   0.373   3.025   7.706 -0.5225 -0.3243 -0.2860
  186SLPC  H11X21469   0.409   3.114   7.762 -1.1998 -0.2698  0.0746
  186SLPC  H11Y21470   0.459   2.971   7.660 -1.1399 -0.8475 -0.8387
  186SLPC  C31221471   0.312   2.930   7.817 -0.3710 -0.3394  0.0437
  186SLPC  H12X21472   0.276   2.840   7.764  2.7020 -0.0172 -2.9600
  186SLPC  H12Y21473   0.220   2.978   7.857 -0.9701 -1.7980  0.4793
  186SLPC  C31321474   0.397   2.901   7.937  0.4051  0.9282 -0.0992
  186SLPC  H13X21475   0.412   2.993   7.997  1.5089  0.5641  0.2097
  186SLPC  H13Y21476   0.494   2.854   7.910 -0.7995 -0.5954 -2.0484
  186SLPC  C31421477   0.330   2.801   8.039 -0.0258  0.4290  0.7577
  186SLPC  H14X21478   0.336   2.693   8.015 -0.3961  0.3969  0.8014
  186SLPC  H14Y21479   0.222   2.823   8.055 -0.2364  0.3240 -0.4223
  186SLPC  C31521480   0.393   2.816   8.181  0.1293  0.1613 -0.1744
  186SLPC  H15X21481   0.367   2.918   8.214 -1.2457 -0.5085  0.9160
  186SLPC  H15Y21482   0.502   2.798   8.192 -0.0955 -0.2253  1.6841
  186SLPC  C31621483   0.331   2.729   8.289  0.1368  0.1039  0.7650
  186SLPC  H16X21484   0.362   2.625   8.264  1.3833  0.7210 -0.3378
  186SLPC  H16Y21485   0.220   2.724   8.280  0.0884 -0.3398  1.5448
  186SLPC  C31721486   0.375   2.769   8.426 -0.6411  0.1752  0.6472
  186SLPC  H17X21487   0.354   2.876   8.443  0.1400  0.6255 -0.9863
  186SLPC  H17Y21488   0.485   2.753   8.430 -0.7218 -2.5450 -2.5578
  186SLPC  C31821489   0.314   2.680   8.537 -0.1219  0.1599  0.2695
  186SLPC  H18X21490   0.347   2.711   8.639 -2.1608  2.0566  0.4389
  186SLPC  H18Y21491   0.355   2.577   8.527 -1.9272 -0.9294  2.7837
  186SLPC  H18Z21492   0.203   2.685   8.531 -0.1810 -1.9210 -1.5937
  187SLPC     N21493   5.727   5.241   6.307  0.4413  0.2315  0.1829
  187SLPC   C1321494   5.609   5.281   6.222 -0.0034 -0.3084 -0.0410
  187SLPC  H13A21495   5.588   5.214   6.140  0.9467  0.1137 -0.6509
  187SLPC  H13B21496   5.526   5.303   6.287  0.4300  2.2139 -0.2299
  187SLPC  H13C21497   5.634   5.371   6.168 -0.2841  0.3317  0.8791
  187SLPC   C1421498   5.744   5.353   6.403 -0.0657 -0.3724  0.6375
  187SLPC  H14A21499   5.667   5.355   6.479  1.5552 -0.9065  2.3956
  187SLPC  H14B21500   5.836   5.339   6.459  0.2899 -1.3349 -0.1633
  187SLPC  H14C21501   5.739   5.442   6.342  2.3142 -2.2409 -2.5921
  187SLPC   C1521502   5.847   5.227   6.219 -0.1386  0.2445  0.3709
  187SLPC  H15A21503   5.823   5.167   6.133 -1.7897  0.9636  0.2801
  187SLPC  H15B21504   5.868   5.326   6.181 -2.3983  0.7207  0.2290
  187SLPC  H15C21505   5.937   5.192   6.267  1.8115  0.6171 -2.7173
  187SLPC   C1221506   5.706   5.106   6.376  0.5624  0.0447  0.0443
  187SLPC  H12A21507   5.680   5.034   6.299 -0.0040  0.8262 -0.5223
  187SLPC  H12B21508   5.620   5.113   6.441 -2.1127 -1.6062 -3.0157
  187SLPC   C1121509   5.831   5.059   6.454  0.2349  0.7363 -0.3557
  187SLPC  H11A21510   5.816   4.981   6.533 -1.1664  1.2104 -0.1291
  187SLPC  H11B21511   5.875   5.141   6.515  1.4079 -0.3050  0.2543
  187SLPC     P21512   5.917   4.864   6.300 -0.5733  0.1737  0.0776
  187SLPC   O1321513   5.788   4.845   6.233 -0.7745 -0.0781  0.4652
  187SLPC   O1421514   6.041   4.867   6.213  0.9503  0.2214 -0.2785
  187SLPC   O1221515   5.929   5.005   6.364 -0.2851 -0.2687  0.2561
  187SLPC   O1121516   5.930   4.756   6.423 -0.0151 -0.2441 -0.1483
  187SLPC    C121517   6.062   4.697   6.441  0.4330 -0.2925  0.2429
  187SLPC    HA21518   6.054   4.588   6.465  2.0052 -0.7000 -0.9414
  187SLPC    HB21519   6.119   4.702   6.346 -2.8404 -0.4865 -1.8872
  187SLPC    C221520   6.148   4.761   6.551  0.1510 -0.4535 -0.2113
  187SLPC    HS21521   6.219   4.680   6.579 -2.3101 -1.5927  3.4050
  187SLPC   O2121522   6.086   4.809   6.664 -0.3670 -0.2565 -0.4629
  187SLPC   C2121523   6.001   4.744   6.731  0.1010  0.5749 -0.2644
  187SLPC   O2221524   5.972   4.627   6.715 -0.4847  0.1214 -0.4981
  187SLPC   C2221525   5.923   4.843   6.817 -0.2061  0.7821 -0.6455
  187SLPC   H2R21526   5.913   4.936   6.757  0.5830  1.8107  0.7626
  187SLPC   H2S21527   5.826   4.791   6.826  0.2529 -0.4850 -2.5761
  187SLPC    C321528   6.246   4.881   6.498 -0.6039  0.1674 -0.2793
  187SLPC    HX21529   6.197   4.976   6.529 -0.2878  0.1641  0.2393
  187SLPC    HY21530   6.244   4.882   6.387 -0.7207 -2.1058 -0.3523
  187SLPC   O3121531   6.379   4.855   6.555 -0.2783  0.1782  0.0902
  187SLPC   C3121532   6.430   4.952   6.627  0.4669 -0.2647  0.0229
  187SLPC   O3221533   6.380   5.059   6.662  0.6137 -0.1546  0.0158
  187SLPC   C3221534   6.570   4.908   6.663  0.3958  0.4418  0.6149
  187SLPC   H2X21535   6.632   4.928   6.572  0.0854  1.2493  0.5751
  187SLPC   H2Y21536   6.572   4.803   6.699  1.6983  0.5931  1.0509
  187SLPC   C2321537   5.970   4.860   6.968 -0.2833  0.6313  0.8623
  187SLPC   H3R21538   6.009   4.762   7.002 -0.5641  0.0153 -0.4941
  187SLPC   H3S21539   5.882   4.876   7.034  0.6633 -1.4897  2.7655
  187SLPC   C2421540   6.070   4.976   6.989  1.3931  0.1263  0.3735
  187SLPC   H4R21541   6.025   5.069   6.948 -1.9375 -0.8193  1.5413
  187SLPC   H4S21542   6.162   4.950   6.933 -0.8129 -0.5528 -3.2263
  187SLPC   C2521543   6.098   5.005   7.134 -0.1074 -0.0476 -0.0360
  187SLPC   H5R21544   6.118   4.917   7.198 -0.6259  2.0677  3.2919
  187SLPC   H5S21545   6.016   5.071   7.170 -0.5620  2.6271 -5.0301
  187SLPC   C2621546   6.228   5.089   7.155  0.4088  0.5927  0.2020
  187SLPC   H6R21547   6.228   5.176   7.085 -1.0920 -1.5878 -2.7817
  187SLPC   H6S21548   6.303   5.009   7.138 -0.1830  0.1478 -0.4089
  187SLPC   C2721549   6.239   5.148   7.297 -0.3112 -0.3131 -0.2778
  187SLPC   H7R21550   6.171   5.236   7.301 -0.2442 -0.2916  0.7354
  187SLPC   H7S21551   6.343   5.187   7.299 -0.8668  1.2339 -0.1627
  187SLPC   C2821552   6.217   5.052   7.421  0.2529 -0.4056 -0.0199
  187SLPC   H8R21553   6.286   4.965   7.416 -0.8023 -1.2039 -1.3832
  187SLPC   H8S21554   6.119   5.005   7.400 -0.8964  1.8234  0.1321
  187SLPC   C2921555   6.198   5.119   7.557 -0.0359  0.4298 -0.0125
  187SLPC   H9R21556   6.121   5.198   7.563 -0.5624 -0.1603  1.5649
  187SLPC  C21021557   6.265   5.091   7.667  0.0791  0.7385 -0.2974
  187SLPC  H10R21558   6.240   5.144   7.760  1.3049 -0.4544  0.7406
  187SLPC  C21121559   6.371   4.990   7.687 -0.6758 -0.0560 -0.2567
  187SLPC  H11R21560   6.446   5.026   7.760 -0.4078  0.1435 -0.6291
  187SLPC  H11S21561   6.430   4.956   7.599  1.6242  1.2273  0.6915
  187SLPC  C21221562   6.311   4.865   7.746  0.0810 -1.2690  0.1448
  187SLPC  H12R21563   6.236   4.813   7.684 -1.0468  0.4297  0.0155
  187SLPC  C21321564   6.322   4.812   7.867  0.4276  0.3560 -0.4671
  187SLPC  H13R21565   6.261   4.724   7.894 -1.3995  1.8483  0.4983
  187SLPC  C21421566   6.391   4.871   7.988  0.3361  0.1380  0.4614
  187SLPC  H14R21567   6.389   4.982   7.994 -1.7769  0.1220  1.0635
  187SLPC  H14S21568   6.498   4.846   7.973  0.7553  1.7782  0.5060
  187SLPC  C21521569   6.353   4.816   8.128  0.0172 -0.8056  0.1903
  187SLPC  H15R21570   6.362   4.706   8.139 -2.0883 -0.9939  0.6532
  187SLPC  H15S21571   6.244   4.827   8.147  0.0766  1.9470 -0.6781
  187SLPC  C21621572   6.420   4.883   8.249  0.7681 -0.3255  0.3743
  187SLPC  H16R21573   6.380   4.852   8.348 -0.0291  1.8828  0.8077
  187SLPC  H16S21574   6.421   4.994   8.254  2.6172 -0.3483  1.6052
  187SLPC  C21721575   6.573   4.840   8.261 -0.4863 -0.2441 -0.1707
  187SLPC  H17R21576   6.615   4.855   8.160 -2.9499  1.1506 -1.0723
  187SLPC  H17S21577   6.578   4.730   8.277 -0.9522 -0.4732 -1.4862
  187SLPC  C21821578   6.675   4.909   8.363 -0.5654  0.0118  0.7186
  187SLPC  H18R21579   6.770   4.853   8.370  0.0836  1.2572  2.5163
  187SLPC  H18S21580   6.630   4.896   8.464  0.6736 -1.9526  1.0547
  187SLPC  H18T21581   6.693   5.013   8.327  0.0274 -0.6104 -0.8825
  187SLPC   C3321582   6.634   4.996   6.778 -0.4666  0.5069  0.2172
  187SLPC   H3X21583   6.595   5.100   6.765 -1.2351  0.0937 -0.9511
  187SLPC   H3Y21584   6.745   4.997   6.778 -0.4491 -0.7187  0.1572
  187SLPC   C3421585   6.589   4.939   6.913  0.8693  0.9018  0.0844
  187SLPC   H4X21586   6.593   4.829   6.925  1.3709  0.8677 -0.3145
  187SLPC   H4Y21587   6.484   4.969   6.933  0.7438 -0.3136  1.3539
  187SLPC   C3521588   6.675   5.001   7.026 -0.8184  0.1836  0.1157
  187SLPC   H5X21589   6.718   5.095   6.984  1.8194 -1.5172 -1.2283
  187SLPC   H5Y21590   6.767   4.946   7.055  0.3788  2.9527  2.0357
  187SLPC   C3621591   6.612   5.018   7.164  0.7634  0.8702 -0.1074
  187SLPC   H6X21592   6.585   4.915   7.198  0.5068  0.0129 -2.7065
  187SLPC   H6Y21593   6.534   5.096   7.172  0.1007  0.1586  0.5556
  187SLPC   C3721594   6.712   5.072   7.271 -0.0955 -0.6431 -1.2915
  187SLPC   H7X21595   6.784   4.989   7.288 -1.6918 -1.7818  0.1618
  187SLPC   H7Y21596   6.755   5.172   7.248  0.9839 -0.8431 -0.2654
  187SLPC   C3821597   6.642   5.087   7.409 -0.3309  0.5498  0.8665
  187SLPC   H8X21598   6.620   4.991   7.460  0.1202 -0.9859 -1.6368
  187SLPC   H8Y21599   6.550   5.148   7.404 -1.9811 -1.7008  2.0154
  187SLPC   C3921600   6.725   5.172   7.500 -0.1944 -0.3224 -0.1657
  187SLPC   H9X21601   6.743   5.267   7.445  0.4939 -0.1038  0.4220
  187SLPC   H9Y21602   6.819   5.118   7.521 -0.5085 -1.1180 -0.7561
  187SLPC  C31021603   6.647   5.197   7.632 -0.0680 -0.0059  0.7650
  187SLPC  H10X21604   6.656   5.107   7.697 -2.7860  0.3953  1.8111
  187SLPC  H10Y21605   6.537   5.210   7.628 -0.5251 -2.4134  2.7795
  187SLPC  C31121606   6.703   5.317   7.708  0.2213 -0.5442 -0.0550
  187SLPC  H11X21607   6.703   5.403   7.638 -4.3777 -1.2892 -1.3328
  187SLPC  H11Y21608   6.811   5.292   7.720  0.2667 -0.6171 -0.6079
  187SLPC  C31221609   6.631   5.345   7.842 -0.8856 -0.1411  0.3032
  187SLPC  H12X21610   6.529   5.371   7.809 -0.3191  2.1783  0.2534
  187SLPC  H12Y21611   6.686   5.423   7.899  0.4040 -0.8859  0.1205
  187SLPC  C31321612   6.628   5.223   7.940 -0.1732 -0.7871 -0.0414
  187SLPC  H13X21613   6.736   5.199   7.943  1.0072  2.9011 -3.7255
  187SLPC  H13Y21614   6.587   5.135   7.885  0.8124 -0.9377 -0.5451
  187SLPC  C31421615   6.552   5.225   8.074  0.0912  0.8072 -1.0096
  187SLPC  H14X21616   6.553   5.119   8.107  0.7122  1.3312  0.7708
  187SLPC  H14Y21617   6.449   5.246   8.039  0.1877 -0.4557 -2.1568
  187SLPC  C31521618   6.582   5.337   8.176 -0.3463  0.7509  0.3248
  187SLPC  H15X21619   6.507   5.327   8.258  0.9310  2.8974  1.8383
  187SLPC  H15Y21620   6.563   5.437   8.133 -2.0327 -0.4819 -2.0145
  187SLPC  C31621621   6.729   5.334   8.230 -0.2128 -0.6716 -0.3979
  187SLPC  H16X21622   6.802   5.380   8.159 -0.5928  1.7663  0.6950
  187SLPC  H16Y21623   6.752   5.228   8.251  0.7939 -0.3368  0.2244
  187SLPC  C31721624   6.739   5.418   8.362 -0.3107 -0.5828  0.1518
  187SLPC  H17X21625   6.647   5.406   8.422 -0.3428 -0.2102  0.1812
  187SLPC  H17Y21626   6.751   5.525   8.335  1.8324 -0.6724  0.5244
  187SLPC  C31821627   6.867   5.365   8.443 -0.4987 -0.0088  0.2818
  187SLPC  H18X21628   6.869   5.254   8.443  0.2333 -0.0155 -0.9218
  187SLPC  H18Y21629   6.887   5.413   8.541 -0.2117 -2.3346  1.4369
  187SLPC  H18Z21630   6.954   5.394   8.380 -0.4575  0.2781  0.4694
  188SLPC     N21631   1.976   1.113   6.159 -0.3707  0.1407 -0.3428
  188SLPC   C1321632   1.913   1.076   6.029  0.1569  0.5572  0.6428
  188SLPC  H13A21633   1.814   1.048   6.060  0.5456 -0.1672  1.2600
  188SLPC  H13B21634   1.913   1.153   5.953  1.6988 -0.4368 -0.4348
  188SLPC  H13C21635   1.963   0.986   5.995 -1.5032 -1.0642  2.2593
  188SLPC   C1421636   1.897   1.234   6.207 -0.3530  0.1089  0.7506
  188SLPC  H14A21637   1.789   1.223   6.212 -0.6198  1.1302 -1.5050
  188SLPC  H14B21638   1.940   1.262   6.302 -0.7318 -0.4038  1.0823
  188SLPC  H14C21639   1.919   1.307   6.131  0.4172  1.5595  2.3149
  188SLPC   C1521640   2.122   1.142   6.136 -0.5125 -0.1467 -0.0358
  188SLPC  H15A21641   2.167   1.158   6.233 -2.5689 -0.7485  1.0808
  188SLPC  H15B21642   2.165   1.051   6.095 -2.8927 -0.0975 -3.0086
  188SLPC  H15C21643   2.133   1.223   6.066  1.7921 -2.7456 -3.0041
  188SLPC   C1221644   1.956   0.999   6.261 -0.1383  0.0705 -0.2386
  188SLPC  H12A21645   2.001   1.027   6.355 -1.7220 -0.5006  0.7274
  188SLPC  H12B21646   2.019   0.915   6.235 -0.6602  0.0093 -1.3900
  188SLPC   C1121647   1.810   0.940   6.297  0.2193  0.0418  0.4090
  188SLPC  H11A21648   1.819   0.866   6.379 -0.4394 -1.0632 -0.4898
  188SLPC  H11B21649   1.763   0.899   6.205 -1.7969  0.4611  1.2029
  188SLPC     P21650   1.586   1.026   6.397 -0.3090  0.2401 -0.0010
  188SLPC   O1321651   1.489   1.080   6.302 -0.4742  0.4820 -0.1115
  188SLPC   O1421652   1.571   0.883   6.431  0.0225  0.4123 -0.2997
  188SLPC   O1221653   1.737   1.046   6.341  0.2536 -0.1180  0.0709
  188SLPC   O1121654   1.582   1.116   6.527 -0.3558  0.6211 -0.2442
  188SLPC    C121655   1.698   1.187   6.575  0.0207  0.1713 -0.4399
  188SLPC    HA21656   1.760   1.245   6.502  0.3258 -0.0734 -0.3770
  188SLPC    HB21657   1.660   1.268   6.641 -1.4022  0.1653 -1.2117
  188SLPC    C221658   1.788   1.099   6.664 -0.2747 -0.0107 -0.2442
  188SLPC    HS21659   1.849   1.036   6.596  0.5420 -0.0295  0.4936
  188SLPC   O2121660   1.702   1.021   6.748  0.3666  0.3846  0.3958
  188SLPC   C2121661   1.736   0.895   6.760 -0.5056  0.7727  0.2433
  188SLPC   O2221662   1.844   0.850   6.723  0.3331 -0.7171 -0.1236
  188SLPC   C2221663   1.620   0.820   6.818 -0.1372 -0.3833  0.2077
  188SLPC   H2R21664   1.534   0.830   6.749  0.9273  0.4456 -1.0511
  188SLPC   H2S21665   1.643   0.713   6.837  0.5859 -0.2204  0.2652
  188SLPC    C321666   1.878   1.191   6.749 -0.5081  0.2226  0.4252
  188SLPC    HX21667   1.938   1.264   6.690 -1.7351  4.2540  3.6872
  188SLPC    HY21668   1.945   1.122   6.804 -1.1295  0.0017  0.9247
  188SLPC   O3121669   1.798   1.276   6.839  0.5495 -0.2767  0.0165
  188SLPC   C3121670   1.761   1.216   6.959 -0.3288 -0.1184 -0.4863
  188SLPC   O3221671   1.810   1.107   6.989 -0.1049 -0.4372 -0.2341
  188SLPC   C3221672   1.666   1.307   7.033 -0.0576  0.0084  0.1800
  188SLPC   H2X21673   1.577   1.312   6.966  0.5916 -0.1807 -0.7152
  188SLPC   H2Y21674   1.712   1.408   7.042  0.6496 -0.3974  1.3673
  188SLPC   C2321675   1.592   0.879   6.964 -0.0582 -0.2138  0.4006
  188SLPC   H3R21676   1.555   0.983   6.968 -3.9335 -1.4227  4.9945
  188SLPC   H3S21677   1.686   0.876   7.023 -0.1871 -2.6042  0.6132
  188SLPC   C2421678   1.487   0.790   7.047 -0.5066 -0.6926 -0.3430
  188SLPC   H4R21679   1.519   0.686   7.067  2.2773  0.0197 -0.7479
  188SLPC   H4S21680   1.385   0.789   7.002  0.6732 -0.7023 -3.2117
  188SLPC   C2521681   1.472   0.860   7.190  0.4506 -0.4058  0.2863
  188SLPC   H5R21682   1.424   0.959   7.174 -0.0675 -0.5151  1.0851
  188SLPC   H5S21683   1.575   0.884   7.225 -0.5140  2.8864  1.3139
  188SLPC   C2621684   1.389   0.794   7.295  0.1268 -0.1279 -0.0476
  188SLPC   H6R21685   1.419   0.691   7.325  0.6394  0.7002  2.5953
  188SLPC   H6S21686   1.284   0.784   7.262 -0.5873  2.8979  0.9952
  188SLPC   C2721687   1.364   0.879   7.418  0.6491  0.8920 -0.5227
  188SLPC   H7R21688   1.463   0.905   7.462  1.4191 -0.7533 -1.2152
  188SLPC   H7S21689   1.318   0.815   7.496 -0.4003  0.2374 -1.6498
  188SLPC   C2821690   1.277   1.001   7.397  0.4845 -0.4220  0.3141
  188SLPC   H8R21691   1.321   1.072   7.324 -0.0772 -1.5991 -1.1968
  188SLPC   H8S21692   1.290   1.052   7.495  2.1637 -0.3880  0.1060
  188SLPC   C2921693   1.130   0.973   7.361 -0.0246 -0.1089  0.2887
  188SLPC   H9R21694   1.104   0.954   7.256 -0.6016  1.8674  0.0190
  188SLPC  C21021695   1.029   0.976   7.450  0.1798  0.0382  0.2910
  188SLPC  H10R21696   0.929   0.955   7.408 -0.6829  2.8918  0.6539
  188SLPC  C21121697   1.040   1.012   7.600 -0.1281 -0.2543 -0.0743
  188SLPC  H11R21698   1.086   1.113   7.604  1.5953 -1.0077 -0.0038
  188SLPC  H11S21699   1.117   0.943   7.639  0.5854  1.1432  1.0721
  188SLPC  C21221700   0.915   1.015   7.686  0.2648 -0.3756 -0.4720
  188SLPC  H12R21701   0.822   1.015   7.627 -0.0139 -0.6336 -0.0338
  188SLPC  C21321702   0.911   1.024   7.820  0.2965  0.4510  0.2490
  188SLPC  H13R21703   0.817   1.036   7.875  0.6029  0.1954  0.8403
  188SLPC  C21421704   1.030   1.028   7.911  0.0968  0.5231 -0.3327
  188SLPC  H14R21705   1.047   1.134   7.942  0.6473  0.6935 -1.1752
  188SLPC  H14S21706   1.125   0.994   7.864  0.3376  0.5697  0.1097
  188SLPC  C21521707   1.011   0.959   8.046 -0.3704  0.2082 -0.6039
  188SLPC  H15R21708   1.109   0.954   8.098  0.0038 -1.6555 -1.4069
  188SLPC  H15S21709   0.972   0.857   8.021 -1.7027  0.6998 -0.6333
  188SLPC  C21621710   0.917   1.043   8.146 -0.6830 -0.5791 -0.2552
  188SLPC  H16R21711   0.818   1.008   8.111  0.7997 -2.6938 -2.7658
  188SLPC  H16S21712   0.944   1.150   8.134 -0.4174 -0.0574  3.6076
  188SLPC  C21721713   0.945   1.017   8.290  0.0935  0.2466 -0.1810
  188SLPC  H17R21714   0.880   1.085   8.349  0.4151 -0.7040  1.3189
  188SLPC  H17S21715   1.048   1.050   8.315  0.0902  1.9988 -2.1823
  188SLPC  C21821716   0.923   0.870   8.336  0.6253  0.2631 -1.2516
  188SLPC  H18R21717   1.005   0.818   8.282  3.1595  2.1796  0.5117
  188SLPC  H18S21718   0.819   0.840   8.310  0.5677  0.7490 -1.6117
  188SLPC  H18T21719   0.938   0.858   8.445 -1.5612 -0.0191 -0.9359
  188SLPC   C3321720   1.624   1.258   7.179  0.2018  0.5359  0.6413
  188SLPC   H3X21721   1.705   1.205   7.233 -1.5286 -0.3882  2.4344
  188SLPC   H3Y21722   1.555   1.173   7.165 -0.5113  0.9925  1.3247
  188SLPC   C3421723   1.581   1.366   7.273  0.1067 -0.2193 -0.2629
  188SLPC   H4X21724   1.509   1.435   7.223 -0.6049 -0.0713  0.9366
  188SLPC   H4Y21725   1.674   1.423   7.293 -0.1382  0.3752 -0.8008
  188SLPC   C3521726   1.524   1.322   7.410 -0.5343  0.1495  0.4732
  188SLPC   H5X21727   1.606   1.273   7.468 -1.7093 -0.7524  1.4291
  188SLPC   H5Y21728   1.443   1.249   7.388  0.7466 -0.6391 -2.0015
  188SLPC   C3621729   1.479   1.438   7.486 -0.5793 -0.1706  0.4458
  188SLPC   H6X21730   1.403   1.501   7.435  1.2320  0.7532 -1.2269
  188SLPC   H6Y21731   1.564   1.507   7.502 -0.3375  0.2350 -2.1424
  188SLPC   C3721732   1.420   1.401   7.620  0.0076 -0.6035  0.1113
  188SLPC   H7X21733   1.326   1.342   7.611 -1.5893  1.8496 -0.2861
  188SLPC   H7Y21734   1.389   1.499   7.661  1.3492  0.7959 -2.0132
  188SLPC   C3821735   1.514   1.341   7.724 -0.7394  0.5104 -0.1433
  188SLPC   H8X21736   1.610   1.389   7.752 -1.0066  0.7607  0.3421
  188SLPC   H8Y21737   1.550   1.245   7.681 -1.0598  0.2111  0.2523
  188SLPC   C3921738   1.445   1.298   7.851 -0.6031  0.1963  0.1979
  188SLPC   H9X21739   1.497   1.215   7.902 -0.9075 -1.1166 -1.5134
  188SLPC   H9Y21740   1.344   1.256   7.829  0.2605 -1.4857 -0.7096
  188SLPC  C31021741   1.431   1.420   7.947  0.0801  0.4146 -0.8257
  188SLPC  H10X21742   1.393   1.507   7.890 -2.3839 -0.2476 -0.3119
  188SLPC  H10Y21743   1.530   1.444   7.991 -1.3104  0.8766  2.3246
  188SLPC  C31121744   1.336   1.393   8.070  0.3213  0.0923  0.1840
  188SLPC  H11X21745   1.233   1.367   8.035  0.8941 -0.2064 -1.3527
  188SLPC  H11Y21746   1.322   1.489   8.124  0.1122  0.5402 -0.6417
  188SLPC  C31221747   1.397   1.283   8.156 -0.2027  0.3347 -0.5358
  188SLPC  H12X21748   1.506   1.287   8.178 -0.1440 -0.6118 -0.6334
  188SLPC  H12Y21749   1.398   1.187   8.100 -0.2666  1.4059 -2.4946
  188SLPC  C31321750   1.322   1.265   8.285 -0.3099 -1.1811  0.3894
  188SLPC  H13X21751   1.355   1.179   8.346 -2.2344 -2.0272  0.3325
  188SLPC  H13Y21752   1.211   1.267   8.271 -0.5510  3.6203  1.1731
  188SLPC  C31421753   1.329   1.370   8.398 -0.3123 -0.1837 -0.5772
  188SLPC  H14X21754   1.252   1.349   8.475  0.3545 -2.1747 -0.3972
  188SLPC  H14Y21755   1.297   1.469   8.358 -1.7077 -0.6688 -0.6908
  188SLPC  C31521756   1.471   1.408   8.445  0.2132  0.2241 -0.6993
  188SLPC  H15X21757   1.459   1.514   8.475 -1.7117 -0.2545  0.3874
  188SLPC  H15Y21758   1.546   1.405   8.363  0.3390  1.0136 -0.6220
  188SLPC  C31621759   1.517   1.332   8.574 -0.3510 -0.7345  0.0592
  188SLPC  H16X21760   1.534   1.224   8.554 -1.6953 -1.1463  0.9718
  188SLPC  H16Y21761   1.448   1.346   8.660  1.6736  1.9442  1.3874
  188SLPC  C31721762   1.646   1.394   8.634 -0.5810 -0.4495 -1.2297
  188SLPC  H17X21763   1.622   1.501   8.650 -2.6322 -0.8989 -0.9636
  188SLPC  H17Y21764   1.729   1.397   8.560  1.6449  3.5212  1.0631
  188SLPC  C31821765   1.696   1.320   8.763 -0.8940  0.3285  0.3939
  188SLPC  H18X21766   1.732   1.217   8.741  1.9729  0.8727  1.9780
  188SLPC  H18Y21767   1.622   1.315   8.846 -1.9733 -1.7506 -0.6088
  188SLPC  H18Z21768   1.793   1.363   8.797 -0.0342 -0.2321 -1.2473
  189SLPC     N21769   3.894   1.854   6.019 -0.1570  0.7459  0.0802
  189SLPC   C1321770   3.877   1.716   5.972  0.7824  0.8612  0.5325
  189SLPC  H13A21771   3.782   1.673   6.002  0.0285  1.3869 -0.9825
  189SLPC  H13B21772   3.875   1.722   5.864  3.2501 -0.8264  0.3127
  189SLPC  H13C21773   3.953   1.643   5.993 -0.1517  0.0832  1.3598
  189SLPC   C1421774   3.769   1.932   5.993 -0.0184 -0.3893  0.1869
  189SLPC  H14A21775   3.686   1.880   6.039 -0.4660  1.5942  1.7321
  189SLPC  H14B21776   3.774   2.034   6.028  1.3347 -0.0391 -0.9230
  189SLPC  H14C21777   3.745   1.932   5.888  0.5582 -2.2137  0.0054
  189SLPC   C1521778   4.011   1.915   5.939  0.0372 -0.0171  0.1277
  189SLPC  H15A21779   3.977   1.921   5.837  1.6677 -1.3375 -0.5420
  189SLPC  H15B21780   4.036   2.011   5.980  0.7043 -0.5919  1.1048
  189SLPC  H15C21781   4.096   1.851   5.956 -1.1832 -1.6813  0.1750
  189SLPC   C1221782   3.929   1.845   6.168 -0.3172  0.1893 -0.6595
  189SLPC  H12A21783   4.012   1.777   6.177  1.6979  2.5074 -0.7306
  189SLPC  H12B21784   3.841   1.799   6.210  0.6644 -0.5317  0.6812
  189SLPC   C1121785   3.972   1.972   6.241  0.2075 -0.1862 -0.0760
  189SLPC  H11A21786   3.967   1.969   6.352 -0.9893  0.6378 -0.0951
  189SLPC  H11B21787   3.894   2.041   6.202  2.0549  1.3373 -1.2803
  189SLPC     P21788   4.230   1.934   6.239  0.0255  0.5599  0.5785
  189SLPC   O1321789   4.203   1.795   6.199  0.3557  0.1934 -0.3731
  189SLPC   O1421790   4.357   1.998   6.188  0.3126 -0.2213  0.1906
  189SLPC   O1221791   4.093   2.024   6.202 -0.6430 -0.2755 -0.1406
  189SLPC   O1121792   4.231   1.937   6.397  0.1994 -0.2126 -0.0068
  189SLPC    C121793   4.275   2.068   6.445 -0.1194  0.0925 -0.9013
  189SLPC    HA21794   4.386   2.069   6.443 -0.0762  1.5146  0.3013
  189SLPC    HB21795   4.245   2.153   6.380  1.8625  0.3974 -1.4758
  189SLPC    C221796   4.234   2.098   6.601 -0.3253 -0.2565  0.1571
  189SLPC    HS21797   4.275   2.195   6.637  1.5234 -1.2203  0.7685
  189SLPC   O2121798   4.266   1.992   6.688  0.0832 -0.6248 -0.7608
  189SLPC   C2121799   4.394   1.979   6.716  0.1114 -0.0725  0.3769
  189SLPC   O2221800   4.483   2.047   6.668 -0.2663  0.3852  0.2417
  189SLPC   C2221801   4.418   1.886   6.835  0.0814 -0.0556 -0.6277
  189SLPC   H2R21802   4.404   1.779   6.807  1.6861 -0.1082 -1.3454
  189SLPC   H2S21803   4.525   1.898   6.862  0.2540  0.6639 -1.5700
  189SLPC    C321804   4.087   2.124   6.610  0.5087  0.5796 -0.5306
  189SLPC    HX21805   4.047   2.029   6.569 -0.8365  1.5992 -1.6686
  189SLPC    HY21806   4.053   2.209   6.547 -0.8111 -0.3595 -1.1402
  189SLPC   O3121807   4.057   2.145   6.754  0.6907 -0.3087 -0.4839
  189SLPC   C3121808   3.927   2.132   6.778  0.2357 -0.0872  0.1550
  189SLPC   O3221809   3.847   2.113   6.688 -0.4630 -0.0073  0.3007
  189SLPC   C3221810   3.903   2.121   6.929  0.8889  0.0514 -0.5802
  189SLPC   H2X21811   3.904   2.228   6.957  0.3583  0.6954 -2.7838
  189SLPC   H2Y21812   3.991   2.067   6.971  1.4625 -0.7543 -2.6471
  189SLPC   C2321813   4.356   1.928   6.972  0.2538  0.0429  0.0908
  189SLPC   H3R21814   4.246   1.914   6.965  0.4911 -1.4608 -0.9560
  189SLPC   H3S21815   4.394   2.029   7.000  1.9749  0.2792 -2.6552
  189SLPC   C2421816   4.400   1.833   7.085  0.3834 -0.3625 -1.2194
  189SLPC   H4R21817   4.499   1.867   7.123 -0.4552  0.6681  0.1603
  189SLPC   H4S21818   4.397   1.729   7.047 -1.5211 -1.2541  1.0927
  189SLPC   C2521819   4.295   1.837   7.200 -0.0040 -0.6207  0.2537
  189SLPC   H5R21820   4.192   1.825   7.160 -0.8453  2.4212  1.2172
  189SLPC   H5S21821   4.293   1.938   7.249  2.1172 -1.3063  1.9241
  189SLPC   C2621822   4.330   1.745   7.319  0.5111  0.0651 -0.1332
  189SLPC   H6R21823   4.435   1.767   7.348 -0.3879  1.4019  2.3409
  189SLPC   H6S21824   4.329   1.640   7.282 -1.2320  0.5186 -1.5387
  189SLPC   C2721825   4.236   1.756   7.442  0.0408 -0.2941 -0.1526
  189SLPC   H7R21826   4.141   1.701   7.425  0.1744 -0.8303  0.7667
  189SLPC   H7S21827   4.218   1.863   7.462 -0.0329 -0.4894  0.9099
  189SLPC   C2821828   4.310   1.702   7.565  0.4299  0.2667  0.5987
  189SLPC   H8R21829   4.398   1.768   7.582  0.7966  0.1683 -0.7674
  189SLPC   H8S21830   4.351   1.602   7.540  2.6359  1.0270  0.9044
  189SLPC   C2921831   4.218   1.702   7.680 -0.3146  0.5167 -0.5318
  189SLPC   H9R21832   4.115   1.691   7.645 -1.8272  1.6366  3.1194
  189SLPC  C21021833   4.238   1.722   7.811 -0.4894 -0.6705 -0.1554
  189SLPC  H10R21834   4.148   1.724   7.874  1.3883 -0.2255  2.7506
  189SLPC  C21121835   4.362   1.751   7.888 -0.5338 -0.7848 -0.0394
  189SLPC  H11R21836   4.443   1.768   7.814 -1.2938  1.2826 -0.4613
  189SLPC  H11S21837   4.387   1.658   7.942  1.0276 -0.4794 -0.2005
  189SLPC  C21221838   4.344   1.863   7.984 -0.1646  0.6675  0.7363
  189SLPC  H12R21839   4.332   1.965   7.945  0.4011 -0.0750 -1.5105
  189SLPC  C21321840   4.352   1.851   8.115 -0.5744 -0.0198 -0.6330
  189SLPC  H13R21841   4.343   1.940   8.179 -0.7964 -0.2619 -0.3214
  189SLPC  C21421842   4.385   1.723   8.193 -0.3167 -0.1203  0.4335
  189SLPC  H14R21843   4.370   1.629   8.137  1.7862  1.4885 -3.1395
  189SLPC  H14S21844   4.322   1.702   8.283 -1.2052  0.3833 -0.0530
  189SLPC  C21521845   4.539   1.739   8.213  0.6071 -0.2245  0.1002
  189SLPC  H15R21846   4.567   1.835   8.261  0.1430  0.2951 -0.6612
  189SLPC  H15S21847   4.586   1.736   8.112 -1.2643  2.3756 -0.9578
  189SLPC  C21621848   4.601   1.627   8.287  0.0204 -0.3679  0.7381
  189SLPC  H16R21849   4.546   1.540   8.243  2.6001 -1.4232 -0.6264
  189SLPC  H16S21850   4.575   1.633   8.395  1.1527 -0.1598  1.0099
  189SLPC  C21721851   4.755   1.622   8.281  0.2766 -0.3182 -0.4381
  189SLPC  H17R21852   4.785   1.550   8.360 -0.4547  1.7937  1.9016
  189SLPC  H17S21853   4.785   1.725   8.313 -1.9175  0.8001 -1.7455
  189SLPC  C21821854   4.811   1.579   8.142  0.5313 -0.1003 -1.1797
  189SLPC  H18R21855   4.782   1.644   8.057  1.5794  2.9629  0.6173
  189SLPC  H18S21856   4.772   1.478   8.119  0.5070 -0.6741  1.0863
  189SLPC  H18T21857   4.922   1.574   8.142  0.4982 -3.2163 -0.0603
  189SLPC   C3321858   3.775   2.045   6.976  0.1939  0.2126  0.0726
  189SLPC   H3X21859   3.776   1.936   6.955 -1.2994 -0.0662  1.2543
  189SLPC   H3Y21860   3.692   2.094   6.920  0.3645 -0.3054 -0.6498
  189SLPC   C3421861   3.764   2.038   7.133  0.2551  0.5156  0.0899
  189SLPC   H4X21862   3.664   1.996   7.159  1.1686 -2.7889 -1.3402
  189SLPC   H4Y21863   3.776   2.145   7.162 -0.1364  0.8652 -1.0170
  189SLPC   C3521864   3.867   1.944   7.187  0.5810 -0.3149 -0.0986
  189SLPC   H5X21865   3.970   1.984   7.177  0.7110 -0.6428 -0.0836
  189SLPC   H5Y21866   3.859   1.853   7.124 -0.4796  0.1932 -0.7261
  189SLPC   C3621867   3.828   1.903   7.332  0.0662  0.0136 -0.0594
  189SLPC   H6X21868   3.898   1.828   7.373 -0.9469  0.1600  2.1331
  189SLPC   H6Y21869   3.725   1.860   7.335  0.8210 -2.3956 -3.3904
  189SLPC   C3721870   3.832   2.030   7.428 -0.1781  0.3915 -0.0714
  189SLPC   H7X21871   3.751   2.102   7.404  0.0438  0.7709  0.2981
  189SLPC   H7Y21872   3.921   2.085   7.389 -1.4990  2.0821 -0.8393
  189SLPC   C3821873   3.838   2.009   7.581 -0.0471 -0.0100  0.8542
  189SLPC   H8X21874   3.830   2.098   7.647 -0.1761 -0.4514  1.4401
  189SLPC   H8Y21875   3.939   1.965   7.596  0.4753  0.9009  0.0641
  189SLPC   C3921876   3.739   1.900   7.629  0.3900 -0.2123 -0.8192
  189SLPC   H9X21877   3.794   1.806   7.610 -2.1963 -2.0134  0.1035
  189SLPC   H9Y21878   3.644   1.903   7.571  0.5924 -0.7024 -1.1814
  189SLPC  C31021879   3.721   1.904   7.782 -0.3531  0.0994  0.2375
  189SLPC  H10X21880   3.655   1.991   7.801 -1.1893  0.4675 -3.5515
  189SLPC  H10Y21881   3.818   1.929   7.830 -0.8740  2.2955  0.2680
  189SLPC  C31121882   3.674   1.771   7.839  0.2618 -0.0909  0.0939
  189SLPC  H11X21883   3.733   1.682   7.809 -1.0509 -1.0284  0.2289
  189SLPC  H11Y21884   3.576   1.758   7.790 -0.1225  1.0076  0.5422
  189SLPC  C31221885   3.660   1.759   7.989  0.7274  0.4500 -0.6325
  189SLPC  H12X21886   3.611   1.843   8.043 -1.7532 -1.4064  0.2015
  189SLPC  H12Y21887   3.761   1.749   8.032  1.2304  0.3114 -1.8143
  189SLPC  C31321888   3.590   1.631   8.037  0.0881  0.0739 -0.5862
  189SLPC  H13X21889   3.635   1.539   7.995  1.3934  1.0207 -1.3574
  189SLPC  H13Y21890   3.490   1.634   7.990 -0.7303  0.7155  1.1235
  189SLPC  C31421891   3.576   1.604   8.192 -0.2797  0.0497 -0.1772
  189SLPC  H14X21892   3.507   1.684   8.227  2.0849  2.9737 -1.7618
  189SLPC  H14Y21893   3.680   1.617   8.228 -0.5002 -0.0039  0.4903
  189SLPC  C31521894   3.511   1.470   8.211 -0.1800 -0.3210 -0.0459
  189SLPC  H15X21895   3.563   1.386   8.160  1.2757  1.3663 -1.5330
  189SLPC  H15Y21896   3.406   1.467   8.177 -0.3811 -0.6937  0.6002
  189SLPC  C31621897   3.492   1.421   8.361  0.3278 -0.1150  0.4546
  189SLPC  H16X21898   3.426   1.332   8.361  2.0004 -1.5618 -3.5050
  189SLPC  H16Y21899   3.455   1.512   8.414  0.1360  2.0441 -3.0908
  189SLPC  C31721900   3.627   1.389   8.429 -0.1450 -0.0615 -0.2417
  189SLPC  H17X21901   3.682   1.484   8.444  0.4790 -0.2818 -1.0596
  189SLPC  H17Y21902   3.687   1.319   8.368  2.2624  1.5038  0.1921
  189SLPC  C31821903   3.603   1.331   8.574  0.2499  0.0922 -0.5038
  189SLPC  H18X21904   3.534   1.244   8.564  1.3875 -0.8200 -0.6098
  189SLPC  H18Y21905   3.540   1.394   8.640  0.8925 -1.7743  2.0416
  189SLPC  H18Z21906   3.692   1.309   8.636  0.5346 -0.6276 -1.1406
  190SLPC     N21907   4.832   2.574   6.441  0.0150 -0.5257  0.1301
  190SLPC   C1321908   4.833   2.666   6.324  0.3274  0.1843 -0.0340
  190SLPC  H13A21909   4.783   2.625   6.237 -1.0339  1.1450  0.2575
  190SLPC  H13B21910   4.783   2.760   6.345  0.8394  0.8832 -1.7042
  190SLPC  H13C21911   4.933   2.695   6.295  0.8660 -0.4936  1.1121
  190SLPC   C1421912   4.913   2.638   6.549  0.6777  0.0099 -0.2790
  190SLPC  H14A21913   4.885   2.730   6.597 -1.0409  0.3359 -1.8249
  190SLPC  H14B21914   4.917   2.560   6.624 -0.5263 -1.3025 -1.5196
  190SLPC  H14C21915   5.013   2.666   6.519  1.4565 -0.9849  1.2238
  190SLPC   C1521916   4.909   2.452   6.395 -0.5924  0.4051 -0.2653
  190SLPC  H15A21917   4.872   2.422   6.298  0.2239 -1.2170 -0.1079
  190SLPC  H15B21918   5.014   2.477   6.391 -0.7627  1.9437  2.3804
  190SLPC  H15C21919   4.896   2.362   6.453  1.4159  0.1698 -0.0998
  190SLPC   C1221920   4.691   2.542   6.490  0.1550  0.2590 -0.2338
  190SLPC  H12A21921   4.698   2.465   6.566  0.1158 -1.5219 -1.9542
  190SLPC  H12B21922   4.635   2.501   6.407 -2.2536  1.6087  0.6087
  190SLPC   C1121923   4.596   2.655   6.543  0.1464  0.1188 -0.0804
  190SLPC  H11A21924   4.652   2.706   6.624  1.2538 -1.2635  0.0697
  190SLPC  H11B21925   4.507   2.605   6.586 -0.5822  2.3532  1.1847
  190SLPC     P21926   4.455   2.734   6.345  0.1275  0.4711 -0.0138
  190SLPC   O1321927   4.426   2.861   6.273  0.0692  0.1603 -0.0517
  190SLPC   O1421928   4.492   2.620   6.260  0.1878 -0.4628  0.1656
  190SLPC   O1221929   4.576   2.760   6.446  0.3569 -0.5298  0.6363
  190SLPC   O1121930   4.339   2.694   6.445 -0.1338 -0.1969  0.4446
  190SLPC    C121931   4.262   2.796   6.515 -0.6817 -0.0348  0.8934
  190SLPC    HA21932   4.309   2.896   6.515  0.2019 -0.4310 -0.4069
  190SLPC    HB21933   4.164   2.816   6.466  0.1806  0.8397 -0.5092
  190SLPC    C221934   4.239   2.759   6.666  0.2948 -0.3178  0.0076
  190SLPC    HS21935   4.336   2.790   6.711 -0.3368  0.5831  0.7963
  190SLPC   O2121936   4.215   2.618   6.682 -0.2686 -0.3694 -0.0315
  190SLPC   C2121937   4.253   2.579   6.803  0.0536 -0.3955 -0.4755
  190SLPC   O2221938   4.315   2.644   6.884  0.0956 -0.1405  0.5399
  190SLPC   C2221939   4.192   2.442   6.822 -0.8233  0.3117  0.5378
  190SLPC   H2R21940   4.083   2.457   6.837 -1.0648 -0.1788 -0.5987
  190SLPC   H2S21941   4.208   2.395   6.722  0.5985  1.4994  0.1757
  190SLPC    C321942   4.114   2.844   6.723 -0.3416  0.2323 -0.2522
  190SLPC    HX21943   4.017   2.801   6.689 -0.1647  0.0221 -0.4951
  190SLPC    HY21944   4.124   2.946   6.681 -0.4306 -0.3143 -1.6513
  190SLPC   O3121945   4.112   2.845   6.869  0.0523 -0.2082 -0.3614
  190SLPC   C3121946   4.199   2.935   6.922  0.6144  0.2891  0.3921
  190SLPC   O3221947   4.269   3.007   6.854  0.0262  0.2324  0.1343
  190SLPC   C3221948   4.178   2.932   7.068 -0.2205  0.3049 -0.1135
  190SLPC   H2X21949   4.191   2.829   7.107  0.2030  0.4436  0.1204
  190SLPC   H2Y21950   4.078   2.969   7.100  0.8599  1.4823  2.1052
  190SLPC   C2321951   4.255   2.352   6.935  0.2649 -0.8669  0.6829
  190SLPC   H3R21952   4.366   2.359   6.933  0.1792  1.4942  1.0003
  190SLPC   H3S21953   4.241   2.244   6.914 -1.7932 -0.6136  0.5677
  190SLPC   C2421954   4.208   2.386   7.073 -0.4843  0.0648  0.4387
  190SLPC   H4R21955   4.097   2.389   7.075 -0.5899 -0.9147 -1.6689
  190SLPC   H4S21956   4.234   2.491   7.097 -1.1540 -0.3295  3.2639
  190SLPC   C2521957   4.248   2.284   7.178  0.4663 -0.1036 -0.0058
  190SLPC   H5R21958   4.357   2.294   7.193  0.3650  0.8269  0.1540
  190SLPC   H5S21959   4.228   2.180   7.144 -2.2998  0.3912 -0.1462
  190SLPC   C2621960   4.172   2.298   7.309 -0.7748  0.2340 -1.1251
  190SLPC   H6R21961   4.061   2.296   7.299 -1.3387 -0.4961  3.2438
  190SLPC   H6S21962   4.189   2.404   7.338  0.9158 -0.4895  0.7833
  190SLPC   C2721963   4.218   2.197   7.420 -0.5599  0.1184 -0.2300
  190SLPC   H7R21964   4.329   2.195   7.424 -0.5570  0.9387  0.6532
  190SLPC   H7S21965   4.183   2.098   7.385 -0.8694 -0.4165  1.4677
  190SLPC   C2821966   4.157   2.227   7.556 -0.1504 -0.2897  0.4377
  190SLPC   H8R21967   4.047   2.229   7.540 -0.2330  0.0108  1.0127
  190SLPC   H8S21968   4.193   2.324   7.595  0.2461  0.8614 -2.5390
  190SLPC   C2921969   4.192   2.117   7.659  0.6362  1.1422  0.1784
  190SLPC   H9R21970   4.248   2.029   7.624  1.7531  0.1990  3.8406
  190SLPC  C21021971   4.134   2.113   7.777 -0.5265 -0.6035 -0.6124
  190SLPC  H10R21972   4.164   2.036   7.848 -0.5212  0.2285  0.3117
  190SLPC  C21121973   4.035   2.214   7.828 -0.9217 -0.4201  0.2217
  190SLPC  H11R21974   3.930   2.179   7.821 -0.5272 -1.3903 -1.3867
  190SLPC  H11S21975   4.026   2.306   7.767 -1.5309 -1.9540 -2.1432
  190SLPC  C21221976   4.064   2.253   7.969 -0.3431 -0.1937 -0.4332
  190SLPC  H12R21977   4.132   2.337   7.986 -0.2931 -0.1414 -0.8723
  190SLPC  C21321978   4.016   2.197   8.082 -0.0664  0.0819  0.0349
  190SLPC  H13R21979   4.053   2.230   8.180 -0.9813  2.4117 -0.3420
  190SLPC  C21421980   3.921   2.076   8.079  1.0861 -0.0655 -0.2212
  190SLPC  H14R21981   3.941   2.002   8.160 -2.1911 -0.5020  0.3336
  190SLPC  H14S21982   3.921   2.010   7.990  1.4773 -0.4757  0.0817
  190SLPC  C21521983   3.776   2.131   8.103  0.1672  0.0212  0.7316
  190SLPC  H15R21984   3.709   2.050   8.067 -0.8771  1.5265 -0.9277
  190SLPC  H15S21985   3.748   2.223   8.047 -0.1848 -0.6385 -0.1842
  190SLPC  C21621986   3.725   2.147   8.252 -0.1565 -0.1613 -0.0523
  190SLPC  H16R21987   3.807   2.196   8.308  0.3946  0.5861 -1.4576
  190SLPC  H16S21988   3.712   2.043   8.290 -1.0898 -0.2432 -0.5502
  190SLPC  C21721989   3.595   2.228   8.262  0.3840 -0.2732  0.4940
  190SLPC  H17R21990   3.610   2.325   8.209  3.4780 -0.2043  1.3176
  190SLPC  H17S21991   3.567   2.263   8.363 -2.0463 -2.2383  0.6118
  190SLPC  C21821992   3.471   2.150   8.211  0.3587 -0.2245 -0.4402
  190SLPC  H18R21993   3.374   2.181   8.256  1.0056  1.5729 -0.1939
  190SLPC  H18S21994   3.480   2.039   8.207 -1.3951 -0.3893 -0.5095
  190SLPC  H18T21995   3.470   2.186   8.106  1.7496  2.8917  0.4825
  190SLPC   C3321996   4.279   3.015   7.146  0.1945 -0.4564 -0.0383
  190SLPC   H3X21997   4.265   3.123   7.124 -1.4605 -0.3108  1.4604
  190SLPC   H3Y21998   4.380   2.981   7.114 -0.7576 -2.5145 -1.0788
  190SLPC   C3421999   4.259   2.998   7.295 -0.8106  0.6516  0.6497
  190SLPC   H4X22000   4.331   3.064   7.348 -1.2735  2.4861 -0.8963
  190SLPC   H4Y22001   4.284   2.895   7.326  1.6846  0.8072 -0.6143
  190SLPC   C3522002   4.115   3.035   7.356  0.3858  0.2916 -0.0292
  190SLPC   H5X22003   4.049   2.952   7.322  0.6854 -0.5556  1.3515
  190SLPC   H5Y22004   4.080   3.136   7.329  0.1648  0.5127  1.0357
  190SLPC   C3622005   4.121   3.024   7.508 -0.3959 -0.3119 -0.0749
  190SLPC   H6X22006   4.194   3.101   7.539  2.2230 -2.3692 -0.7324
  190SLPC   H6Y22007   4.163   2.925   7.533 -0.9009 -0.4152  0.3717
  190SLPC   C3722008   3.987   3.051   7.578  0.3102 -0.3869 -0.4363
  190SLPC   H7X22009   3.922   2.967   7.547 -1.5280 -0.2195  2.5164
  190SLPC   H7Y22010   3.952   3.142   7.524  0.8552 -1.7236 -3.1890
  190SLPC   C3822011   4.001   3.043   7.731  0.0398  0.1203  0.4964
  190SLPC   H8X22012   4.049   3.135   7.772  0.6741 -0.4045  0.9532
  190SLPC   H8Y22013   4.064   2.958   7.763  0.6167  0.5999  0.6672
  190SLPC   C3922014   3.868   3.022   7.799  0.7989 -0.6479 -0.7010
  190SLPC   H9X22015   3.831   2.939   7.735  0.1726 -1.0354  0.1470
  190SLPC   H9Y22016   3.804   3.112   7.806  1.7694 -0.0079  0.1492
  190SLPC  C31022017   3.890   2.979   7.943 -0.4291  0.4300 -1.0249
  190SLPC  H10X22018   3.974   2.907   7.951  0.7551  1.7815 -1.0086
  190SLPC  H10Y22019   3.795   2.945   7.990  0.0698 -1.1524 -1.1099
  190SLPC  C31122020   3.936   3.101   8.036 -0.2313  0.0509  0.1620
  190SLPC  H11X22021   3.854   3.175   8.046 -0.2504 -0.0842  1.1980
  190SLPC  H11Y22022   4.030   3.143   7.993  1.7811 -1.6897  2.5205
  190SLPC  C31222023   3.966   3.049   8.181  0.2277  0.1745  0.1959
  190SLPC  H12X22024   4.035   3.129   8.213 -0.7976  1.9159 -1.6932
  190SLPC  H12Y22025   4.013   2.948   8.188  1.1633  0.6519  1.0795
  190SLPC  C31322026   3.839   3.049   8.271  0.2740 -0.0574 -0.3239
  190SLPC  H13X22027   3.751   2.984   8.251 -0.8067  0.8590  1.2130
  190SLPC  H13Y22028   3.803   3.153   8.257 -0.9507 -0.4581 -0.3434
  190SLPC  C31422029   3.872   3.039   8.420  0.0604  0.4709  0.2496
  190SLPC  H14X22030   3.940   3.121   8.450  1.3380  0.2596 -1.8458
  190SLPC  H14Y22031   3.925   2.942   8.432  0.9803  1.0642  1.1659
  190SLPC  C31522032   3.750   3.033   8.508  0.1220  0.2305 -0.4086
  190SLPC  H15X22033   3.672   2.962   8.472 -0.5842  1.7393 -1.9929
  190SLPC  H15Y22034   3.693   3.127   8.495  0.7186  0.4480 -1.6212
  190SLPC  C31622035   3.770   2.986   8.654 -0.2501 -0.7455 -0.5870
  190SLPC  H16X22036   3.837   3.058   8.705  0.3984  0.3517 -2.8700
  190SLPC  H16Y22037   3.816   2.885   8.657 -0.3454 -0.7765  0.4944
  190SLPC  C31722038   3.643   2.973   8.740  0.4089  0.5215 -0.4361
  190SLPC  H17X22039   3.670   2.929   8.839  0.5343 -1.4076 -1.2677
  190SLPC  H17Y22040   3.574   2.905   8.686 -0.6063  0.1787  1.2123
  190SLPC  C31822041   3.568   3.102   8.768  0.4690  0.1234  0.0231
  190SLPC  H18X22042   3.471   3.082   8.819  1.3215 -0.5623  1.4158
  190SLPC  H18Y22043   3.538   3.138   8.667  0.8024 -1.1661 -0.5500
  190SLPC  H18Z22044   3.625   3.173   8.831  2.5568 -1.1266 -0.3692
  191SLPC     N22045   3.603   4.157   5.749 -0.1773  0.1061 -0.0556
  191SLPC   C1322046   3.743   4.209   5.755  0.0340 -0.2303 -0.4794
  191SLPC  H13A22047   3.766   4.279   5.834  1.8182 -0.7316 -0.5111
  191SLPC  H13B22048   3.819   4.134   5.770  0.2179  0.1685  0.6096
  191SLPC  H13C22049   3.769   4.252   5.659 -1.5024 -0.4791 -1.0286
  191SLPC   C1422050   3.575   4.066   5.867  0.2031 -0.1255  0.0893
  191SLPC  H14A22051   3.548   4.121   5.956 -1.8900 -0.6775 -0.1493
  191SLPC  H14B22052   3.495   3.998   5.842  0.3858  0.2516 -1.6408
  191SLPC  H14C22053   3.651   3.992   5.888  0.6427  0.3114  0.0454
  191SLPC   C1522054   3.595   4.077   5.617  0.6524  0.1851  0.0817
  191SLPC  H15A22055   3.596   4.139   5.528  2.7114 -1.8774 -1.4485
  191SLPC  H15B22056   3.681   4.013   5.602  0.1653 -0.0172 -2.1303
  191SLPC  H15C22057   3.501   4.023   5.616  1.1172 -0.6398 -0.7383
  191SLPC   C1222058   3.507   4.267   5.738  0.3093 -0.2270  0.0227
  191SLPC  H12A22059   3.406   4.230   5.731  0.6898 -1.4196  0.5757
  191SLPC  H12B22060   3.516   4.318   5.642 -0.9781 -1.9263 -1.0519
  191SLPC   C1122061   3.505   4.372   5.850 -0.7096 -0.6126 -0.4952
  191SLPC  H11A22062   3.443   4.460   5.822  2.8083  1.1788 -3.6626
  191SLPC  H11B22063   3.605   4.415   5.874 -0.9999 -0.9250  1.4195
  191SLPC     P22064   3.304   4.296   5.991 -0.9485  0.0449  0.2086
  191SLPC   O1322065   3.225   4.255   5.870 -0.8675  0.1594 -0.4925
  191SLPC   O1422066   3.288   4.197   6.102  0.2747  0.1311 -0.0714
  191SLPC   O1222067   3.464   4.303   5.969  0.0218 -0.0671 -0.4383
  191SLPC   O1122068   3.269   4.441   6.032  0.1598 -0.7167  0.0708
  191SLPC    C122069   3.355   4.535   6.105  1.0403 -0.0919 -0.0617
  191SLPC    HA22070   3.462   4.514   6.085  0.6669  0.5714 -3.3289
  191SLPC    HB22071   3.336   4.637   6.064 -1.0393  1.2699  3.7557
  191SLPC    C222072   3.309   4.546   6.254 -0.0602 -0.4100 -0.4204
  191SLPC    HS22073   3.386   4.597   6.316 -0.4827  1.4513 -1.3287
  191SLPC   O2122074   3.265   4.415   6.306  0.2271 -0.3030  0.1206
  191SLPC   C2122075   3.355   4.351   6.380  0.0949 -0.1211 -0.2528
  191SLPC   O2222076   3.464   4.396   6.407 -0.0329 -0.5955  0.1789
  191SLPC   C2222077   3.296   4.215   6.414 -0.0665 -0.0893 -0.6352
  191SLPC   H2R22078   3.242   4.170   6.327  2.2051  0.3158 -2.3453
  191SLPC   H2S22079   3.371   4.138   6.439 -0.1467 -0.3132 -1.0710
  191SLPC    C322080   3.178   4.638   6.276 -0.3136 -0.5660 -0.3013
  191SLPC    HX22081   3.104   4.595   6.205 -1.4610 -0.2344  0.6522
  191SLPC    HY22082   3.196   4.742   6.243 -1.1742  0.3934  2.0276
  191SLPC   O3122083   3.120   4.627   6.409  0.0586 -0.2577 -0.1846
  191SLPC   C3122084   3.161   4.723   6.496 -0.0913  0.2325  0.0101
  191SLPC   O3222085   3.243   4.810   6.469  0.0877 -0.2890 -0.1848
  191SLPC   C3222086   3.080   4.720   6.626  0.4088 -0.0369 -0.2620
  191SLPC   H2X22087   3.080   4.615   6.661 -0.8382 -1.3619 -3.7583
  191SLPC   H2Y22088   2.979   4.759   6.602 -0.3742 -0.7993  1.6033
  191SLPC   C2322089   3.189   4.215   6.524  0.0929 -0.0025  0.1375
  191SLPC   H3R22090   3.107   4.145   6.493  1.2639 -0.6516 -1.6961
  191SLPC   H3S22091   3.145   4.314   6.547  0.8676  1.0482 -2.5415
  191SLPC   C2422092   3.247   4.165   6.660  0.8001  0.7805 -0.5736
  191SLPC   H4R22093   3.329   4.230   6.698  0.1019  1.2663  0.1440
  191SLPC   H4S22094   3.287   4.063   6.643 -0.9481  0.0808 -0.6456
  191SLPC   C2522095   3.136   4.147   6.762  0.6597  0.1015 -0.2924
  191SLPC   H5R22096   3.176   4.094   6.851  0.5941  1.8096  0.8118
  191SLPC   H5S22097   3.062   4.077   6.719  0.5031  0.1677 -0.1289
  191SLPC   C2622098   3.065   4.272   6.808  0.0297  0.0295  0.3218
  191SLPC   H6R22099   3.018   4.313   6.716  0.0766  0.4340  0.4761
  191SLPC   H6S22100   3.124   4.358   6.848  0.6296 -1.0956  1.9785
  191SLPC   C2722101   2.943   4.239   6.909 -0.6929  0.4616  0.2969
  191SLPC   H7R22102   2.898   4.139   6.893  0.6336  0.1609 -2.1278
  191SLPC   H7S22103   2.865   4.317   6.901  0.5662  1.6743 -0.8179
  191SLPC   C2822104   2.980   4.235   7.062 -0.6804 -0.5154 -0.3167
  191SLPC   H8R22105   3.063   4.162   7.072  0.7880  1.2791  1.4661
  191SLPC   H8S22106   2.892   4.186   7.110 -0.9025 -1.5674 -1.7039
  191SLPC   C2922107   3.002   4.364   7.143 -0.3642  0.1327 -0.1927
  191SLPC   H9R22108   2.934   4.443   7.107  1.3000  1.4009 -0.6744
  191SLPC  C21022109   3.104   4.394   7.229 -0.2410 -0.1949 -0.3614
  191SLPC  H10R22110   3.099   4.490   7.282  2.5527  0.6972 -1.5172
  191SLPC  C21122111   3.212   4.299   7.276 -0.4517  0.2544 -0.5864
  191SLPC  H11R22112   3.310   4.327   7.233 -0.2750 -0.9848 -1.0440
  191SLPC  H11S22113   3.194   4.194   7.243  1.0338 -0.9835  2.1953
  191SLPC  C21222114   3.250   4.290   7.425 -0.5992 -0.2058  0.1744
  191SLPC  H12R22115   3.352   4.323   7.447 -1.3066  0.9541  1.8814
  191SLPC  C21322116   3.181   4.240   7.529 -0.2497 -0.5143 -0.1528
  191SLPC  H13R22117   3.219   4.242   7.632  2.7264  0.1688 -1.1517
  191SLPC  C21422118   3.048   4.177   7.502 -0.2941  0.0226 -0.0774
  191SLPC  H14R22119   3.065   4.079   7.453  0.8811 -0.4478  1.2023
  191SLPC  H14S22120   2.973   4.227   7.437 -1.3568 -0.9251  0.3926
  191SLPC  C21522121   2.973   4.143   7.631  0.0751 -0.8472  0.5422
  191SLPC  H15R22122   3.034   4.085   7.704 -1.2906 -2.1919  0.6442
  191SLPC  H15S22123   2.877   4.091   7.613 -0.8806  0.7501  0.8637
  191SLPC  C21622124   2.926   4.282   7.695 -0.6204 -0.2491  0.2417
  191SLPC  H16R22125   2.834   4.308   7.639 -0.6431 -0.1961  0.3042
  191SLPC  H16S22126   3.005   4.359   7.680 -1.5842  0.7059 -0.0190
  191SLPC  C21722127   2.885   4.277   7.835 -0.3294 -0.0333  0.1916
  191SLPC  H17R22128   2.962   4.250   7.910 -0.6408  1.0238  0.9161
  191SLPC  H17S22129   2.805   4.200   7.846 -0.5825  0.0791 -0.7328
  191SLPC  C21822130   2.804   4.399   7.883  0.3018  0.1480 -0.1737
  191SLPC  H18R22131   2.713   4.415   7.821  0.4437  1.2817 -0.1123
  191SLPC  H18S22132   2.853   4.497   7.870 -0.8644  0.5491 -1.8414
  191SLPC  H18T22133   2.780   4.391   7.991  0.7054 -3.3376 -0.2359
  191SLPC   C3322134   3.137   4.818   6.740 -0.2752 -0.3200 -0.1933
  191SLPC   H3X22135   3.156   4.921   6.701 -2.5887  0.3674  0.3336
  191SLPC   H3Y22136   3.243   4.788   6.757  0.7856  2.3143 -1.5381
  191SLPC   C3422137   3.048   4.814   6.860 -0.2574  0.2345  0.9284
  191SLPC   H4X22138   3.046   4.712   6.904  0.1523 -0.9925 -1.7469
  191SLPC   H4Y22139   2.952   4.831   6.807  0.4940 -0.7982 -0.8307
  191SLPC   C3522140   3.089   4.918   6.969  0.0556  0.0988 -1.3014
  191SLPC   H5X22141   3.078   5.018   6.922  2.0052  1.4157  0.8823
  191SLPC   H5Y22142   3.193   4.908   7.006 -0.8855  0.1121  1.5158
  191SLPC   C3622143   3.003   4.913   7.102 -0.0459 -0.5166  0.6507
  191SLPC   H6X22144   3.015   4.817   7.157 -2.9210 -0.6890  1.0895
  191SLPC   H6Y22145   2.900   4.941   7.072  0.2753  0.9458  0.8544
  191SLPC   C3722146   3.062   5.012   7.207 -0.0976 -0.3234  0.5422
  191SLPC   H7X22147   3.054   5.111   7.159  0.0456 -0.8901 -0.6920
  191SLPC   H7Y22148   3.167   4.980   7.224 -0.2286 -0.4504  1.1251
  191SLPC   C3822149   2.975   5.007   7.337  0.5279 -0.4683  0.3028
  191SLPC   H8X22150   2.968   4.901   7.371 -2.3121 -0.9221 -1.3107
  191SLPC   H8Y22151   2.871   5.037   7.310  1.0412  0.2593 -0.9670
  191SLPC   C3922152   3.030   5.111   7.433  0.6638  0.3353  0.3376
  191SLPC   H9X22153   2.974   5.206   7.418  2.0610  1.0933 -0.2494
  191SLPC   H9Y22154   3.139   5.127   7.422  0.7287 -0.9844 -1.4646
  191SLPC  C31022155   3.007   5.070   7.582 -0.3260 -0.3071  0.1089
  191SLPC  H10X22156   3.083   4.999   7.621  0.3460  0.8881  1.0698
  191SLPC  H10Y22157   2.918   5.005   7.591 -0.4116 -0.2029  0.0209
  191SLPC  C31122158   3.010   5.194   7.671 -0.3122 -0.1244  0.2697
  191SLPC  H11X22159   2.913   5.247   7.660 -1.5371 -2.7517 -3.2735
  191SLPC  H11Y22160   3.085   5.264   7.627 -0.5605  0.5997  0.9802
  191SLPC  C31222161   3.038   5.165   7.823 -0.3826 -0.3286  0.3327
  191SLPC  H12X22162   3.139   5.122   7.836  0.0949  0.2333 -1.2742
  191SLPC  H12Y22163   2.972   5.089   7.869 -1.2480  0.3158  0.1857
  191SLPC  C31322164   3.032   5.302   7.899  0.0318  0.3633  0.1673
  191SLPC  H13X22165   2.928   5.338   7.916 -0.3629 -1.2848  1.5922
  191SLPC  H13Y22166   3.082   5.375   7.833 -2.8787  0.7998 -1.7570
  191SLPC  C31422167   3.095   5.303   8.041  0.4345 -0.0988 -0.0058
  191SLPC  H14X22168   3.204   5.288   8.024  0.2557  0.0513 -1.4043
  191SLPC  H14Y22169   3.052   5.220   8.101  0.6393  0.4579  0.9413
  191SLPC  C31522170   3.066   5.431   8.121  0.0660 -0.6335  0.1203
  191SLPC  H15X22171   3.116   5.422   8.220 -1.7772  0.6179  1.2288
  191SLPC  H15Y22172   2.957   5.432   8.146  0.3050  1.1118  1.2621
  191SLPC  C31622173   3.100   5.573   8.058  0.1726  0.3384 -0.7855
  191SLPC  H16X22174   3.065   5.643   8.136 -1.0570  0.4025 -1.3599
  191SLPC  H16Y22175   3.035   5.600   7.971 -2.1118 -2.7912 -0.2185
  191SLPC  C31722176   3.248   5.583   8.033  0.1941 -0.8278  0.4635
  191SLPC  H17X22177   3.265   5.692   8.021  0.9310 -0.9565  0.2894
  191SLPC  H17Y22178   3.280   5.530   7.941  0.9326  0.7650 -0.2432
  191SLPC  C31822179   3.340   5.546   8.149  0.5057  0.6700 -0.1444
  191SLPC  H18X22180   3.305   5.595   8.242  0.3061 -0.5901  0.4666
  191SLPC  H18Y22181   3.447   5.566   8.126  0.4645 -0.0818 -1.0907
  191SLPC  H18Z22182   3.336   5.435   8.157  2.2549  0.4947 -1.1617
  192SLPC     N22183   4.401   3.847   6.432 -0.2758 -0.1113 -0.0877
  192SLPC   C1322184   4.518   3.780   6.491 -0.7689 -0.1150 -0.2678
  192SLPC  H13A22185   4.563   3.838   6.570 -1.0965 -0.8337  0.4624
  192SLPC  H13B22186   4.491   3.688   6.541  1.1565 -0.5262  0.0693
  192SLPC  H13C22187   4.593   3.757   6.418 -0.7595  0.7239 -0.5373
  192SLPC   C1422188   4.369   3.764   6.311  0.1599 -0.1452 -0.1310
  192SLPC  H14A22189   4.443   3.786   6.236 -0.2126  0.5033 -0.3171
  192SLPC  H14B22190   4.362   3.660   6.340 -1.6895  0.3663  1.4590
  192SLPC  H14C22191   4.271   3.796   6.280  0.3038 -0.5001 -0.9664
  192SLPC   C1522192   4.447   3.978   6.373 -0.2995 -0.2955 -0.1784
  192SLPC  H15A22193   4.356   4.020   6.332 -0.3286 -1.1364 -0.9896
  192SLPC  H15B22194   4.479   4.047   6.450 -0.2928  2.0727 -2.1952
  192SLPC  H15C22195   4.509   3.973   6.285  0.1944  0.6743  0.0995
  192SLPC   C1222196   4.296   3.863   6.541 -0.5367 -0.2708  0.5789
  192SLPC  H12A22197   4.218   3.922   6.494 -0.5989 -2.0430 -1.7630
  192SLPC  H12B22198   4.339   3.907   6.629  0.8688 -3.1770  1.4778
  192SLPC   C1122199   4.232   3.730   6.596  0.3364  0.2477  0.1410
  192SLPC  H11A22200   4.181   3.741   6.694  0.9140  3.1749  0.2046
  192SLPC  H11B22201   4.306   3.649   6.612 -0.0505 -0.5675 -1.9348
  192SLPC     P22202   4.013   3.747   6.438 -0.0943  0.0557  0.4310
  192SLPC   O1322203   4.065   3.853   6.350  0.3903  0.0937  0.2957
  192SLPC   O1422204   3.914   3.652   6.375  0.1600 -0.2044 -0.1849
  192SLPC   O1222205   4.134   3.673   6.504 -0.4920 -0.0179  0.3153
  192SLPC   O1122206   3.954   3.820   6.566  0.3553  0.2047  0.5226
  192SLPC    C122207   3.826   3.773   6.616 -0.0843  0.0621 -0.1401
  192SLPC    HA22208   3.743   3.818   6.558 -1.6068 -1.2878  0.9265
  192SLPC    HB22209   3.816   3.663   6.623 -2.7696  0.3401  2.2002
  192SLPC    C222210   3.787   3.813   6.763  0.3999  0.0719  0.2794
  192SLPC    HS22211   3.688   3.768   6.786 -0.5195  2.2421  0.8022
  192SLPC   O2122212   3.782   3.951   6.787 -0.0956  0.1368 -0.1231
  192SLPC   C2122213   3.685   4.021   6.736  0.4851  0.2943  1.0596
  192SLPC   O2222214   3.603   3.978   6.654  0.4711 -0.3061  0.9491
  192SLPC   C2222215   3.693   4.166   6.783 -0.0243 -0.5459 -0.0518
  192SLPC   H2R22216   3.777   4.214   6.730 -0.7564  1.2512  0.3569
  192SLPC   H2S22217   3.608   4.221   6.738  2.0305  0.9428 -2.3636
  192SLPC    C322218   3.897   3.760   6.856 -0.1950  0.2012 -0.1822
  192SLPC    HX22219   3.990   3.822   6.857  1.0184 -1.5326  0.0058
  192SLPC    HY22220   3.931   3.663   6.814  0.9344  0.9379 -1.0606
  192SLPC   O3122221   3.839   3.747   6.996 -0.5124  0.1192  0.4505
  192SLPC   C3122222   3.756   3.643   7.019  0.2433  0.0991  0.3080
  192SLPC   O3222223   3.734   3.548   6.941 -0.6502 -0.0837  0.5125
  192SLPC   C3222224   3.692   3.666   7.156  0.3230  0.6186 -0.2276
  192SLPC   H2X22225   3.635   3.761   7.151 -1.3892 -0.3935 -1.5137
  192SLPC   H2Y22226   3.773   3.669   7.232 -0.6755  1.5953  0.8454
  192SLPC   C2322227   3.721   4.182   6.937  0.0695  0.1129  0.4834
  192SLPC   H3R22228   3.703   4.290   6.957 -5.7372 -0.2486 -0.9264
  192SLPC   H3S22229   3.812   4.128   6.969 -0.8963 -1.3555  0.8253
  192SLPC   C2422230   3.617   4.109   7.023  0.8328 -0.1225  0.5904
  192SLPC   H4R22231   3.612   4.003   6.991  0.6674 -0.1923  0.8481
  192SLPC   H4S22232   3.510   4.138   7.014  0.7251 -0.5916  0.3597
  192SLPC   C2522233   3.663   4.099   7.176  0.0469 -0.6985 -0.1784
  192SLPC   H5R22234   3.692   4.201   7.209 -0.9873 -0.5757  0.3762
  192SLPC   H5S22235   3.753   4.034   7.181 -0.6352 -2.2352 -4.0979
  192SLPC   C2622236   3.570   4.038   7.282 -1.4792 -0.0910 -0.4222
  192SLPC   H6R22237   3.555   3.932   7.252 -2.1405 -1.3994  3.8260
  192SLPC   H6S22238   3.468   4.081   7.279 -1.9838 -0.9512  1.8594
  192SLPC   C2722239   3.633   4.037   7.427  0.0992 -0.2620  0.3995
  192SLPC   H7R22240   3.623   4.140   7.467 -0.2715 -1.0662  2.5415
  192SLPC   H7S22241   3.739   4.003   7.420 -0.3142 -1.4057 -0.8064
  192SLPC   C2822242   3.558   3.942   7.526  0.0171 -0.6427 -0.3977
  192SLPC   H8R22243   3.560   3.838   7.487 -1.7031 -0.4283 -1.1372
  192SLPC   H8S22244   3.452   3.972   7.516  0.0532 -1.1249 -2.7685
  192SLPC   C2922245   3.615   3.937   7.669  0.6984 -0.1402 -0.1137
  192SLPC   H9R22246   3.713   3.887   7.670  1.0220  0.4867  0.6179
  192SLPC  C21022247   3.567   4.005   7.772 -0.3386  0.2693 -0.0985
  192SLPC  H10R22248   3.621   4.013   7.867  1.4946  2.7835 -1.2521
  192SLPC  C21122249   3.441   4.090   7.779 -0.1168 -0.5330  0.3974
  192SLPC  H11R22250   3.386   4.070   7.874 -0.0470  2.2264  1.0936
  192SLPC  H11S22251   3.360   4.068   7.705 -1.8681  2.6544  1.1786
  192SLPC  C21222252   3.476   4.236   7.763  0.1490  0.7013 -0.1764
  192SLPC  H12R22253   3.571   4.254   7.712 -0.1662  1.5752 -0.4817
  192SLPC  C21322254   3.412   4.349   7.810  0.5656  0.6778  0.2860
  192SLPC  H13R22255   3.454   4.447   7.783  1.6899  0.3445  0.7752
  192SLPC  C21422256   3.275   4.342   7.877 -0.2185 -0.0608 -0.3043
  192SLPC  H14R22257   3.240   4.238   7.870  2.7387 -1.1809 -0.1303
  192SLPC  H14S22258   3.226   4.421   7.815  0.1953  1.1036  0.8088
  192SLPC  C21522259   3.293   4.387   8.027 -0.0335 -0.4922  0.2413
  192SLPC  H15R22260   3.308   4.497   8.026 -1.7929 -0.2309 -0.6598
  192SLPC  H15S22261   3.376   4.331   8.075  1.7206  1.0611 -0.8750
  192SLPC  C21622262   3.162   4.354   8.104 -0.0548  0.8735  0.2846
  192SLPC  H16R22263   3.139   4.245   8.099  0.5545  0.3403  4.8171
  192SLPC  H16S22264   3.085   4.414   8.051  1.5371 -0.0000 -3.2762
  192SLPC  C21722265   3.181   4.386   8.252 -0.6370 -0.1201 -0.3448
  192SLPC  H17R22266   3.254   4.314   8.295 -2.9912 -3.1412 -1.0458
  192SLPC  H17S22267   3.216   4.491   8.247 -1.6458  0.2772  0.6783
  192SLPC  C21822268   3.062   4.381   8.333  0.5415 -0.0651 -0.4292
  192SLPC  H18R22269   2.997   4.296   8.301 -0.6409  0.5817  0.1827
  192SLPC  H18S22270   3.009   4.478   8.319  2.0128  0.6997 -0.9648
  192SLPC  H18T22271   3.079   4.364   8.441  2.0225  0.1932 -0.5948
  192SLPC   C3322272   3.595   3.549   7.198 -0.2234 -0.1445 -0.3950
  192SLPC   H3X22273   3.643   3.449   7.204  1.1759  0.4277 -1.3316
  192SLPC   H3Y22274   3.514   3.528   7.125 -0.6531 -0.5188  0.1901
  192SLPC   C3422275   3.532   3.570   7.340  0.0816  0.3145  0.3230
  192SLPC   H4X22276   3.460   3.486   7.333 -1.1923  1.2936  1.2850
  192SLPC   H4Y22277   3.467   3.654   7.374  0.0472  0.1629  0.6371
  192SLPC   C3522278   3.633   3.532   7.451  0.0427 -0.3969 -0.6030
  192SLPC   H5X22279   3.699   3.619   7.471  0.8140 -1.3025  0.9124
  192SLPC   H5Y22280   3.706   3.454   7.422  1.7603  0.2790  1.6170
  192SLPC   C3622281   3.557   3.481   7.577 -0.3279  0.1446  0.6186
  192SLPC   H6X22282   3.496   3.391   7.553 -0.0806 -0.0223  0.6164
  192SLPC   H6Y22283   3.487   3.558   7.616 -1.2968 -1.4502  2.1250
  192SLPC   C3722284   3.660   3.453   7.692 -0.0789 -0.2003  0.1439
  192SLPC   H7X22285   3.716   3.549   7.700 -2.1782  0.9471  3.7950
  192SLPC   H7Y22286   3.729   3.378   7.650  1.4087  1.9643 -1.4826
  192SLPC   C3822287   3.582   3.413   7.820  0.0972  0.5347 -0.7537
  192SLPC   H8X22288   3.655   3.360   7.884 -1.8267 -0.9148  0.3560
  192SLPC   H8Y22289   3.506   3.338   7.789 -1.3079  2.8055 -3.2382
  192SLPC   C3922290   3.521   3.526   7.910  0.0644  0.2694  0.3444
  192SLPC   H9X22291   3.459   3.594   7.848 -0.8646 -0.1585  0.7757
  192SLPC   H9Y22292   3.598   3.592   7.956 -0.3933  1.4181 -0.4888
  192SLPC  C31022293   3.431   3.470   8.020  0.4780 -0.5712  0.6666
  192SLPC  H10X22294   3.361   3.398   7.971  2.8265 -0.5829 -3.0770
  192SLPC  H10Y22295   3.379   3.550   8.076  1.5740  0.7686 -0.1947
  192SLPC  C31122296   3.508   3.394   8.127  0.1552  0.6556  1.0922
  192SLPC  H11X22297   3.594   3.445   8.176  0.5303  0.9566  0.1453
  192SLPC  H11Y22298   3.556   3.308   8.074  3.5593  2.0125  1.6877
  192SLPC  C31222299   3.418   3.343   8.235 -0.0012  0.0060 -0.3873
  192SLPC  H12X22300   3.331   3.299   8.182 -1.3123 -0.2805  1.9012
  192SLPC  H12Y22301   3.374   3.426   8.293 -1.7158 -0.0206 -1.5745
  192SLPC  C31322302   3.469   3.235   8.330  0.5170 -0.2718  0.5899
  192SLPC  H13X22303   3.537   3.284   8.404  0.2733  0.2685  0.4593
  192SLPC  H13Y22304   3.524   3.158   8.271  2.2113  2.2980 -1.4315
  192SLPC  C31422305   3.352   3.177   8.413 -0.1529 -0.4697  1.1235
  192SLPC  H14X22306   3.392   3.096   8.478  1.4319 -0.8548 -0.2572
  192SLPC  H14Y22307   3.287   3.133   8.334  2.5610 -1.7592 -0.5440
  192SLPC  C31522308   3.267   3.274   8.491  0.1569 -0.7370 -0.6797
  192SLPC  H15X22309   3.178   3.222   8.531  0.9766 -0.7294  1.3167
  192SLPC  H15Y22310   3.232   3.358   8.427 -0.4465 -0.2441  0.2764
  192SLPC  C31622311   3.335   3.340   8.617  0.1241  0.4517 -0.6160
  192SLPC  H16X22312   3.441   3.348   8.584  0.8659 -1.4685  1.0350
  192SLPC  H16Y22313   3.324   3.270   8.703 -0.3754 -0.5478 -1.4603
  192SLPC  C31722314   3.280   3.472   8.662 -0.6433  0.1654 -1.2817
  192SLPC  H17X22315   3.291   3.553   8.586 -1.2851  2.5341  0.9861
  192SLPC  H17Y22316   3.344   3.513   8.743 -1.5337 -1.3846  0.2674
  192SLPC  C31822317   3.141   3.476   8.705  0.3056  0.0996  0.4439
  192SLPC  H18X22318   3.082   3.442   8.617  0.6453 -0.7256  0.5265
  192SLPC  H18Y22319   3.102   3.575   8.737 -1.1185 -0.5016  0.6652
  192SLPC  H18Z22320   3.112   3.409   8.789  0.0288  2.1638  2.0721
  193SOD    SOD22321   2.597   5.448  15.245 -0.0117  0.2994 -0.2394
  194SOD    SOD22322   4.791   6.418   6.732 -0.4201  0.3058  0.1526
  195SOD    SOD22323   3.363   4.375  14.822  0.3718 -0.3114 -0.4231
  196SOD    SOD22324   1.334   5.916  12.036 -0.6522 -0.4183 -0.2806
  197SOD    SOD22325   3.340   0.804   2.833  0.0649  0.3780  0.0131
  198SOD    SOD22326   5.728   0.545  13.227 -0.8137 -0.2573  0.2152
  199SOD    SOD22327   2.955   1.389  11.809 -0.7953  0.3059 -0.2178
  200SOD    SOD22328   1.821   0.411  16.736  0.3920  0.5971  0.4866
  201SOD    SOD22329   2.249   6.763  11.496  0.0488 -0.2550 -0.1953
  202SOD    SOD22330   6.027   2.953   1.946 -0.7811  0.2049 -0.1820
  203SOD    SOD22331   2.067   1.474   5.468  0.1506 -0.2581 -0.3669
  204SOD    SOD22332   6.180   4.970   0.763 -0.0343 -0.1159  0.1809
  205SOD    SOD22333   0.301   1.098  13.463 -0.4842 -0.1633  0.3981
  206SOD    SOD22334   1.942   1.553   2.361 -0.0220  0.2368  0.4264
  207SOD    SOD22335   4.639   0.631   2.865 -0.5675  0.0053 -0.1869
  208SOD    SOD22336   4.204   3.841   1.937  0.3643  0.3422  0.1368
  209SOD    SOD22337   6.574   3.543  11.581  0.1535 -0.4242 -0.9449
  210SOD    SOD22338   4.859   0.053  12.773  0.5214 -0.0374  0.0789
  211SOD    SOD22339   0.635   4.481   4.171 -0.4045  0.4460  0.3156
  212SOD    SOD22340   5.046   5.542  11.770  0.3434 -0.1344  0.2060
  213SOD    SOD22341   5.696   5.463   4.124 -0.0094  0.4078 -0.2835
  214SOD    SOD22342   3.193   3.914   2.981 -0.3879  0.7696  0.1434
  215SOD    SOD22343   5.099   0.228   2.228 -0.5331  0.5915 -0.1509
  216SOD    SOD22344   1.773   4.619   1.181 -0.2211  0.0272  0.2464
  217SOD    SOD22345   0.712   2.105  11.052  0.4733  0.1415  0.0544
  218SOD    SOD22346   3.711   4.037   6.213 -0.5870 -0.1234 -0.0162
  219SOD    SOD22347   5.027   2.370  10.446  0.1542  0.0236  0.4631
  220SOD    SOD22348   4.494   1.819   5.527 -0.2941 -0.0473  0.7194
  221SOD    SOD22349   5.981   5.066  17.080 -0.1394  0.0828 -0.3460
  222SOD    SOD22350   2.305   3.136  13.895 -0.1953 -0.1807  0.1142
  223SOD    SOD22351   2.272   3.786   5.589 -0.0721 -0.0671  0.3501
  224SOD    SOD22352   0.758   4.056  14.851  0.2533  0.0474  0.2655
  225SOD    SOD22353   2.899   0.581  11.187  0.1323 -1.1590  0.2850
  226SOD    SOD22354   5.217   2.656  15.250 -0.1411 -0.2600  0.5597
  227SOD    SOD22355   0.187   1.660  16.901  0.0644  0.0600 -0.2983
  228SOD    SOD22356   1.005   1.447   0.097  0.3874  0.5846  0.0196
  229SOD    SOD22357   4.977   3.091   6.004  0.2003  0.1153 -0.0166
  230SOD    SOD22358   3.399   6.093  13.728  0.1943 -0.1192  0.1333
  231SOD    SOD22359   2.334   1.359  10.252 -0.2295  0.3244  0.1676
  232SOD    SOD22360   6.203   2.060   3.591  0.1402 -0.1884 -0.2799
  233SOD    SOD22361   2.136   4.163  14.774  0.3377  0.1101 -0.2901
  234SOD    SOD22362   2.935   4.497  16.364  0.8888  0.0006 -0.0847
  235SOD    SOD22363   6.284   4.264  14.478  0.1787 -0.0671 -0.6868
  236SOD    SOD22364   2.105   3.574  12.509  0.2086 -0.1332  0.5595
  237SOD    SOD22365   6.664   2.981  12.520 -0.1288  0.0877  0.1661
  238SOD    SOD22366   0.718   0.914  14.521  0.0077 -0.2337 -0.0320
  239SOD    SOD22367   4.221   0.676  11.302  0.1566  0.2042  0.0034
  240SOD    SOD22368   4.169   5.835  11.548 -0.0644 -0.2407  0.5813
  241SOD    SOD22369   3.646   1.980   5.194 -0.0826  0.1336 -0.1921
  242SOD    SOD22370   1.844   6.181   6.088  0.1105 -0.2673 -0.1895
  243SOD    SOD22371   2.866   2.310   5.073  0.3784 -0.4189 -0.2099
  244SOD    SOD22372   2.901   2.496  10.886  0.8182 -0.2445  0.0483
  245SOD    SOD22373   1.737   2.956   5.456  0.1043 -0.0597  0.3950
  246SOD    SOD22374   5.923   3.776   4.718  0.7085 -0.7605  0.0926
  247SOD    SOD22375   3.341   5.866   2.816  0.4900  0.0318  0.4547
  248SOD    SOD22376   1.614   6.335   3.308 -0.6828 -0.1681  0.4929
  249SOD    SOD22377   4.027   5.554  17.146  0.4769 -0.4873 -0.2414
  250SOD    SOD22378   4.843   2.883   2.253 -0.3513 -0.4689  0.0775
  251SOD    SOD22379   0.567   1.421   5.488  0.3585 -0.4357 -0.4535
  252SOD    SOD22380   2.764   1.018  13.213  0.1286  0.0711 -0.4275
  253SOD    SOD22381   3.441   2.763   5.610 -0.0936 -0.0785 -0.0689
  254SOD    SOD22382   3.772   6.717   1.839 -0.1218  0.4804 -0.0759
  255SOD    SOD22383   5.412   1.617   3.983  0.2496 -0.5572 -0.1824
  256SOD    SOD22384   0.437   0.178   4.193  0.2560  1.0555  0.1163
  257SOD    SOD22385   3.212   4.537   1.754  0.0107  0.0589  0.0603
  258SOD    SOD22386   4.123   1.502  13.648  0.3948 -0.0274 -0.3264
  259SOD    SOD22387   5.184   2.583  16.385 -0.3364 -0.4048 -0.6239
  260SOD    SOD22388   5.012   6.793  16.395  0.5650 -0.1688 -0.5363
  261SOD    SOD22389   3.825   6.626   5.488  0.1316  0.6790 -0.1679
  262SOD    SOD22390   6.206   3.569   6.119  0.5157  0.0477  0.2801
  263SOD    SOD22391   2.744   1.002  12.324  0.0954  0.0094 -0.4860
  264SOD    SOD22392   5.572   5.961   1.226 -0.4310 -0.4551  0.0142
  265SOD    SOD22393   1.290   0.594  14.684 -0.1463 -0.1504  0.1577
  266CLA    CLA22394   1.763   5.554   1.566  0.1987 -0.0839  0.1342
  267CLA    CLA22395   2.364   5.979   5.187 -0.2096 -0.0636  0.1457
  268CLA    CLA22396   6.737   4.259   2.382 -0.2045  0.0544 -0.1267
  269CLA    CLA22397   5.045   1.232  14.161  0.1564  0.3706  0.1776
  270CLA    CLA22398   2.859   0.921  11.651  0.0628 -0.4530 -0.3217
  271CLA    CLA22399   3.610   0.910   2.235 -0.0692 -0.1246  0.4883
  272CLA    CLA22400   2.485   1.522   2.854 -0.2716  0.0724 -0.4695
  273CLA    CLA22401   2.086   3.670  14.513 -0.1409 -0.0441  0.2110
  274CLA    CLA22402   3.131   5.598  14.493  0.2984 -0.1209  0.0385
  275CLA    CLA22403   0.893   2.338  14.329  0.0827  0.2622 -0.0557
  276CLA    CLA22404   0.613   4.832  16.186  0.0150  0.0205  0.3024
  277CLA    CLA22405   4.723   0.811  12.920 -0.0781  0.2557 -0.2463
  278CLA    CLA22406   4.129   5.850   3.272  0.7451  0.1833 -0.3718
  279CLA    CLA22407   3.144   1.806  16.305 -0.0587  0.1680 -0.2420
  280CLA    CLA22408   3.362   6.220   1.206 -0.0188 -0.1544 -0.2483
  281CLA    CLA22409   5.430   4.482   1.035  0.5556  0.4192 -0.2012
  282CLA    CLA22410   0.095   4.059   4.210  0.1196  0.2717 -0.3409
  283CLA    CLA22411   0.630   1.690  16.646  0.4750 -0.3431 -0.0350
  284CLA    CLA22412   3.554   2.825   4.018  0.1434  0.1028 -0.1056
  285CLA    CLA22413   6.796   5.060  16.625  0.2425 -0.2106  0.3914
  286CLA    CLA22414   5.124   2.741  17.056 -0.2188 -0.0395 -0.3955
  287CLA    CLA22415   0.821   3.014  13.354  0.2396  0.2628  0.5333
  288CLA    CLA22416   4.086   0.848  12.711 -0.0661 -0.2786  0.2561
  289CLA    CLA22417   1.828   4.372   0.374  0.0310 -0.2095  0.1584
  290CLA    CLA22418   3.430   4.807  15.292 -0.3852  0.3993  0.1069
  291CLA    CLA22419   5.838   4.170   4.883 -0.2781  0.1684  0.4732
  292CLA    CLA22420   1.600   1.200  12.597  0.0632 -0.2020 -0.7400
  293CLA    CLA22421   1.475   0.842  16.754 -0.1113 -0.3344  0.2090
  294CLA    CLA22422   2.828   3.845   3.618  0.0072  0.5780  0.3479
  295CLA    CLA22423   2.887   0.870   5.628 -0.1114 -0.1374  0.0451
  296CLA    CLA22424   5.176   5.427   0.497 -0.0816 -0.1313  0.3022
  297CLA    CLA22425   5.302   5.016   3.730 -0.3003 -0.2458 -0.2148
  298CLA    CLA22426   5.628   3.484  12.566 -0.4013 -0.1315  0.2103
  299CLA    CLA22427   3.922   4.183  13.105  0.2674  0.3305  0.0243
  300CLA    CLA22428   1.301   5.277   2.719  0.4575 -0.0666 -0.2177
  301CLA    CLA22429   4.577   3.615   4.478 -0.0289  0.3653 -0.1509
  302CLA    CLA22430   2.651   1.765  11.103  0.1331  0.1138 -0.0021
  303CLA    CLA22431   2.073   6.710   1.481  0.3171 -0.1655 -0.0582
  304CLA    CLA22432   0.779   5.306  14.947  0.4018  0.0087  0.1814
  305CLA    CLA22433   6.165   2.704   4.764  0.0499  0.5963 -0.3317
  306CLA    CLA22434   1.680   5.923  13.750  0.3085  0.2225  0.1668
  307CLA    CLA22435   1.235   1.799  13.008  0.2534  0.0782  0.3788
  308CLA    CLA22436   5.870   1.229  13.441 -0.0687  0.2004  0.2228
  309CLA    CLA22437   5.352   1.557  15.107  0.2222 -0.0184  0.3422
  310CLA    CLA22438   1.617   3.227   2.940  0.1981  0.2689 -0.0215
  311CLA    CLA22439   1.506   6.798  12.833 -0.2938  0.3342  0.2364
  312CLA    CLA22440   6.159   2.343   5.256  0.0111  0.0327 -0.2824
  313CLA    CLA22441   5.658   5.884   3.787 -0.1624 -0.2203 -0.2403
  314CLA    CLA22442   6.028   6.778  15.340  0.1638 -0.1695 -0.3142
  315CLA    CLA22443   2.601   0.685   4.012 -0.6426 -0.4274  0.0836
  316CLA    CLA22444   3.003   3.675   0.303  0.0914 -0.3363  0.2319
  317CLA    CLA22445   4.210   2.328   4.986  0.2425  0.1314 -0.1693
  318CLA    CLA22446   3.968   5.728  14.334  0.2427  0.3097  0.1264
  319TIP3   OH222447   2.921   2.454  15.419  0.2675  0.3545  0.0435
  319TIP3    H122448   2.913   2.363  15.392  1.6511  0.4909 -0.9493
  319TIP3    H222449   2.850   2.499  15.373 -0.6221 -0.2476  0.7898
  320TIP3   OH222450   1.580   5.068  13.445 -0.6945  0.3311 -0.0463
  320TIP3    H122451   1.551   5.059  13.354 -0.3268  1.5580 -0.3067
  320TIP3    H222452   1.507   5.111  13.489 -2.4614 -3.4511  1.1911
  321TIP3   OH222453   3.791   0.365   1.523 -0.1121 -0.1397 -0.1552
  321TIP3    H122454   3.840   0.286   1.498 -0.7887 -0.9159  0.8775
  321TIP3    H222455   3.858   0.433   1.531  0.5217 -0.6716 -0.7948
  322TIP3   OH222456   3.382   0.186   2.094  0.4015  0.5867 -0.3348
  322TIP3    H122457   3.358   0.191   2.002 -1.6281 -0.8864  0.0480
  322TIP3    H222458   3.318   0.240   2.139 -0.6416 -1.2461  0.4743
  323TIP3   OH222459   3.535   1.457  13.756  0.0340  0.6048  0.1211
  323TIP3    H122460   3.595   1.526  13.728  1.6605 -0.4326  0.9266
  323TIP3    H222461   3.468   1.454  13.687  1.0448  1.6205 -0.9418
  324TIP3   OH222462   2.110   4.831   4.634 -0.0147 -0.0344  0.1977
  324TIP3    H122463   2.069   4.777   4.566 -2.0271  0.2697  1.1227
  324TIP3    H222464   2.130   4.770   4.704  0.8541 -0.1195 -0.1083
  325TIP3   OH222465   0.951   3.529  16.231 -0.0772 -0.3432 -0.3838
  325TIP3    H122466   0.925   3.558  16.144  1.8569 -0.2418 -0.9797
  325TIP3    H222467   1.045   3.511  16.224  0.4320  0.9164  2.0085
  326TIP3   OH222468   2.985   3.863  15.492 -0.8321  0.5230  0.1489
  326TIP3    H122469   2.988   3.875  15.587 -0.2874  1.9555 -0.0311
  326TIP3    H222470   3.072   3.829  15.469 -1.4707 -1.3462  0.3187
  327TIP3   OH222471   4.054   5.155  15.909 -0.2662  0.1492  0.5361
  327TIP3    H122472   4.061   5.122  15.998 -0.3065  0.8829  0.8203
  327TIP3    H222473   3.983   5.105  15.870 -1.3572  0.9499  1.4397
  328TIP3   OH222474   1.490   2.018   1.021  0.1065 -0.2604  0.4157
  328TIP3    H122475   1.509   2.008   0.928  1.8743  1.4679  0.5318
  328TIP3    H222476   1.490   2.112   1.037 -0.9502 -0.4817  2.0323
  329TIP3   OH222477   5.685   4.424   4.328  0.5189  0.2157  0.0840
  329TIP3    H122478   5.734   4.349   4.362  0.3713  0.1634  0.1820
  329TIP3    H222479   5.594   4.404   4.348  0.5056  0.5597  0.3688
  330TIP3   OH222480   5.678   6.802   1.327  0.8199 -0.3062  0.2499
  330TIP3    H122481   5.756   6.747   1.335  1.3590  0.4883  0.7499
  330TIP3    H222482   5.712   6.886   1.295 -0.1967 -0.7605 -2.1690
  331TIP3   OH222483   5.410   2.012   1.026 -0.0771 -0.3901 -0.1116
  331TIP3    H122484   5.503   1.989   1.021  0.3484  0.8446  1.2825
  331TIP3    H222485   5.370   1.971   0.950  1.4958 -1.5111 -0.3618
  332TIP3   OH222486   3.665   1.055   0.960  0.4664 -0.6569  0.0663
  332TIP3    H122487   3.589   1.080   0.908  0.3988  0.9598  0.8914
  332TIP3    H222488   3.627   1.010   1.036  0.3576 -0.3412  0.2027
  333TIP3   OH222489   0.215   0.380  14.710 -0.0940  0.4488  0.0023
  333TIP3    H122490   0.150   0.379  14.780  0.3375  1.4685  0.4318
  333TIP3    H222491   0.166   0.406  14.631 -0.4841 -0.2295  0.0177
  334TIP3   OH222492   0.933   4.058   6.149 -0.4246 -0.1204 -0.6820
  334TIP3    H122493   0.856   4.110   6.127 -1.8307 -2.3747 -1.4049
  334TIP3    H222494   0.899   3.981   6.194  1.4436 -1.0190 -0.6967
  335TIP3   OH222495   5.723   6.291   2.739  0.6721 -0.1163 -0.3843
  335TIP3    H122496   5.742   6.343   2.661  0.6554  0.6675  0.1207
  335TIP3    H222497   5.708   6.202   2.706  0.0522  0.3279 -1.3434
  336TIP3   OH222498   4.097   0.663   3.506  0.1190 -0.2387 -0.3882
  336TIP3    H122499   4.151   0.631   3.578 -0.0187 -0.4972 -0.3992
  336TIP3    H222500   4.017   0.695   3.548  0.4178  0.4537 -0.3394
  337TIP3   OH222501   0.835   3.702   2.455  0.0723  0.0577  0.3710
  337TIP3    H122502   0.747   3.738   2.460 -0.6639 -1.7458  1.1925
  337TIP3    H222503   0.875   3.722   2.539  1.3634  2.9343 -0.8120
  338TIP3   OH222504   4.271   1.104   4.863  0.0840 -0.6977 -0.1456
  338TIP3    H122505   4.357   1.142   4.879  0.5168 -1.6500 -0.2034
  338TIP3    H222506   4.237   1.084   4.950 -0.1557 -0.1662 -0.1138
  339TIP3   OH222507   4.574   5.341  11.244  0.5771  0.8191 -0.3043
  339TIP3    H122508   4.482   5.361  11.225 -0.2709 -0.9130  1.5166
  339TIP3    H222509   4.571   5.293  11.327  2.9326 -0.9982 -1.1445
  340TIP3   OH222510   6.610   2.726   6.061  0.0881 -0.4813 -0.2467
  340TIP3    H122511   6.593   2.743   6.154  0.6158 -0.6036 -0.1261
  340TIP3    H222512   6.609   2.812   6.020 -0.5467 -0.4571 -0.2031
  341TIP3   OH222513   0.720   2.556   1.127  0.1306 -0.1723  0.1580
  341TIP3    H122514   0.647   2.524   1.180  0.4842  0.9527  1.3987
  341TIP3    H222515   0.679   2.597   1.051 -0.4106 -1.5338 -0.2963
  342TIP3   OH222516   0.188   0.742  13.721 -0.5650  0.5402 -0.0080
  342TIP3    H122517   0.230   0.692  13.651  1.1179  0.6168  0.8785
  342TIP3    H222518   0.131   0.680  13.765 -0.4368  0.0735 -0.4900
  343TIP3   OH222519   2.716   6.012   2.944  0.0263  0.3775  0.3149
  343TIP3    H122520   2.777   6.066   2.894 -0.9174  2.9746  1.7560
  343TIP3    H222521   2.722   6.046   3.033 -1.8220 -0.8715  0.9688
  344TIP3   OH222522   6.007   2.228   4.092  0.2242 -0.0526 -0.6285
  344TIP3    H122523   6.002   2.228   3.996 -0.7163  1.3664 -0.6104
  344TIP3    H222524   5.921   2.257   4.120  0.8175  0.5876  0.6161
  345TIP3   OH222525   4.768   5.563  12.037  0.2116 -0.0568  0.2771
  345TIP3    H122526   4.834   5.628  12.013 -0.0438  0.9064  2.0609
  345TIP3    H222527   4.798   5.528  12.120 -1.1584 -0.0929  0.7823
  346TIP3   OH222528   0.029   2.124  13.203 -0.2261 -0.0121  0.6744
  346TIP3    H122529   0.043   2.068  13.280  0.6751 -1.7940 -0.7065
  346TIP3    H222530   0.102   2.104  13.146 -0.7293  1.4879 -0.5455
  347TIP3   OH222531   3.039   4.457  10.828 -0.5142  0.1097  0.0517
  347TIP3    H122532   2.950   4.450  10.864  0.1877 -1.5273  1.6177
  347TIP3    H222533   3.080   4.525  10.882 -1.0550  1.5866 -1.3194
  348TIP3   OH222534   1.356   4.132   1.599 -0.3762  0.1048 -0.1364
  348TIP3    H122535   1.403   4.070   1.655 -0.2241 -0.2609 -0.6619
  348TIP3    H222536   1.406   4.213   1.607 -0.2082 -0.0183  0.0631
  349TIP3   OH222537   2.878   2.062  14.541  0.2575 -0.5119 -0.0626
  349TIP3    H122538   2.899   2.072  14.448  1.8401 -1.0245  0.2208
  349TIP3    H222539   2.928   2.130  14.585 -2.9717  1.9512  0.2008
  350TIP3   OH222540   4.279   2.990   1.349  0.0851  0.0063 -0.1276
  350TIP3    H122541   4.328   3.069   1.372 -1.5547  0.8414  0.6417
  350TIP3    H222542   4.327   2.953   1.275  1.3374  1.2811  0.0028
  351TIP3   OH222543   4.338   4.013  15.197  0.2249  0.0991 -0.8895
  351TIP3    H122544   4.293   4.097  15.191  0.3680  0.0890 -2.3287
  351TIP3    H222545   4.327   3.987  15.289  0.7880  1.9959 -0.2409
  352TIP3   OH222546   6.494   6.765   4.576 -0.4524  0.8121 -0.2214
  352TIP3    H122547   6.560   6.757   4.646  0.3084  0.2021 -0.9809
  352TIP3    H222548   6.410   6.769   4.622 -0.0200 -0.2910  0.7171
  353TIP3   OH222549   3.413   3.440  17.161 -0.3561 -0.5922 -0.1408
  353TIP3    H122550   3.391   3.494  17.086 -1.2395 -0.9489 -0.1583
  353TIP3    H222551   3.419   3.501  17.234  1.1399 -0.1599 -0.5943
  354TIP3   OH222552   2.949   2.066  15.882  0.4086 -0.6418 -0.4747
  354TIP3    H122553   3.013   2.059  15.811 -0.4118 -0.1863 -1.2818
  354TIP3    H222554   2.987   2.016  15.954  1.3313 -0.9850 -1.1854
  355TIP3   OH222555   4.875   0.288   2.274 -0.7225  0.1737  0.0466
  355TIP3    H122556   4.810   0.247   2.331  0.0711  0.1300  0.9391
  355TIP3    H222557   4.823   0.345   2.216 -1.6390 -0.5941  0.0829
  356TIP3   OH222558   1.304   3.132   4.573  0.1572  0.0480  0.4262
  356TIP3    H122559   1.228   3.075   4.567  0.2633 -0.2580  1.8263
  356TIP3    H222560   1.267   3.220   4.584 -0.0668 -0.3071  3.1562
  357TIP3   OH222561   3.274   4.807   2.813  0.2663  0.0307  0.1088
  357TIP3    H122562   3.269   4.728   2.867  1.0749  0.4858  0.8650
  357TIP3    H222563   3.337   4.785   2.744 -1.2300 -0.7725 -1.0822
  358TIP3   OH222564   6.409   6.298  16.302  0.1005 -0.5790 -0.1962
  358TIP3    H122565   6.346   6.342  16.246  0.0445  0.2298  0.4790
  358TIP3    H222566   6.493   6.341  16.283 -0.2526  1.1461  1.7505
  359TIP3   OH222567   3.757   2.515  15.999  0.1527 -0.2596  0.0656
  359TIP3    H122568   3.719   2.428  16.013 -3.0072  0.3805 -3.1426
  359TIP3    H222569   3.691   2.576  16.030  0.3484  0.9366 -1.7333
  360TIP3   OH222570   5.428   5.924   2.010 -0.1123  0.0362 -0.0807
  360TIP3    H122571   5.377   5.845   1.993  0.0182 -0.3668  1.2786
  360TIP3    H222572   5.393   5.989   1.950 -1.3734 -0.5876 -0.0512
  361TIP3   OH222573   0.168   5.659   0.701  0.5521 -0.3216  0.3710
  361TIP3    H122574   0.250   5.686   0.741  1.4064 -1.6677 -0.4116
  361TIP3    H222575   0.152   5.570   0.735  0.1364 -0.6069 -0.5390
  362TIP3   OH222576   5.098   3.466   0.058 -0.1842  0.6343  0.2016
  362TIP3    H122577   5.090   3.411   0.136  0.1498  0.0664 -0.1636
  362TIP3    H222578   5.068   3.411  -0.014 -0.8230  1.2768 -0.0300
  363TIP3   OH222579   5.878   4.795   4.668  0.3566  0.0312  0.1046
  363TIP3    H122580   5.916   4.756   4.747 -2.2414  0.9172  1.9616
  363TIP3    H222581   5.835   4.722   4.624 -1.0365  0.0212  1.3906
  364TIP3   OH222582   1.525   6.056  15.867 -0.1382 -0.1288  0.9307
  364TIP3    H122583   1.557   6.122  15.805  1.1807 -0.5349  1.1497
  364TIP3    H222584   1.461   6.006  15.817  0.9654 -0.5039 -0.1670
  365TIP3   OH222585   1.729   6.424   0.592 -0.4718  0.1884  0.1438
  365TIP3    H122586   1.678   6.424   0.511 -0.8954  0.5481  0.4043
  365TIP3    H222587   1.709   6.508   0.633 -0.0324  0.1298  0.4777
  366TIP3   OH222588   2.978   5.406  14.885  0.1414 -0.1868  0.0291
  366TIP3    H122589   3.028   5.403  14.967  0.0134  0.4960  0.1393
  366TIP3    H222590   2.920   5.482  14.896 -2.4635 -2.1674  0.7811
  367TIP3   OH222591   0.865   6.725   5.538 -0.5422 -0.1100 -0.0323
  367TIP3    H122592   0.785   6.675   5.551  0.0394 -0.8650  0.8095
  367TIP3    H222593   0.836   6.814   5.519 -1.6041 -0.7446 -1.5425
  368TIP3   OH222594   4.972   4.003   5.827 -0.2876 -0.6027 -0.3282
  368TIP3    H122595   4.955   3.941   5.898  0.3102 -0.4105 -0.0055
  368TIP3    H222596   5.004   3.949   5.755  0.9422 -0.6193  0.1957
  369TIP3   OH222597   4.863   3.495  13.534 -0.2736 -0.0195  0.6608
  369TIP3    H122598   4.780   3.516  13.491  0.6382  2.6068 -0.0118
  369TIP3    H222599   4.930   3.532  13.476  1.1629  0.9716  2.8304
  370TIP3   OH222600   4.757   5.446   1.979 -0.0852  0.6415  0.8578
  370TIP3    H122601   4.761   5.465   2.073  1.0199 -0.8215  1.1369
  370TIP3    H222602   4.803   5.520   1.938  0.4879  0.6960  1.5745
  371TIP3   OH222603   6.727   1.101   0.557  0.1548  0.3199  0.2500
  371TIP3    H122604   6.728   1.009   0.585  1.6976  0.1521 -0.2767
  371TIP3    H222605   6.774   1.147   0.626 -3.1549  1.2775  2.0866
  372TIP3   OH222606   0.201   5.952   6.239  0.4611 -0.6580 -0.2904
  372TIP3    H122607   0.239   5.905   6.165  1.0032  2.0396 -1.8435
  372TIP3    H222608   0.143   6.017   6.200  0.8163  0.9045  1.6295
  373TIP3   OH222609   6.063   5.579   2.632  0.1405  0.0299 -0.2040
  373TIP3    H122610   6.098   5.664   2.606 -0.9012  0.5472  0.0273
  373TIP3    H222611   5.968   5.588   2.623  0.0059 -1.0744 -0.0719
  374TIP3   OH222612   4.031   1.077   5.205 -0.0823  0.0220  0.2084
  374TIP3    H122613   4.048   0.997   5.155  0.7950  1.1821 -1.4413
  374TIP3    H222614   3.985   1.047   5.283  0.1080 -2.0728 -0.4242
  375TIP3   OH222615   0.061   5.091   1.719 -0.1249 -1.1355 -0.8797
  375TIP3    H122616   0.082   5.054   1.805  0.2297 -0.2456 -0.5708
  375TIP3    H222617   0.133   5.151   1.701 -2.0514  1.5742 -0.0591
  376TIP3   OH222618   1.267   2.934  15.640  0.6492 -0.3016  0.1020
  376TIP3    H122619   1.186   2.920  15.689  0.9813 -0.7391  0.5461
  376TIP3    H222620   1.241   2.987  15.565 -0.2877 -1.4913 -0.4604
  377TIP3   OH222621   0.404   3.577   1.322 -0.3005 -0.6579  0.6634
  377TIP3    H122622   0.340   3.648   1.334  0.9251  0.7230 -0.5725
  377TIP3    H222623   0.481   3.607   1.371  1.2290  0.3005 -2.1218
  378TIP3   OH222624   5.682   1.266   4.824 -0.2886 -0.0968 -0.5427
  378TIP3    H122625   5.593   1.279   4.858 -0.5656 -0.5410 -1.0891
  378TIP3    H222626   5.681   1.307   4.738  0.2659  0.5705 -0.2454
  379TIP3   OH222627   4.458   3.503   2.657 -0.7626 -0.2167 -0.1984
  379TIP3    H122628   4.542   3.485   2.616  0.4076  1.2487  1.3955
  379TIP3    H222629   4.453   3.441   2.730  0.1094  1.2079  1.1463
  380TIP3   OH222630   5.117   6.204  13.398  0.4145 -0.4467  1.0078
  380TIP3    H122631   5.149   6.294  13.407  0.2108 -0.4184  1.4683
  380TIP3    H222632   5.196   6.151  13.390  0.5289 -0.1813  0.2431
  381TIP3   OH222633   0.313   3.441  14.247  0.5347 -0.1726 -0.0857
  381TIP3    H122634   0.364   3.442  14.166  0.8454  0.6568  0.1117
  381TIP3    H222635   0.364   3.387  14.307  1.5371  1.1439  0.3120
  382TIP3   OH222636   4.845   1.268   2.112 -0.6739  0.1495  0.0739
  382TIP3    H122637   4.803   1.201   2.166 -0.1085  0.1884  0.5752
  382TIP3    H222638   4.922   1.294   2.162  0.4815 -0.6023 -1.2401
  383TIP3   OH222639   0.055   5.025   4.208  0.7207 -0.7386 -0.4698
  383TIP3    H122640   0.022   4.985   4.288 -0.9830 -1.6098 -1.5581
  383TIP3    H222641   0.150   5.020   4.216  0.5956 -0.7021  1.5272
  384TIP3   OH222642   4.027   6.651   5.366 -0.3391 -0.5165 -0.4088
  384TIP3    H122643   4.079   6.731   5.373 -0.6860 -0.3350  0.1135
  384TIP3    H222644   4.087   6.581   5.395  0.0414 -0.4898 -1.0934
  385TIP3   OH222645   2.103   3.877  16.355 -1.1343  0.3211  0.0179
  385TIP3    H122646   2.163   3.951  16.368  0.3119 -0.8201  0.2189
  385TIP3    H222647   2.079   3.850  16.444 -2.0622  0.8481 -0.0671
  386TIP3   OH222648   4.583   4.822  12.549  0.3704 -0.3113  0.0255
  386TIP3    H122649   4.664   4.823  12.499  0.3766 -1.9026 -0.0682
  386TIP3    H222650   4.592   4.746  12.607 -0.7329 -0.0588  0.5630
  387TIP3   OH222651   3.665   2.112  17.023  0.5870  0.4794  0.1175
  387TIP3    H122652   3.737   2.050  17.030  1.1036  1.0496 -0.1075
  387TIP3    H222653   3.595   2.063  16.979  1.7390  0.6691 -2.0907
  388TIP3   OH222654   2.973   0.744   5.361  0.5363  0.4070  0.4555
  388TIP3    H122655   2.946   0.791   5.440  0.5285  1.4063 -0.1154
  388TIP3    H222656   2.894   0.697   5.334  0.1064  1.2158  0.2562
  389TIP3   OH222657   5.455   5.982  16.384  0.3499 -0.5608 -0.5190
  389TIP3    H122658   5.503   6.020  16.311  2.3339 -0.3683  0.8120
  389TIP3    H222659   5.392   6.050  16.410  2.1770  0.9166  0.2676
  390TIP3   OH222660   1.251   5.428  17.052 -0.2038 -0.0609  0.0879
  390TIP3    H122661   1.246   5.391  16.964 -1.2031  1.5950 -0.5979
  390TIP3    H222662   1.161   5.451  17.074  0.2506  1.0761  0.8513
  391TIP3   OH222663   0.463   1.151   3.959  0.4875 -0.0010  0.3852
  391TIP3    H122664   0.372   1.124   3.947 -1.1420  3.8121  2.4300
  391TIP3    H222665   0.481   1.134   4.051  1.8617 -0.5522  0.0381
  392TIP3   OH222666   6.089   0.481  13.562 -0.3139 -0.6000  0.0636
  392TIP3    H122667   6.154   0.419  13.529 -0.7944 -1.2879  0.3746
  392TIP3    H222668   6.134   0.565  13.564  0.5543 -1.0608  0.2483
  393TIP3   OH222669   2.294   4.114  14.942  0.1666  0.7869  0.1542
  393TIP3    H122670   2.366   4.164  14.980  0.8239  1.1873 -1.5480
  393TIP3    H222671   2.324   4.024  14.943  0.0893  0.7637  0.7604
  394TIP3   OH222672   3.346   4.066  14.530  0.1550  0.0651 -0.0493
  394TIP3    H122673   3.330   3.980  14.571  1.5919 -1.7994 -3.0554
  394TIP3    H222674   3.286   4.069  14.456  2.0534  0.3368 -1.6502
  395TIP3   OH222675   2.536   4.070  16.404  0.0255  0.1194 -0.2871
  395TIP3    H122676   2.551   4.033  16.317  0.8516  0.4795 -0.3051
  395TIP3    H222677   2.581   4.011  16.464  1.3905  1.0829 -0.3203
  396TIP3   OH222678   2.417   6.573  17.183  0.0382  0.4567  0.2235
  396TIP3    H122679   2.343   6.601  17.130  0.1475 -0.8729 -0.6773
  396TIP3    H222680   2.432   6.646  17.243 -0.3400  1.8593 -1.2988
  397TIP3   OH222681   5.401   3.999   1.493 -0.9500 -0.2947  0.5145
  397TIP3    H122682   5.484   4.037   1.463  0.0288 -2.2657  0.6022
  397TIP3    H222683   5.398   4.018   1.587  0.7040 -2.3760  1.0599
  398TIP3   OH222684   2.276   0.185   5.063  0.7562 -0.2272  0.3025
  398TIP3    H122685   2.280   0.197   5.157  0.5447  0.5047  0.2198
  398TIP3    H222686   2.365   0.162   5.037  0.7323 -0.8124  0.7265
  399TIP3   OH222687   0.586   1.507  14.057  0.1453 -0.2924 -0.2550
  399TIP3    H122688   0.676   1.493  14.084  0.4102 -0.0776 -1.0030
  399TIP3    H222689   0.568   1.599  14.080  1.0133  0.5001 -2.5194
  400TIP3   OH222690   4.703   3.697  13.173  0.1637 -0.1629 -0.4736
  400TIP3    H122691   4.685   3.664  13.261 -1.6284  2.8790  0.4450
  400TIP3    H222692   4.619   3.731  13.143  0.3457 -2.2935 -4.0358
  401TIP3   OH222693   2.115   4.221  16.585 -0.3120 -0.0285 -0.2693
  401TIP3    H122694   2.120   4.315  16.569  2.8259  0.1906  1.1806
  401TIP3    H222695   2.186   4.184  16.533  0.9457 -1.0111  1.9996
  402TIP3   OH222696   3.644   4.956   3.798 -0.3515 -0.3416  0.1437
  402TIP3    H122697   3.674   4.915   3.717 -1.6393  1.2966 -1.2336
  402TIP3    H222698   3.721   4.998   3.834 -0.0733  0.2169 -1.0689
  403TIP3   OH222699   1.458   2.816  15.472  0.1447 -0.0091  0.2322
  403TIP3    H122700   1.393   2.777  15.413 -0.1005 -0.5075  0.8188
  403TIP3    H222701   1.406   2.848  15.546  0.5923 -0.7797  0.9028
  404TIP3   OH222702   1.442   5.268  15.805  0.0684  0.9308 -0.0664
  404TIP3    H122703   1.421   5.360  15.794 -2.2234  0.3262 -1.6240
  404TIP3    H222704   1.483   5.243  15.722  0.2583  0.4606  0.1639
  405TIP3   OH222705   1.014   1.091  15.343 -0.4108  0.1210 -0.5463
  405TIP3    H122706   0.954   1.164  15.324 -0.4395  0.9559  2.3375
  405TIP3    H222707   0.965   1.034  15.402  1.2317  0.3315  1.1156
  406TIP3   OH222708   3.013   4.283   6.217  0.3829  0.4066  0.3444
  406TIP3    H122709   3.103   4.313   6.204 -1.1348  4.6164 -2.4603
  406TIP3    H222710   2.990   4.317   6.304  0.5481  2.4188 -0.3447
  407TIP3   OH222711   2.915   5.139  14.734  0.4009  0.3586 -0.7321
  407TIP3    H122712   2.970   5.212  14.704  1.2511 -0.2391 -0.6399
  407TIP3    H222713   2.834   5.182  14.763 -0.5016  1.0213 -3.7678
  408TIP3   OH222714   4.469   3.512   5.294 -0.2774  0.0684  0.3007
  408TIP3    H122715   4.455   3.555   5.379  1.2171  0.8499  0.1946
  408TIP3    H222716   4.386   3.524   5.248 -0.5719  1.1020  1.0418
  409TIP3   OH222717   5.513   2.804  14.114  0.3297  0.1633 -0.4592
  409TIP3    H122718   5.443   2.869  14.121 -0.4795 -0.6011 -1.3052
  409TIP3    H222719   5.530   2.797  14.020  1.6269  0.4011 -0.2694
  410TIP3   OH222720   5.905   5.396  13.356 -0.2018  0.0611  0.0780
  410TIP3    H122721   5.987   5.358  13.387  1.2431  2.2810 -0.7623
  410TIP3    H222722   5.882   5.345  13.279  0.0190 -0.9629  0.6637
  411TIP3   OH222723   5.647   1.003   5.781 -0.3292 -0.2823  0.1216
  411TIP3    H122724   5.718   0.941   5.798 -0.8953 -0.6075  1.3947
  411TIP3    H222725   5.568   0.958   5.808 -1.2347 -0.3973 -2.4517
  412TIP3   OH222726   5.805   1.835   3.445 -0.1342  0.3483  0.4812
  412TIP3    H122727   5.776   1.917   3.406 -0.1030 -0.1649 -0.6675
  412TIP3    H222728   5.885   1.812   3.397 -1.2609 -1.3979 -0.7094
  413TIP3   OH222729   3.131   6.374   0.671  0.1325 -0.1536  0.2509
  413TIP3    H122730   3.072   6.305   0.639 -1.3376  1.0300  0.2809
  413TIP3    H222731   3.185   6.330   0.737 -0.5905 -1.3339  0.1049
  414TIP3   OH222732   6.071   2.077  10.667 -0.2896 -0.1495  0.8697
  414TIP3    H122733   6.011   2.032  10.727 -1.6411  0.7023  0.1997
  414TIP3    H222734   6.047   2.043  10.581 -1.2343  1.7039  0.3654
  415TIP3   OH222735   2.623   4.107  11.508  0.1713  0.0137 -0.0593
  415TIP3    H122736   2.549   4.055  11.478  0.0839 -0.3942  0.8404
  415TIP3    H222737   2.584   4.190  11.537 -0.1478 -0.7159  1.7357
  416TIP3   OH222738   0.961   3.359  11.579 -0.5218  0.3973  0.1098
  416TIP3    H122739   0.978   3.278  11.627  2.6251  1.7367  1.5152
  416TIP3    H222740   0.921   3.418  11.644  0.8574  1.1931  0.2814
  417TIP3   OH222741   2.093   4.651  12.433 -0.0621 -0.0558  0.2981
  417TIP3    H122742   2.029   4.604  12.380 -0.2141  0.6726 -0.1772
  417TIP3    H222743   2.120   4.725  12.378  0.6894  0.0201  0.7539
  418TIP3   OH222744   3.805   1.929  15.736 -0.0685  0.3729 -0.5625
  418TIP3    H122745   3.711   1.923  15.758 -0.3189 -0.8570 -1.8320
  418TIP3    H222746   3.806   1.966  15.648  0.4522 -2.1085 -1.6763
  419TIP3   OH222747   1.210   0.395   2.579 -0.0082 -0.3688  0.4082
  419TIP3    H122748   1.177   0.456   2.645 -2.5960  1.3787 -2.2421
  419TIP3    H222749   1.165   0.421   2.499  2.4120 -2.8219 -1.9232
  420TIP3   OH222750   1.801   2.154   4.642  0.4217 -0.3224 -0.5436
  420TIP3    H122751   1.708   2.134   4.636  0.5889 -1.0065 -0.8730
  420TIP3    H222752   1.804   2.250   4.646 -0.3901 -0.3355  1.2453
  421TIP3   OH222753   3.222   3.840  12.826 -0.1648  0.0868  0.1314
  421TIP3    H122754   3.212   3.920  12.774  1.4053  0.4583  0.3559
  421TIP3    H222755   3.133   3.808  12.838 -0.7749  1.4867 -0.4643
  422TIP3   OH222756   0.096   4.831  15.898  0.5090 -0.0600  0.2215
  422TIP3    H122757   0.118   4.904  15.955  0.2140 -0.4831  0.8964
  422TIP3    H222758   0.019   4.861  15.850  0.2012 -0.0275  0.7187
  423TIP3   OH222759   1.222   6.167   3.237 -0.2217 -0.2810 -0.5082
  423TIP3    H122760   1.245   6.090   3.288  0.8087 -0.8704 -1.7932
  423TIP3    H222761   1.157   6.136   3.174  0.4019 -0.1883 -1.2159
  424TIP3   OH222762   1.450   6.796  11.787 -0.2684 -0.2469  0.1171
  424TIP3    H122763   1.482   6.865  11.729 -1.0262 -1.2496 -1.5837
  424TIP3    H222764   1.412   6.843  11.861 -2.2037  1.2982 -1.7168
  425TIP3   OH222765   0.302   1.614   3.306  0.1462 -0.0604 -0.0269
  425TIP3    H122766   0.258   1.581   3.228  0.7086  0.8790 -0.7692
  425TIP3    H222767   0.327   1.704   3.283  1.7179 -0.2900  0.6406
  426TIP3   OH222768   0.489   1.277  15.218 -0.0016  0.1326  0.3047
  426TIP3    H122769   0.565   1.241  15.264  0.8771  0.1584 -1.0646
  426TIP3    H222770   0.484   1.368  15.248  0.7900  0.2556  0.0997
  427TIP3   OH222771   2.405   4.923  15.572  0.3798 -1.0557  0.3264
  427TIP3    H122772   2.353   4.905  15.651  2.4533 -2.8779  1.3664
  427TIP3    H222773   2.407   4.840  15.525  0.1271 -0.2796 -1.1285
  428TIP3   OH222774   4.513   6.023   3.647  0.2226  0.2240  0.6952
  428TIP3    H122775   4.432   5.990   3.607  1.3165 -1.8505  0.0643
  428TIP3    H222776   4.489   6.039   3.739 -0.5417 -1.9135  0.9322
  429TIP3   OH222777   6.652   6.476  12.167  0.5424  0.2145 -0.1650
  429TIP3    H122778   6.601   6.447  12.092  1.1384 -1.3261 -0.0173
  429TIP3    H222779   6.656   6.571  12.158 -0.0646  0.1303 -1.6429
  430TIP3   OH222780   2.700   1.517  13.326 -0.1868  0.0788 -0.2043
  430TIP3    H122781   2.720   1.537  13.417  3.3847 -0.1023 -0.7893
  430TIP3    H222782   2.698   1.602  13.282  0.4997  0.0346 -0.3294
  431TIP3   OH222783   5.474   3.818   4.935 -0.2914 -0.0615  0.3563
  431TIP3    H122784   5.462   3.881   5.005  0.6912  1.1183 -0.5022
  431TIP3    H222785   5.447   3.864   4.856 -1.9312 -1.5566 -0.0194
  432TIP3   OH222786   1.974   2.372   6.138 -0.5259  0.1849 -0.6461
  432TIP3    H122787   2.043   2.341   6.197 -0.1827  1.7436 -0.1581
  432TIP3    H222788   1.919   2.296   6.122 -1.6242 -0.0089  3.0605
  433TIP3   OH222789   2.384   6.612   2.826 -0.2117 -0.3245  0.7643
  433TIP3    H122790   2.325   6.541   2.802 -0.3933 -0.2325  0.9403
  433TIP3    H222791   2.336   6.662   2.892 -0.2023  0.1351  0.4219
  434TIP3   OH222792   2.725   4.197   0.690  0.4661  0.0248 -0.0472
  434TIP3    H122793   2.693   4.130   0.629  0.1541 -0.2951  0.4664
  434TIP3    H222794   2.679   4.276   0.663 -0.1901 -0.2645  0.1994
  435TIP3   OH222795   2.592   4.095  12.867 -0.7125 -0.2700 -0.3161
  435TIP3    H122796   2.637   4.164  12.818 -0.2602  0.6171  1.2683
  435TIP3    H222797   2.619   4.014  12.824  2.0554  0.2491  0.2125
  436TIP3   OH222798   4.914   5.009   2.721  0.3184  0.2555  0.3202
  436TIP3    H122799   4.824   4.983   2.698  1.0044 -1.7486 -0.3309
  436TIP3    H222800   4.910   5.026   2.815 -0.8180  0.5988  0.2341
  437TIP3   OH222801   3.705   0.145   2.434 -0.0447 -0.1680 -0.4060
  437TIP3    H122802   3.627   0.149   2.489  0.4558 -0.3887  0.3258
  437TIP3    H222803   3.707   0.229   2.389  3.2001  3.2109  4.9880
  438TIP3   OH222804   4.011   3.704  11.332 -0.2977  0.5021  0.1616
  438TIP3    H122805   4.080   3.708  11.399  0.4614  1.9313 -0.6590
  438TIP3    H222806   4.043   3.760  11.261 -1.9084  0.4701 -0.6344
  439TIP3   OH222807   3.285   0.092   2.979 -0.5128  0.3246 -0.0440
  439TIP3    H122808   3.373   0.121   3.005 -1.1365  2.6521 -0.3156
  439TIP3    H222809   3.241   0.073   3.062  0.3224 -1.2781  0.0810
  440TIP3   OH222810   6.570   3.729  15.283  0.2843 -0.2451 -0.1878
  440TIP3    H122811   6.579   3.695  15.194 -0.1925  1.1040 -0.7749
  440TIP3    H222812   6.478   3.714  15.306  0.2531 -0.0166 -0.1624
  441TIP3   OH222813   5.497   2.110   3.866  0.2172 -0.4749 -0.6965
  441TIP3    H122814   5.516   2.204   3.872  1.1254 -0.6206 -1.1584
  441TIP3    H222815   5.460   2.088   3.951  2.2761 -0.1896  0.3443
  442TIP3   OH222816   4.616   0.791   5.359  0.3757  0.4845  0.0112
  442TIP3    H122817   4.688   0.738   5.325 -1.2803 -0.3102 -2.5171
  442TIP3    H222818   4.630   0.792   5.454  2.2667 -1.8100 -0.1446
  443TIP3   OH222819   2.947   3.932  13.015 -0.2060 -0.8274 -0.4046
  443TIP3    H122820   2.945   3.847  12.972 -0.0019 -0.2787 -1.5239
  443TIP3    H222821   2.969   3.994  12.946  0.9768 -0.0150  0.6547
  444TIP3   OH222822   6.599   2.784   1.991  0.1654  0.9028  0.5509
  444TIP3    H122823   6.670   2.744   1.942  0.8112  3.6573 -0.9535
  444TIP3    H222824   6.643   2.838   2.056 -0.6105  1.0794  0.9327
  445TIP3   OH222825   4.167   4.764   0.682 -0.1231 -0.1466  0.0799
  445TIP3    H122826   4.131   4.701   0.620  1.9332  0.5694 -1.9898
  445TIP3    H222827   4.252   4.726   0.708 -0.4473  0.1132  1.6300
  446TIP3   OH222828   2.553   3.499   3.978 -0.4758 -0.5803 -0.5147
  446TIP3    H122829   2.546   3.561   3.905 -2.5965 -0.1579 -0.0093
  446TIP3    H222830   2.465   3.495   4.015  0.2636 -1.7404  1.2593
  447TIP3   OH222831   4.833   1.676   0.853  0.1086  0.3087 -0.7346
  447TIP3    H122832   4.891   1.752   0.866  0.4105  0.1498 -1.1242
  447TIP3    H222833   4.811   1.679   0.760 -1.3576  0.9582 -0.3883
  448TIP3   OH222834   6.676   1.770  16.706  0.1714  0.3074  0.0867
  448TIP3    H122835   6.612   1.796  16.640  0.4728 -1.4521 -0.9742
  448TIP3    H222836   6.625   1.718  16.770  0.3748 -0.4688 -0.3647
  449TIP3   OH222837   4.583   1.592   5.089 -0.6586  0.6530  1.1476
  449TIP3    H122838   4.626   1.512   5.120  2.0935  1.6275  0.1833
  449TIP3    H222839   4.646   1.631   5.028 -2.2510  3.1329  0.9445
  450TIP3   OH222840   4.564   5.408  14.996  0.1465  0.4211  0.0156
  450TIP3    H122841   4.509   5.390  15.073 -1.8774 -1.4769 -1.7206
  450TIP3    H222842   4.521   5.481  14.953 -1.9170 -1.7516 -1.9339
  451TIP3   OH222843   0.988   5.894  13.376  0.5195  0.0640 -0.2391
  451TIP3    H122844   0.941   5.813  13.398  0.8449 -0.5610 -1.7199
  451TIP3    H222845   1.062   5.864  13.323  2.3402  1.0651  1.5800
  452TIP3   OH222846   5.695   4.120   4.611 -0.6841 -0.6324 -0.4021
  452TIP3    H122847   5.659   4.204   4.638 -2.2343 -1.5788  0.6807
  452TIP3    H222848   5.751   4.093   4.684 -1.3587 -1.1989 -0.0897
  453TIP3   OH222849   6.395   6.573  15.963  0.2255 -0.1340  0.5983
  453TIP3    H122850   6.355   6.569  15.877 -0.9889  0.7344  1.0937
  453TIP3    H222851   6.430   6.662  15.968 -0.7873  0.2372  1.4379
  454TIP3   OH222852   6.626   5.799   2.728  0.0996 -0.5012 -0.2032
  454TIP3    H122853   6.697   5.842   2.679 -1.0697  0.4333 -1.1384
  454TIP3    H222854   6.629   5.708   2.698  1.3346 -0.6490  0.2982
  455TIP3   OH222855   4.865   1.917   3.657 -0.4084  0.1625 -0.1019
  455TIP3    H122856   4.898   1.999   3.621  0.8334 -0.9269 -1.6111
  455TIP3    H222857   4.890   1.851   3.593  2.0592 -1.9746  2.7665
  456TIP3   OH222858   6.823   0.928  12.436  0.1097  0.1526 -0.2851
  456TIP3    H122859   6.775   1.010  12.428 -1.0884 -0.4206  0.6346
  456TIP3    H222860   6.756   0.860  12.422  0.7586 -0.6675  0.4491
  457TIP3   OH222861   3.975   4.039   3.478 -0.1163 -0.6437 -0.4156
  457TIP3    H122862   4.019   4.111   3.523  0.0220 -2.2519  2.2235
  457TIP3    H222863   3.883   4.048   3.502 -0.4658 -0.1623 -1.8412
  458TIP3   OH222864   5.036   4.319  14.872  0.5427  0.1048 -0.1160
  458TIP3    H122865   5.029   4.412  14.896  0.1328  0.1128 -0.2535
  458TIP3    H222866   5.030   4.272  14.955 -0.2860  0.1565 -0.1388
  459TIP3   OH222867   6.367   5.566   2.576  0.2932 -0.3672  0.1125
  459TIP3    H122868   6.355   5.545   2.669 -0.6588  0.0333  0.0808
  459TIP3    H222869   6.302   5.633   2.558  0.3380 -0.5935 -0.9046
  460TIP3   OH222870   5.394   4.268   4.116  0.1525 -0.1482  0.5254
  460TIP3    H122871   5.427   4.322   4.044 -1.2300  0.9587  0.6928
  460TIP3    H222872   5.394   4.326   4.192 -3.8138  0.5864  0.1842
  461TIP3   OH222873   5.765   3.493   2.691 -0.2640  0.6739  0.5670
  461TIP3    H122874   5.721   3.534   2.765 -2.9672 -0.0835 -0.5348
  461TIP3    H222875   5.828   3.433   2.731 -1.2191  0.7413  2.2363
  462TIP3   OH222876   0.224   4.115   1.439 -0.5047 -0.4109  0.2310
  462TIP3    H122877   0.182   4.181   1.385 -1.4404  1.7529  3.2938
  462TIP3    H222878   0.155   4.051   1.457 -0.1828 -1.1459 -1.0758
  463TIP3   OH222879   1.357   6.610   1.122 -0.3609  0.3554 -0.0108
  463TIP3    H122880   1.404   6.550   1.064  0.8448 -0.5564  1.8222
  463TIP3    H222881   1.425   6.663   1.162 -1.1897  1.0954  0.4484
  464TIP3   OH222882   4.275   2.726  14.700 -0.3013  0.9031  0.1454
  464TIP3    H122883   4.298   2.633  14.702 -2.6246  0.2416  2.2489
  464TIP3    H222884   4.352   2.769  14.664  1.3938 -1.6891  0.3746
  465TIP3   OH222885   5.154   3.750   3.284 -0.2364  0.5335  0.1576
  465TIP3    H122886   5.071   3.797   3.278  0.2656  1.6443  1.4542
  465TIP3    H222887   5.204   3.779   3.208 -1.5109 -1.2090 -1.4230
  466TIP3   OH222888   6.392   2.528  14.727  0.2490  0.4140 -0.1908
  466TIP3    H122889   6.310   2.479  14.726  0.1073  0.6522 -0.6722
  466TIP3    H222890   6.401   2.557  14.818 -0.7826  1.3318 -0.3472
  467TIP3   OH222891   1.045   6.709   1.456 -0.3958 -0.0810 -0.0281
  467TIP3    H122892   0.990   6.706   1.378  0.1070 -1.5301 -0.3510
  467TIP3    H222893   1.099   6.788   1.444  0.9483 -1.2199 -2.0460
  468TIP3   OH222894   5.196   0.553  15.906  0.1243  0.2156  0.1686
  468TIP3    H122895   5.103   0.574  15.913  0.6877  2.5443  1.5987
  468TIP3    H222896   5.202   0.500  15.827 -2.3282  0.6092 -0.3662
  469TIP3   OH222897   3.756   2.371  11.673 -0.3569  0.3655 -0.1356
  469TIP3    H122898   3.740   2.314  11.748 -1.6241  0.2970 -0.4475
  469TIP3    H222899   3.832   2.331  11.629 -0.9874 -0.8692 -0.1322
  470TIP3   OH222900   2.369   0.588  12.916  0.1451  0.0407  0.4036
  470TIP3    H122901   2.400   0.497  12.921  0.1383  0.0849  1.3545
  470TIP3    H222902   2.434   0.632  12.860  0.5189 -0.3955  0.4897
  471TIP3   OH222903   0.186   5.842   4.106 -0.1926 -0.1204 -0.3642
  471TIP3    H122904   0.100   5.851   4.148 -1.6795  2.1426 -3.4953
  471TIP3    H222905   0.241   5.908   4.149 -0.5820 -0.3155  0.4378
  472TIP3   OH222906   5.105   0.691  15.651  0.0920  0.1276 -0.1065
  472TIP3    H122907   5.112   0.596  15.654 -1.1960  0.0380  2.2347
  472TIP3    H222908   5.053   0.709  15.573  0.1986 -1.0799 -0.4767
  473TIP3   OH222909   0.634   3.631  15.527 -0.2611 -0.2453  0.1774
  473TIP3    H122910   0.562   3.591  15.479  0.3492 -0.7723 -0.3290
  473TIP3    H222911   0.639   3.721  15.494  0.8358 -0.9101 -1.5794
  474TIP3   OH222912   3.482   6.024  14.354 -0.4986 -0.7429  0.1745
  474TIP3    H122913   3.576   6.037  14.342 -0.9062  0.4901 -2.4079
  474TIP3    H222914   3.475   5.937  14.394  1.7025 -1.2914 -0.4757
  475TIP3   OH222915   6.405   0.178   5.230  0.2808  0.7173 -0.5029
  475TIP3    H122916   6.435   0.215   5.313  0.1036 -0.4209  0.0816
  475TIP3    H222917   6.401   0.084   5.245  1.3320  0.3748 -2.1588
  476TIP3   OH222918   2.743   5.593  14.899 -0.1083 -0.3575  0.5261
  476TIP3    H122919   2.655   5.581  14.934 -0.3543 -1.0084 -0.2953
  476TIP3    H222920   2.770   5.680  14.930 -0.9957 -0.1990  0.8634
  477TIP3   OH222921   6.396   4.908   0.017 -0.3542 -0.1567  0.4827
  477TIP3    H122922   6.434   4.931  -0.067 -0.6635 -0.0253  0.3782
  477TIP3    H222923   6.471   4.892   0.074 -0.1357  1.3430  0.6350
  478TIP3   OH222924   5.398   1.538   3.428  0.5721  0.1706  0.2088
  478TIP3    H122925   5.476   1.553   3.375  0.1838 -2.0030 -1.1065
  478TIP3    H222926   5.417   1.457   3.477 -0.0606  0.7710  1.5080
  479TIP3   OH222927   4.237   0.479  14.076 -0.2282 -0.4090 -0.4632
  479TIP3    H122928   4.207   0.390  14.094  0.3364 -0.5270 -0.0680
  479TIP3    H222929   4.162   0.523  14.037 -1.2909 -0.3771  1.5138
  480TIP3   OH222930   1.215   1.384   4.932  0.7110  0.4276 -0.0672
  480TIP3    H122931   1.144   1.439   4.966  0.7903  0.0787  0.6625
  480TIP3    H222932   1.178   1.296   4.930  1.1626  0.2204  0.4450
  481TIP3   OH222933   3.033   5.148  13.855 -0.2944  0.1648  0.2745
  481TIP3    H122934   3.098   5.183  13.794  1.0718 -0.4643  1.3151
  481TIP3    H222935   3.022   5.216  13.921  0.0040 -0.0989  0.5991
  482TIP3   OH222936   4.609   4.558  14.162 -0.1590 -0.2475 -0.2642
  482TIP3    H122937   4.701   4.531  14.160  0.0853  0.5808 -0.8541
  482TIP3    H222938   4.582   4.543  14.252  0.2523 -1.4753 -0.3309
  483TIP3   OH222939   2.880   4.695   3.198 -0.4417  0.0032 -0.0043
  483TIP3    H122940   2.917   4.779   3.172 -0.6097  0.4975  1.3044
  483TIP3    H222941   2.954   4.634   3.194 -0.7927 -0.3697 -3.2600
  484TIP3   OH222942   4.681   2.447   2.321  0.5978  0.1409  0.3026
  484TIP3    H122943   4.641   2.458   2.407  0.8376 -0.7667  0.5393
  484TIP3    H222944   4.652   2.361   2.292  0.5138  0.4443 -0.5370
  485TIP3   OH222945   0.997   3.004  12.240 -0.4806  0.3848  0.1020
  485TIP3    H122946   1.068   3.053  12.281 -1.1650  1.0990  0.4694
  485TIP3    H222947   0.924   3.012  12.301 -0.7725 -0.6421 -0.0960
  486TIP3   OH222948   1.904   3.543   3.892  0.8843 -0.2278  0.7193
  486TIP3    H122949   1.935   3.631   3.910 -0.9579  0.4216  0.9517
  486TIP3    H222950   1.939   3.522   3.805  1.7119  0.5444  0.8612
  487TIP3   OH222951   3.384   2.036  16.711  0.2121 -0.1983 -0.1920
  487TIP3    H122952   3.428   2.119  16.731 -2.1399  0.9079  0.8135
  487TIP3    H222953   3.426   1.972  16.769  1.3944  0.4630 -0.2721
  488TIP3   OH222954   0.010   4.954  11.457  0.5361  0.3136 -0.7049
  488TIP3    H122955   0.017   4.870  11.412  1.0991 -0.4445  0.7332
  488TIP3    H222956   0.037   4.935  11.547 -3.1504  1.1333  0.7295
  489TIP3   OH222957   6.262   3.423  13.431  0.6360 -0.5987 -0.7163
  489TIP3    H122958   6.217   3.457  13.508  0.2787 -0.4318 -0.9948
  489TIP3    H222959   6.353   3.450  13.442  0.6821 -0.9767 -0.1255
  490TIP3   OH222960   3.868   6.345   4.109 -0.8839 -0.1875  0.6266
  490TIP3    H122961   3.889   6.398   4.032 -0.6804 -0.5917  0.4061
  490TIP3    H222962   3.950   6.303   4.133 -0.8704  0.1817  1.2588
  491TIP3   OH222963   2.706   5.321   3.799  0.4920  0.2538  0.5512
  491TIP3    H122964   2.649   5.245   3.801  1.1155 -0.2963 -0.7961
  491TIP3    H222965   2.672   5.379   3.867 -1.8238  0.0795 -0.3654
  492TIP3   OH222966   5.533   5.306   0.636  0.0206 -0.0362  0.1892
  492TIP3    H122967   5.568   5.368   0.572 -0.8911 -1.1726 -1.4782
  492TIP3    H222968   5.440   5.297   0.614  0.2180 -2.3617  0.0122
  493TIP3   OH222969   0.358   1.760   2.359 -0.2537 -0.2935 -0.0525
  493TIP3    H122970   0.435   1.816   2.368 -1.2342  1.3416 -1.2528
  493TIP3    H222971   0.390   1.682   2.315  0.6525  0.5598 -0.9459
  494TIP3   OH222972   4.061   2.929  15.482  0.2587 -0.8305  0.0054
  494TIP3    H122973   4.028   2.888  15.562 -0.9063 -0.6731 -0.3819
  494TIP3    H222974   4.010   2.888  15.412  0.3479 -0.0124 -0.5405
  495TIP3   OH222975   1.933   0.542   2.245  0.3130  0.1347 -0.0515
  495TIP3    H122976   2.010   0.557   2.299 -0.8524  0.7011  1.5193
  495TIP3    H222977   1.968   0.517   2.159  2.2188 -1.3107  1.0747
  496TIP3   OH222978   1.151   6.454  10.551  0.2717  0.4293  0.5346
  496TIP3    H122979   1.233   6.476  10.507  1.7463 -2.1149  1.8095
  496TIP3    H222980   1.177   6.397  10.624 -2.7233 -1.6144  0.1733
  497TIP3   OH222981   3.388   3.042  11.080  0.3265 -0.2177  0.4257
  497TIP3    H122982   3.401   3.072  11.170 -0.5399  2.0108 -0.1443
  497TIP3    H222983   3.461   3.080  11.031 -1.1650  1.6551 -0.4392
  498TIP3   OH222984   4.722   2.274  14.083  0.0649 -0.2666 -0.0673
  498TIP3    H122985   4.674   2.290  14.002 -2.9333 -1.1174  1.3921
  498TIP3    H222986   4.740   2.180  14.083  0.3552 -0.2134  0.1100
  499TIP3   OH222987   5.624   5.650  11.917 -0.1168  0.0322 -0.3378
  499TIP3    H122988   5.710   5.664  11.878 -0.7281  0.4539 -1.6221
  499TIP3    H222989   5.615   5.555  11.923  0.6910 -0.0066  0.4439
  500TIP3   OH222990   1.079   5.557   2.461  0.2920  0.1450  0.1410
  500TIP3    H122991   1.065   5.646   2.493  2.5130  0.4173  0.5293
  500TIP3    H222992   1.167   5.534   2.492  0.4182 -1.5814 -1.3151
  501TIP3   OH222993   2.478   6.517  13.650  0.2630  0.1785 -0.6936
  501TIP3    H122994   2.401   6.478  13.692  0.8567 -0.4623 -0.1703
  501TIP3    H222995   2.442   6.569  13.578 -0.7712  0.9770  0.3403
  502TIP3   OH222996   0.822   4.453   6.386 -0.4172  0.3055 -0.0750
  502TIP3    H122997   0.910   4.446   6.349 -1.0240  0.7153 -1.6638
  502TIP3    H222998   0.822   4.536   6.433  0.3928 -0.2677  0.9862
  503TIP3   OH222999   3.914   1.615  16.295 -0.5800 -0.3265  0.0096
  503TIP3    H123000   3.969   1.693  16.296 -1.3694  0.2479 -0.3428
  503TIP3    H223001   3.863   1.620  16.376 -0.4103 -0.6388  0.1365
  504TIP3   OH223002   0.582   3.147  15.097  0.6387  0.1832  0.0461
  504TIP3    H123003   0.522   3.169  15.168 -1.4933 -0.5433 -1.4280
  504TIP3    H223004   0.583   3.225  15.041 -0.3825 -0.4423 -0.8693
  505TIP3   OH223005   4.924   3.045  11.768  0.5821 -0.3065 -0.5151
  505TIP3    H123006   4.882   3.071  11.850  2.5633 -2.6737  1.4393
  505TIP3    H223007   4.927   3.125  11.716 -0.2770  1.4620  1.9604
  506TIP3   OH223008   2.033   5.737  11.827  0.2350 -0.3254 -0.1122
  506TIP3    H123009   1.951   5.701  11.794  1.3827 -1.1285 -2.2266
  506TIP3    H223010   2.023   5.832  11.816  0.1351 -0.5030 -1.7297
  507TIP3   OH223011   0.750   4.028  16.907  0.3204 -0.2691  0.6188
  507TIP3    H123012   0.730   4.067  16.993 -0.7422  0.8162 -0.0863
  507TIP3    H223013   0.809   4.092  16.866  0.1403 -0.3670  0.2102
  508TIP3   OH223014   0.924   6.504  16.924 -0.4323 -0.0129 -0.0823
  508TIP3    H123015   0.946   6.586  16.881  1.2454 -0.4072 -0.0524
  508TIP3    H223016   1.008   6.457  16.930 -1.2512 -1.4691  0.4256
  509TIP3   OH223017   5.688   4.559  12.542  0.2461  0.2707  0.1706
  509TIP3    H123018   5.626   4.581  12.473  0.9950  0.4766 -0.4447
  509TIP3    H223019   5.637   4.506  12.604 -0.3316 -0.2556 -0.7318
  510TIP3   OH223020   1.228   6.567  17.211 -0.1407 -0.0976 -0.4043
  510TIP3    H123021   1.277   6.514  17.274 -0.0607 -0.5537 -0.8426
  510TIP3    H223022   1.144   6.584  17.255  0.1728  0.1780  0.1006
  511TIP3   OH223023   3.250   2.008  13.100  0.0966  0.0064 -0.7280
  511TIP3    H123024   3.194   2.067  13.150 -0.9583 -0.5521 -1.2077
  511TIP3    H223025   3.296   2.065  13.038 -0.5942  0.3788 -0.9099
  512TIP3   OH223026   2.107   6.406   1.084  0.4651 -0.0482 -0.2298
  512TIP3    H123027   2.074   6.475   1.140  0.7281 -2.0683  2.6527
  512TIP3    H223028   2.202   6.422   1.078  0.4738  0.0269  0.1233
  513TIP3   OH223029   1.744   5.501  14.990 -0.7464  0.4501  0.1080
  513TIP3    H123030   1.747   5.424  15.046 -1.5369  0.7625  0.5959
  513TIP3    H223031   1.744   5.466  14.901 -0.2145 -0.0710  0.3027
  514TIP3   OH223032   5.647   3.793  17.052 -0.5617  0.1319  0.2967
  514TIP3    H123033   5.612   3.726  17.111 -1.8109  0.9430  0.5210
  514TIP3    H223034   5.673   3.865  17.110 -0.1860  0.2561 -0.0170
  515TIP3   OH223035   3.307   2.875  16.828 -0.0768  0.2260 -0.3857
  515TIP3    H123036   3.233   2.927  16.797 -0.9182 -0.2531  0.7375
  515TIP3    H223037   3.280   2.845  16.915  2.2738  1.7328  0.9509
  516TIP3   OH223038   4.652   5.964  13.548 -0.2360 -0.3325 -0.3579
  516TIP3    H123039   4.579   5.927  13.597 -1.0221  0.9229 -0.5324
  516TIP3    H223040   4.702   5.888  13.518 -1.2388 -1.2011  0.1084
  517TIP3   OH223041   5.729   4.206   4.074 -0.1202 -0.2408 -0.0458
  517TIP3    H123042   5.742   4.191   4.168 -0.4896 -0.7017 -0.0646
  517TIP3    H223043   5.773   4.290   4.057 -0.0669 -0.1437  0.5386
  518TIP3   OH223044   2.297   2.497   1.137 -0.2796 -0.0593  0.3445
  518TIP3    H123045   2.308   2.498   1.042 -1.0013 -1.3887  0.2177
  518TIP3    H223046   2.328   2.583   1.166  1.1963 -0.1091 -0.9418
  519TIP3   OH223047   0.991   6.585  16.301  0.1068  0.2774  0.0649
  519TIP3    H123048   0.979   6.679  16.310  1.3067  0.4386  0.1570
  519TIP3    H223049   1.066   6.576  16.242 -0.5339 -0.6368 -0.6448
  520TIP3   OH223050   1.385   1.692  11.660  0.0597  0.3185  0.0183
  520TIP3    H123051   1.360   1.679  11.569  0.5073 -0.5813  0.0147
  520TIP3    H223052   1.381   1.787  11.672 -1.7456  0.3392 -0.4195
  521TIP3   OH223053   4.889   6.472   0.845  0.7055 -0.8641  0.8346
  521TIP3    H123054   4.878   6.460   0.939 -1.3466 -1.2906  0.6047
  521TIP3    H223055   4.836   6.402   0.806  0.9275 -0.2592 -0.6343
  522TIP3   OH223056   5.893   5.370  15.591  0.6868  0.2245 -0.3638
  522TIP3    H123057   5.938   5.430  15.532  0.7981  0.5443  0.0437
  522TIP3    H223058   5.809   5.412  15.609  1.9578  1.8376  2.3933
  523TIP3   OH223059   6.132   1.611  15.781 -0.1077 -0.1593 -0.5224
  523TIP3    H123060   6.168   1.527  15.753  0.0062  0.3552 -1.9927
  523TIP3    H223061   6.143   1.669  15.705 -0.8610  0.9771  0.2013
  524TIP3   OH223062   4.099   0.921  14.095  0.9255 -0.4914  0.6553
  524TIP3    H123063   4.121   1.000  14.046  0.9547 -0.6920  0.3478
  524TIP3    H223064   4.078   0.953  14.183  0.8277 -0.1287  0.5016
  525TIP3   OH223065   2.522   0.424  14.953  0.1479 -0.8622 -0.3526
  525TIP3    H123066   2.461   0.429  15.026 -0.3091  0.1911 -0.7927
  525TIP3    H223067   2.479   0.470  14.881  1.1494 -0.7211 -0.8936
  526TIP3   OH223068   6.110   5.217  16.949  0.7181 -0.1976  0.3057
  526TIP3    H123069   6.131   5.201  16.857 -0.6690 -0.9079  0.0941
  526TIP3    H223070   6.194   5.243  16.988  0.7399  4.0335 -1.9622
  527TIP3   OH223071   1.959   4.192  11.071  0.5175 -0.1054 -0.5694
  527TIP3    H123072   1.894   4.262  11.077  1.3040  0.5426  1.6562
  527TIP3    H223073   1.997   4.188  11.159  3.0956 -0.8192 -1.6115
  528TIP3   OH223074   5.254   1.150   1.236  0.2648  0.1775  0.2757
  528TIP3    H123075   5.230   1.241   1.220 -1.2475  0.1890  2.2810
  528TIP3    H223076   5.348   1.153   1.256  0.5391  1.0684 -1.0450
  529TIP3   OH223077   5.822   0.442   0.363 -0.3201  0.3577  0.1577
  529TIP3    H123078   5.901   0.395   0.389 -0.2096  1.4781  2.0633
  529TIP3    H223079   5.766   0.375   0.323  1.6474 -0.4111 -1.4991
  530TIP3   OH223080   4.229   6.153   5.483  0.1503 -0.4897 -0.0165
  530TIP3    H123081   4.219   6.244   5.455 -0.4944 -0.1275  1.2933
  530TIP3    H223082   4.296   6.157   5.551 -1.3092 -0.6294  1.5068
  531TIP3   OH223083   0.558   5.357   3.473  0.0050 -0.2681  0.2755
  531TIP3    H123084   0.522   5.397   3.551  0.1447 -1.0263  0.7374
  531TIP3    H223085   0.564   5.429   3.410 -1.3134  0.0880  0.5248
  532TIP3   OH223086   4.447   2.282  12.598 -0.5105 -0.0300 -0.2614
  532TIP3    H123087   4.511   2.317  12.660  0.6990  0.1719 -1.5595
  532TIP3    H223088   4.420   2.199  12.635 -0.1764  0.3073  0.7707
  533TIP3   OH223089   0.526   2.407   2.725  0.0106  0.5473 -0.2439
  533TIP3    H123090   0.587   2.437   2.793 -0.5524  0.1477  0.4511
  533TIP3    H223091   0.454   2.368   2.774 -0.4589  0.3595 -1.0798
  534TIP3   OH223092   4.343   3.324   5.610  0.3619 -0.0097 -0.2857
  534TIP3    H123093   4.396   3.306   5.688 -0.3668  2.4317  0.8890
  534TIP3    H223094   4.366   3.413   5.585 -0.9643  0.0101 -1.5939
  535TIP3   OH223095   0.007   1.348   1.457 -0.3490  0.2359 -0.0105
  535TIP3    H123096   0.022   1.259   1.487 -0.0578 -0.4074 -1.9531
  535TIP3    H223097   0.088   1.395   1.476 -0.6364  0.2206  1.3569
  536TIP3   OH223098   2.123   0.905   4.076  0.9141  0.1959  0.0781
  536TIP3    H123099   2.087   0.949   3.998 -0.6533  1.0559  1.2117
  536TIP3    H223100   2.170   0.974   4.123  0.6358  0.0403  0.5937
  537TIP3   OH223101   0.167   1.103  15.947 -0.1465 -0.3653 -0.2817
  537TIP3    H123102   0.134   1.184  15.985  0.7823 -0.5267  0.9300
  537TIP3    H223103   0.091   1.045  15.943 -0.5412  0.1266  0.0639
  538TIP3   OH223104   2.283   3.945   4.300  0.0403  0.0649  0.0361
  538TIP3    H123105   2.356   3.945   4.363 -1.3330 -0.4863  1.7063
  538TIP3    H223106   2.243   4.031   4.310  0.2821  0.2656 -0.6777
  539TIP3   OH223107   5.551   0.084  15.500 -0.3295  0.3146  0.1201
  539TIP3    H123108   5.546   0.041  15.585  0.4812 -1.2659 -0.5863
  539TIP3    H223109   5.644   0.100  15.486 -0.6475  2.9797  0.6365
  540TIP3   OH223110   3.031   6.240  13.555  0.5050 -0.2544  0.3853
  540TIP3    H123111   3.112   6.290  13.549  1.3600 -1.6444 -0.0998
  540TIP3    H223112   2.992   6.268  13.638  2.0600 -0.3791  1.2037
  541TIP3   OH223113   3.563   5.665  10.444 -0.2048 -0.3598  0.8015
  541TIP3    H123114   3.475   5.635  10.422 -0.2876 -1.7176  2.6638
  541TIP3    H223115   3.610   5.585  10.469  1.3425  0.4272  0.5562
  542TIP3   OH223116   6.584   5.356  12.215 -0.1560  0.1968  0.0516
  542TIP3    H123117   6.553   5.335  12.304  0.6590 -1.0836  0.0582
  542TIP3    H223118   6.514   5.410  12.178 -0.6891  0.4401  1.3404
  543TIP3   OH223119   4.228   4.012   1.096  0.1940 -0.1572  0.2572
  543TIP3    H123120   4.175   3.940   1.063 -0.0030 -0.4906  1.2458
  543TIP3    H223121   4.260   3.981   1.181 -1.6613  1.7056  1.7662
  544TIP3   OH223122   1.905   2.234  13.685 -0.3416 -0.3585  0.2419
  544TIP3    H123123   1.878   2.223  13.593  0.6887 -1.5615  0.0572
  544TIP3    H223124   1.965   2.308  13.683 -0.1446 -0.5211 -0.1066
  545TIP3   OH223125   5.003   2.217   0.711 -0.0010 -0.4849 -0.2002
  545TIP3    H123126   5.095   2.193   0.724  0.2675  0.5502 -0.0901
  545TIP3    H223127   5.006   2.296   0.657 -0.8413 -0.6214 -0.4579
  546TIP3   OH223128   3.253   3.147   1.122 -0.0888 -0.0974  0.2699
  546TIP3    H123129   3.239   3.133   1.216  0.2162 -2.8718  0.0063
  546TIP3    H223130   3.343   3.178   1.115 -0.6071  1.6310  0.9556
  547TIP3   OH223131   1.844   5.943  14.176  0.1962  0.6186  0.1066
  547TIP3    H123132   1.892   5.956  14.094 -1.3251 -0.7452 -1.0690
  547TIP3    H223133   1.783   6.017  14.180 -1.5326 -0.6333 -1.4081
  548TIP3   OH223134   4.886   4.895   4.653 -0.0761  0.0816  0.2704
  548TIP3    H123135   4.805   4.934   4.685  2.1936  3.0078  3.0375
  548TIP3    H223136   4.920   4.847   4.728  1.6099  0.4163 -0.2435
  549TIP3   OH223137   2.617   1.169   9.995 -0.0625 -0.0282  0.2855
  549TIP3    H123138   2.634   1.081   9.961  2.5593  1.6911 -3.6292
  549TIP3    H223139   2.695   1.190  10.046  0.1017  0.5564 -0.1956
  550TIP3   OH223140   1.801   5.413  15.667 -0.1731 -0.4268 -0.3971
  550TIP3    H123141   1.826   5.327  15.700  0.0350 -0.2076  0.0257
  550TIP3    H223142   1.720   5.434  15.713 -0.0861 -0.2867 -0.3056
  551TIP3   OH223143   5.366   0.078   2.499  0.3561  0.2624  0.0005
  551TIP3    H123144   5.409   0.072   2.585  0.8135  0.2336 -0.2313
  551TIP3    H223145   5.425   0.132   2.446  0.4877 -0.4264 -0.5593
  552TIP3   OH223146   3.489   4.112  12.001 -0.4619 -0.3013 -0.4049
  552TIP3    H123147   3.492   4.207  11.999 -3.0488  0.1054  3.4858
  552TIP3    H223148   3.414   4.088  11.947 -0.5255 -0.0106 -0.4441
  553TIP3   OH223149   4.831   4.488  13.371 -0.2922 -0.0116  0.2477
  553TIP3    H123150   4.894   4.560  13.369  1.3810 -1.3464  1.8764
  553TIP3    H223151   4.777   4.505  13.448 -1.3644  0.6200 -0.6086
  554TIP3   OH223152   1.606   3.973   0.511 -0.3317  0.1073  0.2745
  554TIP3    H123153   1.628   4.029   0.437 -0.3686  1.3383  1.1553
  554TIP3    H223154   1.653   3.892   0.495 -0.8977  0.0833 -1.4361
  555TIP3   OH223155   4.445   1.107  12.704  0.1569  0.1128  0.1316
  555TIP3    H123156   4.384   1.134  12.635  0.1296 -0.3149 -0.0143
  555TIP3    H223157   4.494   1.034  12.665  0.7920  0.4757  0.2313
  556TIP3   OH223158   3.127   0.258  15.330  0.3039 -0.0484  0.0716
  556TIP3    H123159   3.169   0.181  15.368 -1.0829 -1.0566 -0.3758
  556TIP3    H223160   3.178   0.276  15.251 -0.4718 -1.6694 -0.8374
  557TIP3   OH223161   2.658   0.965   1.107 -0.0153  0.1424 -0.0231
  557TIP3    H123162   2.728   0.900   1.098  0.9861  1.1947 -0.1775
  557TIP3    H223163   2.622   0.974   1.019  0.2499  0.2198 -0.1258
  558TIP3   OH223164   3.832   3.485  15.126 -0.4338 -0.5691 -0.2314
  558TIP3    H123165   3.825   3.580  15.142 -0.7860 -0.7608  0.8214
  558TIP3    H223166   3.824   3.446  15.212  2.4551 -1.4529 -0.2548
  559TIP3   OH223167   0.652   4.479   1.335 -0.3296 -0.1904  0.4351
  559TIP3    H123168   0.671   4.451   1.246  0.2692 -1.6749  0.9875
  559TIP3    H223169   0.579   4.540   1.326  1.5529  1.9944 -1.3086
  560TIP3   OH223170   3.025   3.163  16.590 -0.2199  0.0112  0.3332
  560TIP3    H123171   2.996   3.089  16.537  0.8242  0.4375 -0.9002
  560TIP3    H223172   2.963   3.233  16.570 -1.3881 -0.5586  1.7267
  561TIP3   OH223173   6.807   3.743   3.025 -0.4141 -0.6169  0.3199
  561TIP3    H123174   6.722   3.769   3.059  0.6491 -0.9945  3.5962
  561TIP3    H223175   6.838   3.676   3.085  1.4358 -1.8808 -1.8696
  562TIP3   OH223176   3.118   1.280  12.895  0.1207  0.7824  0.2624
  562TIP3    H123177   3.209   1.250  12.891 -0.0115  0.0278  2.0829
  562TIP3    H223178   3.119   1.352  12.958 -0.6706  0.1978  0.9659
  563TIP3   OH223179   5.483   3.341  12.806  0.1525 -0.3360  0.6341
  563TIP3    H123180   5.558   3.337  12.866  0.3177  0.1892  0.4734
  563TIP3    H223181   5.522   3.336  12.719 -0.0315 -0.4228  0.5574
  564TIP3   OH223182   3.241   6.429  16.216  0.2164  0.6657  0.3601
  564TIP3    H123183   3.150   6.427  16.185  0.0315  0.3345  0.9219
  564TIP3    H223184   3.278   6.507  16.174 -0.2812  0.7223  0.0058
  565TIP3   OH223185   4.333   1.694   6.507  0.6005  0.4577 -0.0200
  565TIP3    H123186   4.301   1.772   6.461  2.0272  1.2373  0.2478
  565TIP3    H223187   4.345   1.629   6.439 -2.0319 -0.0956 -0.0755
  566TIP3   OH223188   5.058   4.688  13.308 -0.6494 -0.7721 -0.5616
  566TIP3    H123189   5.069   4.642  13.225 -1.6445  1.2868 -1.9203
  566TIP3    H223190   4.995   4.757  13.289 -0.1148  0.4328  1.6582
  567TIP3   OH223191   1.423   0.914  16.189  0.0857 -0.7886  0.2937
  567TIP3    H123192   1.452   0.971  16.117  1.9384 -0.5336  1.1793
  567TIP3    H223193   1.454   0.958  16.268  1.3423 -2.8575  1.0224
  568TIP3   OH223194   5.701   2.428   4.916  0.1146  0.1422 -0.0567
  568TIP3    H123195   5.716   2.354   4.857 -0.8248  1.4159 -1.9992
  568TIP3    H223196   5.780   2.481   4.910  0.1242  0.1351  0.0128
  569TIP3   OH223197   3.734   4.832   1.232 -0.8168  0.0515  0.0388
  569TIP3    H123198   3.803   4.862   1.172 -0.1699 -1.0524  0.1949
  569TIP3    H223199   3.671   4.787   1.176 -0.9255  0.2289  0.0175
  570TIP3   OH223200   6.731   5.201   2.631  0.0740 -0.4591 -0.2341
  570TIP3    H123201   6.749   5.205   2.725 -0.9597  0.2673 -0.0571
  570TIP3    H223202   6.812   5.167   2.593  0.6585 -0.3518  0.8720
  571TIP3   OH223203   6.509   5.465  15.124 -0.0269 -0.2289  0.1227
  571TIP3    H123204   6.552   5.395  15.173  0.0483 -0.6432 -0.5134
  571TIP3    H223205   6.518   5.438  15.032 -2.1897 -0.6574 -0.0177
  572TIP3   OH223206   1.479   1.163   0.687  0.4779 -0.9300 -0.2269
  572TIP3    H123207   1.525   1.121   0.760  1.4412 -0.2928 -0.4390
  572TIP3    H223208   1.506   1.255   0.692 -0.1433 -0.6993 -0.8614
  573TIP3   OH223209   2.262   1.711  14.177 -0.6839  0.5411  0.0513
  573TIP3    H123210   2.232   1.705  14.267 -0.5721  1.2057  0.1379
  573TIP3    H223211   2.216   1.787  14.141  0.1577  0.9942 -0.0952
  574TIP3   OH223212   4.033   4.566  10.514 -0.5179  0.3382 -0.0579
  574TIP3    H123213   3.987   4.544  10.433  0.7069  1.4799 -1.0999
  574TIP3    H223214   4.064   4.655  10.501  0.2469  0.3255  1.4340
  575TIP3   OH223215   5.297   5.946  16.071 -0.0920  0.0451  0.6354
  575TIP3    H123216   5.383   5.934  16.111  0.2279 -1.0090 -0.3142
  575TIP3    H223217   5.315   5.950  15.977 -1.0955 -0.4303  0.4060
  576TIP3   OH223218   1.476   4.694   0.158  0.1137  0.2018  0.1527
  576TIP3    H123219   1.381   4.683   0.162  0.0281  0.9868  0.5907
  576TIP3    H223220   1.512   4.607   0.174 -0.5380 -0.2252 -0.6445
  577TIP3   OH223221   0.307   0.159   0.756  0.1141  0.0803 -0.0685
  577TIP3    H123222   0.320   0.216   0.832  0.4905  0.3658 -0.3446
  577TIP3    H223223   0.321   0.071   0.791  1.2429  0.2648  0.0058
  578TIP3   OH223224   0.211   6.553   5.002  0.3815 -0.0101 -0.2758
  578TIP3    H123225   0.302   6.525   4.993  0.8213  1.0728  0.5478
  578TIP3    H223226   0.160   6.473   4.993  1.5759 -1.0874  1.8807
  579TIP3   OH223227   6.417   0.655  12.290  0.1434 -0.1381 -0.2969
  579TIP3    H123228   6.360   0.644  12.214 -0.1226 -1.7984  0.0984
  579TIP3    H223229   6.468   0.573  12.293  1.0141  0.4135  0.6101
  580TIP3   OH223230   0.255   5.012  13.348 -0.0021  0.0602 -0.1528
  580TIP3    H123231   0.232   5.095  13.389 -2.3180 -1.1148  1.1432
  580TIP3    H223232   0.236   5.025  13.255  1.0194  1.3874 -0.1987
  581TIP3   OH223233   3.020   6.249  16.361  0.5044 -0.8189 -0.1127
  581TIP3    H123234   3.115   6.265  16.358  0.0581  2.8509 -0.0385
  581TIP3    H223235   2.997   6.261  16.453 -0.3531  1.5581 -0.5745
  582TIP3   OH223236   0.581   1.631   0.484  0.2197 -0.2108  0.0215
  582TIP3    H123237   0.580   1.619   0.389  1.2259 -0.7901  0.0697
  582TIP3    H223238   0.663   1.591   0.512  0.0500  0.1783  1.1109
  583TIP3   OH223239   1.737   6.028  16.233  0.0746  0.0487  0.4707
  583TIP3    H123240   1.734   6.000  16.325  1.9160 -0.8554  0.3008
  583TIP3    H223241   1.811   6.088  16.229 -0.3167  0.4930 -0.3365
  584TIP3   OH223242   0.032   1.447  14.642 -0.5316  0.6656 -0.6731
  584TIP3    H123243   0.063   1.358  14.654 -0.8479  0.8840  2.9755
  584TIP3    H223244   0.059   1.471  14.553  2.1656 -2.0177 -0.7220
  585TIP3   OH223245   0.563   4.002   3.380 -0.1417  0.3558 -0.0022
  585TIP3    H123246   0.587   3.910   3.372  1.3355  0.8242 -1.4471
  585TIP3    H223247   0.603   4.044   3.304 -0.7503  2.2119  0.6507
  586TIP3   OH223248   6.434   2.694   1.770  0.5151  0.4970 -0.8326
  586TIP3    H123249   6.490   2.740   1.832  1.1502 -0.3453 -0.7586
  586TIP3    H223250   6.355   2.747   1.764  0.0828  0.1945  1.3180
  587TIP3   OH223251   0.623   0.784   5.928  0.2597 -0.2605 -0.1882
  587TIP3    H123252   0.596   0.692   5.917  0.4123 -0.2477 -0.7346
  587TIP3    H223253   0.631   0.796   6.022 -0.6190 -0.5594 -0.0729
  588TIP3   OH223254   3.597   0.449   2.207  0.5668  0.5226 -0.4790
  588TIP3    H123255   3.531   0.514   2.229  0.7902 -0.2091  2.9504
  588TIP3    H223256   3.548   0.379   2.165  0.1846  2.3568 -3.3197
  589TIP3   OH223257   1.397   6.434  16.369  0.5230  0.4625 -0.1222
  589TIP3    H123258   1.419   6.341  16.365 -0.1655  0.3393 -2.0791
  589TIP3    H223259   1.388   6.461  16.278 -0.5507  2.1441  0.4200
  590TIP3   OH223260   0.329   6.536  14.574  0.0790  0.4741  0.3809
  590TIP3    H123261   0.325   6.624  14.536  0.9194  0.5949  0.5439
  590TIP3    H223262   0.262   6.537  14.643  0.8964  1.4155  1.2030
  591TIP3   OH223263   1.741   0.839   1.314  0.0042 -0.1253  0.4246
  591TIP3    H123264   1.826   0.852   1.356  1.0050  0.2406 -1.6268
  591TIP3    H223265   1.748   0.754   1.271 -1.4388 -1.0555  1.8958
  592TIP3   OH223266   2.355   3.434   1.847 -0.0901 -0.1152  0.1834
  592TIP3    H123267   2.324   3.398   1.931  1.6819 -1.7332  0.2234
  592TIP3    H223268   2.339   3.528   1.854 -1.6827 -0.4387  1.5666
  593TIP3   OH223269   0.812   0.103  15.892 -0.0723  0.1756 -0.2714
  593TIP3    H123270   0.774   0.035  15.947  1.6745 -1.2710 -0.7827
  593TIP3    H223271   0.849   0.166  15.954 -0.7174  0.1119  0.1958
  594TIP3   OH223272   3.427   5.559  14.785 -0.1493 -0.2970  0.1101
  594TIP3    H123273   3.467   5.487  14.832  0.4232 -0.4269 -0.5604
  594TIP3    H223274   3.334   5.536  14.780 -0.6711  0.7280  3.0115
  595TIP3   OH223275   4.099   0.890   4.799 -0.3286 -0.3334 -0.5138
  595TIP3    H123276   4.038   0.877   4.726 -1.1558 -0.6827  0.2068
  595TIP3    H223277   4.142   0.973   4.780 -1.4392  0.2014 -0.7857
  596TIP3   OH223278   5.656   1.303   6.757 -0.2611 -0.4876  0.0975
  596TIP3    H123279   5.629   1.371   6.695 -0.0610  0.1477  0.6912
  596TIP3    H223280   5.716   1.248   6.707  0.2011  0.2423 -0.1637
  597TIP3   OH223281   2.284   5.215   1.506 -0.3080 -0.2245 -0.3359
  597TIP3    H123282   2.253   5.303   1.486 -0.8692 -0.4311 -0.4023
  597TIP3    H223283   2.304   5.176   1.421 -1.1085 -0.5299 -0.3991
  598TIP3   OH223284   0.673   4.886  13.001  0.2542 -0.1953  0.0885
  598TIP3    H123285   0.747   4.936  13.035 -0.3487  0.2450  0.7915
  598TIP3    H223286   0.610   4.952  12.973 -0.4355 -0.5390  0.7774
  599TIP3   OH223287   6.276   6.309   1.621  0.5170  0.2617 -0.2155
  599TIP3    H123288   6.367   6.282   1.606 -0.1649 -1.3772 -1.7913
  599TIP3    H223289   6.230   6.286   1.540 -1.2326  1.4471  0.3822
  600TIP3   OH223290   1.514   6.107  14.278 -0.0005  0.4492  0.7057
  600TIP3    H123291   1.575   6.114  14.204  0.6095 -0.4540  1.1010
  600TIP3    H223292   1.492   6.197  14.300  2.2821  0.9053  1.4203
  601TIP3   OH223293   4.212   3.203  15.474  0.1420 -0.2405  0.0741
  601TIP3    H123294   4.148   3.132  15.474 -0.7241  0.5136  0.6107
  601TIP3    H223295   4.205   3.242  15.387  1.4584 -1.5132 -0.6423
  602TIP3   OH223296   1.494   1.593   0.527  0.3113 -0.7920  0.4662
  602TIP3    H123297   1.467   1.570   0.438 -1.0938 -0.2692  0.7365
  602TIP3    H223298   1.588   1.610   0.519  0.5220 -2.2472 -0.5958
  603TIP3   OH223299   6.004   2.960  12.374  0.7254 -0.1138 -0.0355
  603TIP3    H123300   5.952   2.993  12.301  0.9801 -0.5724 -0.4299
  603TIP3    H223301   5.949   2.974  12.451  0.2506 -0.0879 -0.3765
  604TIP3   OH223302   6.701   5.707  14.472 -0.0708  0.0984  0.2676
  604TIP3    H123303   6.727   5.618  14.450 -0.0251 -0.0810  1.0210
  604TIP3    H223304   6.615   5.698  14.514  0.1915  0.3426  0.8740
  605TIP3   OH223305   2.891   1.297  17.129 -0.5455 -0.4233  0.1168
  605TIP3    H123306   2.986   1.296  17.127 -0.4550  1.9221  0.7548
  605TIP3    H223307   2.865   1.228  17.067  1.5274 -1.3826  0.2374
  606TIP3   OH223308   2.002   2.057  16.780 -0.4956 -0.4716  0.0632
  606TIP3    H123309   2.084   2.010  16.792  0.0271  0.2897 -0.4700
  606TIP3    H223310   1.964   2.062  16.867 -0.4723 -1.7167  0.1534
  607TIP3   OH223311   1.693   5.817   4.887 -0.2249  0.0840  0.2330
  607TIP3    H123312   1.719   5.894   4.837 -1.3707  0.6178  0.4179
  607TIP3    H223313   1.638   5.851   4.958 -1.4348 -0.9500 -0.1488
  608TIP3   OH223314   4.637   0.080  16.826 -0.1321  0.1341 -0.5766
  608TIP3    H123315   4.625   0.165  16.869 -2.6293 -0.0023 -0.8799
  608TIP3    H223316   4.720   0.048  16.861 -0.5176  1.4299  1.7686
  609TIP3   OH223317   1.973   4.616   4.472 -0.2414 -0.6191 -0.4588
  609TIP3    H123318   2.056   4.582   4.438  0.7965  0.3527  0.9756
  609TIP3    H223319   1.935   4.543   4.520  0.8305 -0.4872  0.6335
  610TIP3   OH223320   2.485   5.193   4.293  0.2575 -0.5488  0.1584
  610TIP3    H123321   2.411   5.147   4.331 -0.1850 -0.0300 -0.0665
  610TIP3    H223322   2.561   5.138   4.312 -0.4843 -2.3925 -1.8039
  611TIP3   OH223323   5.737   0.375  12.390  0.0607  0.5907  0.2964
  611TIP3    H123324   5.749   0.465  12.361  0.3078  0.7924  0.9913
  611TIP3    H223325   5.791   0.368  12.469  0.5138 -0.3397 -0.0734
  612TIP3   OH223326   4.747   0.751   2.342 -0.2161  0.7181 -0.0234
  612TIP3    H123327   4.797   0.671   2.322  0.0510  0.3141  1.9922
  612TIP3    H223328   4.657   0.721   2.352 -0.0926  0.6105  0.8805
  613TIP3   OH223329   0.377   1.963  12.095  0.0840  0.1461  0.8268
  613TIP3    H123330   0.401   1.968  12.187 -0.9645  0.7429  1.0792
  613TIP3    H223331   0.442   2.018  12.051  0.3518  0.1761  1.2512
  614TIP3   OH223332   2.345   5.145   5.893 -0.5794  0.2725 -0.0886
  614TIP3    H123333   2.315   5.103   5.974 -2.2555 -0.1812 -0.9097
  614TIP3    H223334   2.333   5.239   5.910 -3.3538  0.1012 -0.6357
  615TIP3   OH223335   6.640   0.290   2.423  0.1165 -0.4572 -0.4123
  615TIP3    H123336   6.618   0.309   2.514 -1.4446  0.9547 -1.0342
  615TIP3    H223337   6.713   0.229   2.429 -0.5421 -1.1560  1.7924
  616TIP3   OH223338   5.617   6.611  13.863 -0.4706  0.1895  0.1571
  616TIP3    H123339   5.633   6.692  13.911  0.7837 -0.6341  1.2291
  616TIP3    H223340   5.529   6.584  13.889 -0.6693  0.9136  0.2404
  617TIP3   OH223341   0.343   5.974   1.258 -0.4779 -0.4376 -0.3635
  617TIP3    H123342   0.397   6.042   1.218 -0.6598 -0.9001 -1.4287
  617TIP3    H223343   0.325   6.006   1.346 -0.1644  0.6641 -0.6896
  618TIP3   OH223344   6.529   3.743   4.941 -0.2018  0.1929 -0.3663
  618TIP3    H123345   6.466   3.794   4.890  1.0379  0.2094 -1.9784
  618TIP3    H223346   6.556   3.673   4.881  0.7702 -0.2281  0.5385
  619TIP3   OH223347   2.222   3.543   4.757  0.3868  0.5030  0.2791
  619TIP3    H123348   2.276   3.592   4.695  0.0373  1.6028  0.8120
  619TIP3    H223349   2.132   3.565   4.734  0.0840 -1.5881 -0.8193
  620TIP3   OH223350   3.158   6.132  16.861 -0.1611  0.1491 -0.6249
  620TIP3    H123351   3.103   6.113  16.937  1.9774 -1.1977  0.6981
  620TIP3    H223352   3.197   6.218  16.879  0.0284  0.0128 -0.3790
  621TIP3   OH223353   1.981   6.766   5.797  0.8290 -0.7586  0.0458
  621TIP3    H123354   1.998   6.843   5.851  0.7244 -0.2334 -0.6687
  621TIP3    H223355   1.923   6.797   5.728 -0.4372 -1.8140  0.5927
  622TIP3   OH223356   0.152   1.696   0.417 -0.2957  0.7810 -0.0235
  622TIP3    H123357   0.212   1.728   0.485 -1.2430  2.0983  0.2402
  622TIP3    H223358   0.065   1.708   0.454 -0.8252  1.1753 -1.3290
  623TIP3   OH223359   3.842   3.633  13.357  0.0433 -0.3531 -0.0559
  623TIP3    H123360   3.924   3.611  13.401  0.3783  0.1539 -0.4226
  623TIP3    H223361   3.862   3.625  13.264 -0.1567  0.3613 -0.1581
  624TIP3   OH223362   2.598   5.312  11.340  0.0243  0.2963 -0.2359
  624TIP3    H123363   2.535   5.244  11.319 -0.8127  1.0155 -0.1198
  624TIP3    H223364   2.679   5.265  11.359 -0.6604 -0.6938  0.3105
  625TIP3   OH223365   6.603   1.605  17.198 -0.0011  0.3569 -0.2950
  625TIP3    H123366   6.645   1.679  17.241  4.5459 -1.2675 -1.3911
  625TIP3    H223367   6.553   1.562  17.267  0.9794  1.9276  1.4748
  626TIP3   OH223368   4.967   3.374  11.879  0.4490  0.1331 -0.0163
  626TIP3    H123369   4.886   3.339  11.841  0.7904  0.0874 -0.7214
  626TIP3    H223370   4.950   3.378  11.973  0.2458 -1.5685  0.0482
  627TIP3   OH223371   0.108   0.177   5.611  0.7079  0.3201  0.1648
  627TIP3    H123372   0.024   0.138   5.636  1.3362 -1.7572 -0.6931
  627TIP3    H223373   0.104   0.183   5.515  2.2999 -1.9262 -0.1281
  628TIP3   OH223374   1.300   1.200   5.226 -0.1066  0.0027  0.4090
  628TIP3    H123375   1.314   1.144   5.149 -1.1353 -1.6418  1.3581
  628TIP3    H223376   1.301   1.289   5.192  1.0458 -0.6000 -1.2586
  629TIP3   OH223377   0.435   0.432  10.779  0.0915  0.2059  0.0617
  629TIP3    H123378   0.426   0.519  10.738  0.4967  0.9034  1.3939
  629TIP3    H223379   0.371   0.432  10.850  1.2700  0.0997  1.1665
  630TIP3   OH223380   6.022   2.013  16.361 -0.0167 -0.0324  0.3848
  630TIP3    H123381   5.950   1.964  16.320 -0.0139 -0.3375  0.7376
  630TIP3    H223382   6.082   1.945  16.394  0.7299  0.2203 -0.4184
  631TIP3   OH223383   1.660   1.049  12.940  0.0793  0.0357 -0.8228
  631TIP3    H123384   1.727   1.004  12.889  0.0212 -0.1717 -0.7187
  631TIP3    H223385   1.597   1.080  12.874  0.2904  0.2517 -0.9213
  632TIP3   OH223386   5.239   0.079  11.848 -0.2747  0.1535 -0.4597
  632TIP3    H123387   5.280   0.161  11.875 -0.3846 -0.3098  1.2490
  632TIP3    H223388   5.309   0.032  11.802  1.1109 -0.4525  2.0571
  633TIP3   OH223389   2.282   3.809  10.213 -0.3802 -0.3791 -0.2592
  633TIP3    H123390   2.249   3.727  10.250  2.1050 -1.3753 -0.0738
  633TIP3    H223391   2.377   3.797  10.207 -0.2154  1.4247 -2.8853
  634TIP3   OH223392   5.882   2.499   0.189 -0.4235  0.5604 -0.6477
  634TIP3    H123393   5.811   2.447   0.150 -0.5048  0.9363 -1.0163
  634TIP3    H223394   5.868   2.492   0.283 -0.5400  0.0653 -0.6975
  635TIP3   OH223395   0.579   5.969  15.297 -0.5549  0.0506 -0.0106
  635TIP3    H123396   0.593   5.948  15.390 -0.4237 -2.1512 -0.4822
  635TIP3    H223397   0.498   5.925  15.275 -1.4294  1.8675 -0.5984
  636TIP3   OH223398   2.623   2.509  12.944  0.7181  0.4570  0.1549
  636TIP3    H123399   2.587   2.535  12.859  0.6531 -1.3373 -0.4186
  636TIP3    H223400   2.684   2.438  12.922  0.6913 -0.0385  1.6078
  637TIP3   OH223401   1.693   5.695   0.191 -0.0618  0.0187 -0.7059
  637TIP3    H123402   1.607   5.715   0.228 -0.1341 -2.8846  1.0185
  637TIP3    H223403   1.674   5.646   0.111  0.0096  0.7831 -1.1906
  638TIP3   OH223404   1.127   3.112  14.521 -0.2986  0.5145  0.5681
  638TIP3    H123405   1.092   3.023  14.511 -0.7584  0.7217  0.2921
  638TIP3    H223406   1.203   3.114  14.462 -1.5157  0.9435 -1.0392
  639TIP3   OH223407   5.602   5.992   2.683 -0.3951 -0.3108 -0.1289
  639TIP3    H123408   5.541   5.966   2.615 -1.5873  0.3121  0.6626
  639TIP3    H223409   5.683   5.945   2.662 -0.3485  0.7053 -2.5801
  640TIP3   OH223410   3.521   5.709  15.888  0.6770 -0.3368 -0.2587
  640TIP3    H123411   3.546   5.796  15.858  0.7736  0.0358  0.8494
  640TIP3    H223412   3.603   5.661  15.895  0.9761  0.3940  1.8619
  641TIP3   OH223413   1.177   2.426   2.894  0.5377 -0.0745 -0.1679
  641TIP3    H123414   1.258   2.388   2.860  1.6415  2.0590 -0.0815
  641TIP3    H223415   1.118   2.351   2.903  1.6418 -1.3756 -2.5735
  642TIP3   OH223416   3.361   5.202   3.626  0.4107 -0.2299 -0.3035
  642TIP3    H123417   3.328   5.153   3.550  1.8164 -0.7315 -0.6160
  642TIP3    H223418   3.344   5.293   3.604  1.9395 -0.2629 -1.8441
  643TIP3   OH223419   5.209   5.021  11.721 -0.5180 -0.2937  0.4737
  643TIP3    H123420   5.303   5.032  11.706 -0.7469  1.5427  0.1676
  643TIP3    H223421   5.191   4.931  11.695  0.7968 -0.0417 -1.4937
  644TIP3   OH223422   1.287   3.363  11.157 -0.0092  0.0950 -0.3346
  644TIP3    H123423   1.360   3.424  11.148  0.1705  0.0492  0.7184
  644TIP3    H223424   1.227   3.404  11.219 -0.2239 -0.4777 -0.1488
  645TIP3   OH223425   3.665   2.025   3.782  0.1968  0.8806 -0.8762
  645TIP3    H123426   3.661   2.115   3.815  1.2124  0.3964  0.6542
  645TIP3    H223427   3.717   1.978   3.846 -1.2253 -1.0798 -1.0738
  646TIP3   OH223428   1.868   4.331   3.473  0.2649 -0.3364 -0.4542
  646TIP3    H123429   1.826   4.416   3.488 -0.2242 -0.3889 -1.4295
  646TIP3    H223430   1.961   4.347   3.492  1.1765  1.8451 -5.1588
  647TIP3   OH223431   1.267   3.867   1.539 -0.4282  0.4444  0.3362
  647TIP3    H123432   1.175   3.846   1.556 -0.4287 -0.6758 -0.9412
  647TIP3    H223433   1.274   3.960   1.560 -2.1640  0.8735 -0.7549
  648TIP3   OH223434   4.519   5.505   3.108 -0.0963  0.2620  0.4368
  648TIP3    H123435   4.501   5.547   3.192  0.7098  0.0601  0.7230
  648TIP3    H223436   4.508   5.574   3.043 -1.4850  0.2391  0.6179
  649TIP3   OH223437   1.940   0.771  16.426 -1.1244 -0.2865 -0.0510
  649TIP3    H123438   1.958   0.852  16.474 -0.1818 -1.0311  0.8767
  649TIP3    H223439   1.851   0.784  16.392 -2.8686 -0.6362  3.8515
  650TIP3   OH223440   0.006   2.520  12.006  0.5807  0.1005  0.8936
  650TIP3    H123441   0.042   2.586  12.066  1.9893 -1.3199  1.6826
  650TIP3    H223442  -0.054   2.468  12.061 -1.0939  1.1088  0.1030
  651TIP3   OH223443   0.514   1.013  16.912  0.0763  0.8457  0.1301
  651TIP3    H123444   0.493   0.937  16.967 -0.3399  0.3663 -0.6630
  651TIP3    H223445   0.610   1.016  16.911  0.0846  0.9822  1.0349
  652TIP3   OH223446   3.336   0.680  15.853  0.1680  0.0024  0.4996
  652TIP3    H123447   3.325   0.775  15.851 -1.0607 -0.1443 -1.1195
  652TIP3    H223448   3.417   0.665  15.803 -0.3450  0.1318 -0.3933
  653TIP3   OH223449   4.990   4.989   0.471 -0.4324  0.3195 -0.1557
  653TIP3    H123450   5.045   4.912   0.482  0.7222  1.3268  1.5153
  653TIP3    H223451   4.937   4.970   0.394  0.9005 -1.4879 -0.6771
  654TIP3   OH223452   0.749   4.682   2.348  0.6439 -0.5905 -0.6634
  654TIP3    H123453   0.724   4.771   2.324 -0.2278 -0.4857  0.5488
  654TIP3    H223454   0.722   4.629   2.274  0.4590  0.0555 -1.0699
  655TIP3   OH223455   6.410   3.757   0.942  0.4181 -0.6244 -0.5281
  655TIP3    H123456   6.404   3.665   0.967 -0.4152 -0.2945  0.5990
  655TIP3    H223457   6.346   3.767   0.871 -2.2664 -0.2122  1.7562
  656TIP3   OH223458   5.033   4.915  16.795  0.1688  0.5947  0.2727
  656TIP3    H123459   5.023   4.926  16.889  0.3387  0.1263  0.3487
  656TIP3    H223460   4.945   4.926  16.760 -0.4919 -2.1295  0.7916
  657TIP3   OH223461   1.083   5.913  12.026 -0.6594 -0.2629 -0.4045
  657TIP3    H123462   1.035   5.957  11.955 -0.0243  0.0656 -0.6349
  657TIP3    H223463   1.018   5.855  12.066 -1.1353 -0.1447 -0.9911
  658TIP3   OH223464   2.421   0.137   0.103 -0.0225  0.2698 -0.5908
  658TIP3    H123465   2.479   0.195   0.153 -1.3882 -0.6681  2.2763
  658TIP3    H223466   2.455   0.049   0.121 -2.6236 -0.3640  1.7471
  659TIP3   OH223467   3.481   1.496  14.209  0.0868  0.3329  0.0966
  659TIP3    H123468   3.563   1.447  14.206  0.5320  1.0887 -0.4402
  659TIP3    H223469   3.429   1.452  14.277  1.4858  0.7012  1.4603
  660TIP3   OH223470   1.165   4.643  10.733 -0.0129  0.3934  0.8456
  660TIP3    H123471   1.079   4.601  10.741  0.6455 -0.8886  1.6788
  660TIP3    H223472   1.205   4.601  10.656  1.1869 -1.6352  2.4747
  661TIP3   OH223473   3.573   1.186  13.741  0.3808  0.2050  0.1158
  661TIP3    H123474   3.622   1.146  13.812 -0.0645 -0.5736 -0.0002
  661TIP3    H223475   3.564   1.278  13.766  0.6634  0.0468  0.8159
  662TIP3   OH223476   2.542   3.031  15.682 -0.1116  0.2777  0.4591
  662TIP3    H123477   2.626   2.986  15.687 -0.2167 -0.0571 -0.5816
  662TIP3    H223478   2.500   3.013  15.767 -0.1493 -1.5991  0.0826
  663TIP3   OH223479   5.285   2.760  14.687  0.4245  0.0972  0.6317
  663TIP3    H123480   5.302   2.666  14.679  0.1043 -0.0740  1.7211
  663TIP3    H223481   5.359   2.802  14.644  0.5369 -0.6493  0.0697
  664TIP3   OH223482   4.066   3.828   0.140  0.4863 -0.6636 -0.3240
  664TIP3    H123483   4.018   3.831   0.057  0.7966  0.5353 -0.4760
  664TIP3    H223484   4.032   3.749   0.184 -3.4577  1.3025  0.6721
  665TIP3   OH223485   0.813   2.026  11.490  0.7239  0.1009  0.4279
  665TIP3    H123486   0.792   2.119  11.477  1.7028  0.1634 -0.9207
  665TIP3    H223487   0.899   2.015  11.450  0.5689 -1.4179  0.4554
  666TIP3   OH223488   5.300   3.842  10.833  0.3767 -0.5457 -0.3073
  666TIP3    H123489   5.281   3.785  10.759 -0.0007  0.4882 -1.0306
  666TIP3    H223490   5.394   3.860  10.826  0.0417  0.8870 -1.5463
  667TIP3   OH223491   1.638   4.108  14.990  0.8000 -0.4939  0.1620
  667TIP3    H123492   1.578   4.075  15.057 -0.3272  1.4078  0.1549
  667TIP3    H223493   1.718   4.130  15.039  0.5114 -0.4741  0.6372
  668TIP3   OH223494   5.940   1.193   3.567 -0.2761 -0.2668 -0.2166
  668TIP3    H123495   5.943   1.121   3.630 -0.4486 -1.0746 -1.1085
  668TIP3    H223496   5.855   1.234   3.581 -0.1486 -0.1861  0.3436
  669TIP3   OH223497   5.026   1.839   2.815 -0.1689  0.4172  0.3740
  669TIP3    H123498   5.095   1.793   2.767 -0.4240 -0.9383  1.2429
  669TIP3    H223499   5.057   1.841   2.906 -0.5012  1.3351  0.4717
  670TIP3   OH223500   6.248   4.631   1.514 -0.0436  0.1164 -0.3368
  670TIP3    H123501   6.182   4.601   1.452 -0.0038  0.1041 -0.3741
  670TIP3    H223502   6.201   4.685   1.577 -0.6408 -2.1233  1.2992
  671TIP3   OH223503   6.574   2.503   0.895 -0.1043  0.3239 -0.3382
  671TIP3    H123504   6.594   2.445   0.821  1.0353  0.6045 -0.2646
  671TIP3    H223505   6.575   2.591   0.857  2.5009  0.6594  0.3486
  672TIP3   OH223506   2.769   6.576   1.485 -0.0153  0.2278 -0.0248
  672TIP3    H123507   2.767   6.484   1.512 -1.5724  0.6228  1.3961
  672TIP3    H223508   2.810   6.575   1.399  0.1442 -1.7796  0.0311
  673TIP3   OH223509   1.848   0.566   4.142  0.0139 -0.1644 -0.0912
  673TIP3    H123510   1.838   0.498   4.076  2.3732 -0.1756 -0.5299
  673TIP3    H223511   1.910   0.530   4.205 -0.4697  0.7165  0.9213
  674TIP3   OH223512   0.056   5.617  15.191  0.7545  0.2323 -0.2127
  674TIP3    H123513  -0.026   5.659  15.166  1.0732  2.1168  1.6553
  674TIP3    H223514   0.113   5.627  15.115 -0.1208  0.5839 -0.8373
  675TIP3   OH223515   2.714   0.725   3.317  0.1312 -0.2751  0.3180
  675TIP3    H123516   2.780   0.794   3.318  0.3354 -0.4347 -1.0142
  675TIP3    H223517   2.652   0.751   3.385  0.3126  1.1276 -0.0151
  676TIP3   OH223518   4.307   5.760  14.676 -0.5142 -0.3497  0.6482
  676TIP3    H123519   4.253   5.815  14.620  2.0588 -0.4159 -2.1706
  676TIP3    H223520   4.372   5.819  14.714  1.2489 -1.0504 -1.0928
  677TIP3   OH223521   1.545   1.743  13.723 -0.0335  0.1013 -0.0013
  677TIP3    H123522   1.505   1.824  13.693  2.6264  1.2805 -0.7360
  677TIP3    H223523   1.498   1.674  13.677 -1.8983  1.2505  0.0972
  678TIP3   OH223524   0.719   6.120   3.113  0.0496 -0.0423 -0.2779
  678TIP3    H123525   0.679   6.105   3.028  0.5083 -1.6411 -0.2352
  678TIP3    H223526   0.650   6.101   3.177  0.4875 -1.5791 -0.2376
  679TIP3   OH223527   5.867   1.498   1.079  0.0474 -0.3687 -0.4801
  679TIP3    H123528   5.778   1.469   1.059 -0.3075 -0.5533  1.2043
  679TIP3    H223529   5.899   1.533   0.996 -0.9675 -1.8381 -1.5669
  680TIP3   OH223530   2.998   0.125   4.585 -0.4133 -0.6472  0.7265
  680TIP3    H123531   2.963   0.035   4.581 -0.6977 -0.5466  0.8875
  680TIP3    H223532   3.053   0.126   4.663 -0.5457 -0.6383  0.8216
  681TIP3   OH223533   1.504   1.838   1.819  0.1181 -0.0836 -0.6297
  681TIP3    H123534   1.455   1.818   1.739 -0.4820  1.8205 -0.8062
  681TIP3    H223535   1.483   1.930   1.836  0.6457 -0.3081  1.4426
  682TIP3   OH223536   0.267   1.156  10.582  0.1261 -0.7313  0.1088
  682TIP3    H123537   0.232   1.212  10.652  1.2896 -0.1870  0.2706
  682TIP3    H223538   0.330   1.099  10.627 -0.0666 -1.2631 -0.2888
  683TIP3   OH223539   2.335   1.493   5.156 -0.7190 -0.1100 -0.1626
  683TIP3    H123540   2.303   1.421   5.101 -1.0306 -0.3233  0.2939
  683TIP3    H223541   2.350   1.454   5.242  0.3692  0.0858 -0.2496
  684TIP3   OH223542   2.591   1.497  11.966 -0.5708 -0.2825  0.2858
  684TIP3    H123543   2.545   1.501  12.049 -1.5210 -0.4343 -0.2204
  684TIP3    H223544   2.539   1.553  11.907  0.0579 -0.2137 -0.2157
  685TIP3   OH223545   5.732   6.218  15.379  0.6639  0.0633 -0.1214
  685TIP3    H123546   5.732   6.266  15.461  1.5310  0.3558 -0.2838
  685TIP3    H223547   5.768   6.279  15.315 -0.1036 -0.1198 -0.7476
  686TIP3   OH223548   4.963   2.299  10.661 -0.5101  0.4640  0.2149
  686TIP3    H123549   4.898   2.245  10.706  0.8133 -1.2969  0.1010
  686TIP3    H223550   5.009   2.345  10.732 -0.2659 -0.1703  0.4724
  687TIP3   OH223551   0.166   3.433   1.325  0.6425 -0.7132  0.4093
  687TIP3    H123552   0.122   3.480   1.395  1.9091  0.8009  0.2443
  687TIP3    H223553   0.237   3.491   1.297  0.4294 -1.4320 -1.8689
  688TIP3   OH223554   4.049   1.184  12.684  0.2347 -0.3234  0.2631
  688TIP3    H123555   4.014   1.207  12.770 -1.2975 -0.1699 -0.3813
  688TIP3    H223556   4.066   1.090  12.690 -0.0503 -0.3538  0.6646
  689TIP3   OH223557   3.610   2.316  16.134  0.2263  0.0059  0.5668
  689TIP3    H123558   3.613   2.299  16.228  0.3016 -0.8583  0.4202
  689TIP3    H223559   3.540   2.381  16.123 -0.5943 -0.7572  1.1064
  690TIP3   OH223560   3.939   1.271  12.190  0.4979  0.9528  0.3845
  690TIP3    H123561   3.857   1.277  12.239 -0.5395  0.7603 -1.2504
  690TIP3    H223562   3.952   1.178  12.175  0.5267  1.0438 -0.1673
  691TIP3   OH223563   0.726   6.564   1.175  0.1783 -0.0754  0.2494
  691TIP3    H123564   0.669   6.578   1.099  1.3514  2.0265 -0.3278
  691TIP3    H223565   0.751   6.652   1.202  1.5767 -0.8799  1.7100
  692TIP3   OH223566   0.665   4.893  12.358  0.2359 -0.0907  0.3666
  692TIP3    H123567   0.656   4.868  12.266 -0.5828  0.2890  0.3340
  692TIP3    H223568   0.625   4.822  12.407 -1.7381  0.9008  0.2913
  693TIP3   OH223569   6.020   1.605   2.873  0.8302  0.2476  0.2878
  693TIP3    H123570   6.091   1.660   2.906  2.0819 -0.7310 -0.6717
  693TIP3    H223571   6.006   1.540   2.941  0.9498  0.3665  0.4257
  694TIP3   OH223572   2.618   3.939   4.082  0.4726 -0.1878  0.1419
  694TIP3    H123573   2.543   3.883   4.065  0.9026 -0.9437  0.6550
  694TIP3    H223574   2.674   3.888   4.140  1.2782  0.4458 -0.0435
  695TIP3   OH223575   5.486   3.999   4.051 -0.0476  0.5826 -0.0883
  695TIP3    H123576   5.464   4.082   4.093  1.0947  0.0864  1.6016
  695TIP3    H223577   5.408   3.975   4.002 -1.1827  1.5786  1.1755
  696TIP3   OH223578   2.098   0.407   2.032 -0.1621  0.2032  0.3302
  696TIP3    H123579   2.093   0.326   1.982 -0.3468  0.9143 -0.8210
  696TIP3    H223580   2.151   0.384   2.109  1.2479 -0.5811 -0.8267
  697TIP3   OH223581   4.594   6.391   5.572 -0.3084 -0.0107  0.1909
  697TIP3    H123582   4.562   6.411   5.484 -1.4413 -1.7152  0.1695
  697TIP3    H223583   4.689   6.404   5.566 -0.4420  0.6274 -1.0553
  698TIP3   OH223584   5.505   1.057  12.017 -0.4695  0.0132 -0.6532
  698TIP3    H123585   5.438   1.121  12.037  0.4840  0.9248 -0.2755
  698TIP3    H223586   5.512   1.003  12.096  0.5799  1.1523  0.0600
  699TIP3   OH223587   1.090   2.288  13.245  0.2900 -0.5942 -0.1940
  699TIP3    H123588   1.095   2.206  13.294 -3.1894 -0.1564  1.2067
  699TIP3    H223589   1.057   2.263  13.159 -0.7100 -0.7188  0.2122
  700TIP3   OH223590   6.473   2.856   1.365  0.0773 -0.2250  0.2779
  700TIP3    H123591   6.470   2.885   1.274  0.1304 -0.4227  0.2115
  700TIP3    H223592   6.418   2.918   1.412  0.6944  0.3609  0.2477
  701TIP3   OH223593   6.024   0.662   1.253  0.3298 -0.0277 -0.0642
  701TIP3    H123594   6.013   0.568   1.267  1.1511 -0.2416 -0.7294
  701TIP3    H223595   6.051   0.696   1.338 -0.2935 -0.3358  0.2634
  702TIP3   OH223596   4.839   5.140  11.890 -0.0113  0.0453  0.3292
  702TIP3    H123597   4.773   5.076  11.917 -1.8332  0.7073 -2.1896
  702TIP3    H223598   4.883   5.099  11.816  0.6433  0.6762  0.3596
  703TIP3   OH223599   1.389   6.071  15.571  0.1171  0.0702 -0.1370
  703TIP3    H123600   1.356   6.088  15.483 -0.7752 -0.6756  0.0457
  703TIP3    H223601   1.370   5.979  15.587 -0.4046  0.3724  1.1163
  704TIP3   OH223602   5.292   4.938   4.788 -0.5250  0.4123  0.4908
  704TIP3    H123603   5.245   4.946   4.705 -1.3376  2.7925  1.1067
  704TIP3    H223604   5.228   4.899   4.848  0.3501 -2.2122 -0.1121
  705TIP3   OH223605   5.195   4.265   5.723 -0.3231 -0.2749 -0.7615
  705TIP3    H123606   5.134   4.216   5.779 -1.5293  2.1242  0.1610
  705TIP3    H223607   5.146   4.281   5.642 -0.9016  1.4845 -0.0968
  706TIP3   OH223608   2.034   3.811  17.009 -0.2729 -0.0333  0.1849
  706TIP3    H123609   1.963   3.833  16.949 -1.5975 -1.3977  1.1798
  706TIP3    H223610   2.109   3.795  16.953 -1.0693  0.2480 -0.9912
  707TIP3   OH223611   5.819   3.072  12.216  0.2333 -0.4493 -0.1009
  707TIP3    H123612   5.865   3.062  12.133  1.2175 -0.5960  0.4448
  707TIP3    H223613   5.787   3.162  12.216 -2.4865 -1.2820 -1.9633
  708TIP3   OH223614   1.389   0.917  15.162  0.2534  0.3710 -0.3560
  708TIP3    H123615   1.462   0.934  15.103 -0.4709  1.9169 -0.8735
  708TIP3    H223616   1.329   0.991  15.147 -0.1878  0.5521  1.9472
  709TIP3   OH223617   1.809   4.952  12.532  0.0333  0.1410  0.7984
  709TIP3    H123618   1.829   4.981  12.443  0.1707 -0.6964  0.5503
  709TIP3    H223619   1.799   5.033  12.582 -2.0762  0.6969 -0.4136
  710TIP3   OH223620   6.468   5.950   3.915  0.0294 -0.5008  1.0764
  710TIP3    H123621   6.487   5.858   3.936 -0.7427 -1.5111 -2.1405
  710TIP3    H223622   6.554   5.987   3.893  0.0359 -1.2251 -0.1846
  711TIP3   OH223623   2.842   1.007  11.374 -0.2736 -0.1532  0.3163
  711TIP3    H123624   2.901   1.082  11.378  1.8108 -1.6779  0.2396
  711TIP3    H223625   2.847   0.967  11.461 -1.4258 -0.1689  0.3886
  712TIP3   OH223626   6.656   1.020   2.299  0.1894 -0.2618 -0.3977
  712TIP3    H123627   6.610   0.936   2.305 -0.2092 -0.0318 -0.0938
  712TIP3    H223628   6.657   1.053   2.389  1.3095 -0.4398 -0.3346
  713TIP3   OH223629   2.183   1.248   2.625 -0.5973 -0.0522  0.4164
  713TIP3    H123630   2.209   1.190   2.697 -2.9020 -1.3794  0.2733
  713TIP3    H223631   2.121   1.196   2.574 -0.2223  1.4227 -1.6576
  714TIP3   OH223632   6.788   3.722   1.253  0.4942 -0.4978  0.0883
  714TIP3    H123633   6.860   3.784   1.258  0.7486 -0.7797 -0.0084
  714TIP3    H223634   6.800   3.664   1.328  1.2042 -1.4212 -0.7037
  715TIP3   OH223635   4.355   1.220  13.987  0.2709  0.4072  0.6712
  715TIP3    H123636   4.377   1.284  14.054  0.4005  0.3342  0.6982
  715TIP3    H223637   4.427   1.157  13.989  1.6175  1.7564 -1.2604
  716TIP3   OH223638   1.252   6.043  11.844  0.1103  0.1431 -0.1018
  716TIP3    H123639   1.162   6.047  11.814  0.4446 -0.3298 -1.2088
  716TIP3    H223640   1.290   6.127  11.816  0.3080 -0.1226 -0.6439
  717TIP3   OH223641   4.888   1.934  14.971 -0.6383 -0.3551  1.1701
  717TIP3    H123642   4.934   1.895  15.046 -0.3103 -0.8099  0.7349
  717TIP3    H223643   4.934   1.899  14.894 -2.3120 -1.6070  0.6852
  718TIP3   OH223644   4.741   0.306  16.520  0.2158  0.5897  0.4451
  718TIP3    H123645   4.647   0.290  16.519  0.1557  0.9338 -0.2205
  718TIP3    H223646   4.771   0.270  16.604 -0.2209 -1.0774 -0.0730
  719TIP3   OH223647   1.805   6.450   3.175 -0.4507  0.4066 -0.6705
  719TIP3    H123648   1.790   6.420   3.085 -1.1046  0.6827 -0.6619
  719TIP3    H223649   1.898   6.433   3.191 -0.5778 -0.6857 -1.0086
  720TIP3   OH223650   5.074   3.045  12.167  0.0102 -0.2089  0.4061
  720TIP3    H123651   5.076   2.972  12.105  1.4691  0.2250 -0.1011
  720TIP3    H223652   5.146   3.027  12.228 -0.1353  0.3894  0.7658
  721TIP3   OH223653   5.807   5.331   0.796 -0.1787  0.7056  0.7800
  721TIP3    H123654   5.761   5.249   0.781  0.3688  0.0537  2.4457
  721TIP3    H223655   5.751   5.379   0.858 -0.5500  1.6525 -0.2662
  722TIP3   OH223656   2.467   2.473  12.702 -0.1507  0.1003 -0.3909
  722TIP3    H123657   2.536   2.418  12.666  0.0426  0.0274  0.0915
  722TIP3    H223658   2.490   2.562  12.675  0.2282  0.0975 -0.0712
  723TIP3   OH223659   3.855   3.117  14.227  0.4654  0.1347  0.0263
  723TIP3    H123660   3.929   3.067  14.261 -0.9283 -0.7064  2.0524
  723TIP3    H223661   3.883   3.147  14.141  2.4179 -1.7615 -0.0713
  724TIP3   OH223662   2.943   5.979   3.704  0.4287  0.1104 -0.0327
  724TIP3    H123663   2.932   5.998   3.797 -2.1173 -0.0696 -0.2247
  724TIP3    H223664   3.017   5.918   3.700  1.8414  1.6253  1.6347
  725TIP3   OH223665   0.502   1.463   5.259 -0.4777  0.3135  0.3349
  725TIP3    H123666   0.532   1.403   5.190 -0.5566  0.4504  0.1793
  725TIP3    H223667   0.448   1.526   5.213 -2.0416 -0.6406  0.7950
  726TIP3   OH223668   1.509   6.200  16.249 -0.4463 -0.0202  0.3798
  726TIP3    H123669   1.492   6.111  16.281  3.3165 -0.0884  2.8566
  726TIP3    H223670   1.572   6.188  16.177 -0.6188  0.6138  0.1171
  727TIP3   OH223671   5.668   3.060   0.501  0.7638  0.4489 -0.1458
  727TIP3    H123672   5.636   2.999   0.434 -2.8953  0.5823  1.2764
  727TIP3    H223673   5.743   3.015   0.540  0.5117 -1.4183 -1.6557
  728TIP3   OH223674   4.412   6.033  12.810 -0.2787  0.0564 -0.5468
  728TIP3    H123675   4.353   6.099  12.848  0.6959  0.0445  1.0520
  728TIP3    H223676   4.445   5.985  12.885  0.9781 -0.6132 -1.5098
  729TIP3   OH223677   0.398   2.862   5.139 -0.3406 -0.0310 -0.1199
  729TIP3    H123678   0.364   2.773   5.144 -1.6148  0.4345 -0.0461
  729TIP3    H223679   0.324   2.917   5.165  0.7205  1.0008  0.8492
  730TIP3   OH223680   1.551   2.586   6.295  0.2312 -0.4412 -0.1511
  730TIP3    H123681   1.586   2.675   6.293  2.2740 -1.1990 -0.5057
  730TIP3    H223682   1.576   2.553   6.382  0.4648 -1.0228 -0.4343
  731TIP3   OH223683   1.203   5.012  13.335  0.2034  0.7593 -0.7101
  731TIP3    H123684   1.244   5.078  13.391  0.7515  0.4333 -0.7210
  731TIP3    H223685   1.274   4.954  13.310 -0.2429  0.2598 -0.8416
  732TIP3   OH223686   4.770   4.179  14.232  0.1152 -0.0840 -0.1186
  732TIP3    H123687   4.728   4.200  14.315 -0.3617 -1.0218 -0.1141
  732TIP3    H223688   4.706   4.127  14.185  1.6623 -2.6243  0.3903
  733TIP3   OH223689   2.555   2.949   2.788  0.0036  0.0193  0.1099
  733TIP3    H123690   2.554   2.855   2.808  3.3879 -0.2172 -0.2952
  733TIP3    H223691   2.538   2.991   2.872  0.4631 -0.9853  0.7359
  734TIP3   OH223692   4.621   1.191  15.931  0.1795 -0.2938 -0.2316
  734TIP3    H123693   4.626   1.113  15.875  0.2207  0.4462 -1.3009
  734TIP3    H223694   4.555   1.170  15.997  1.2205 -1.7665  0.3793
  735TIP3   OH223695   2.255   6.743   3.028  0.1123  0.0927  0.5056
  735TIP3    H123696   2.230   6.696   3.107  0.2104 -0.3286  0.2837
  735TIP3    H223697   2.242   6.836   3.051 -0.5360 -0.0581  0.7804
  736TIP3   OH223698   3.790   4.650   0.394  0.3110 -0.1088 -0.7140
  736TIP3    H123699   3.812   4.642   0.302  1.2590 -0.3320 -0.4740
  736TIP3    H223700   3.722   4.717   0.397 -1.4392 -1.7317 -1.8245
  737TIP3   OH223701   5.878   2.410   4.397  0.6652  0.1251 -0.3609
  737TIP3    H123702   5.824   2.463   4.455  1.4261  0.0247  0.4588
  737TIP3    H223703   5.907   2.471   4.329 -0.9491  0.0462 -1.1723
  738TIP3   OH223704   1.309   6.214   1.067 -0.0041 -0.8415  0.3002
  738TIP3    H123705   1.258   6.138   1.040 -0.0280 -0.0152 -2.3105
  738TIP3    H223706   1.400   6.186   1.061 -0.0371 -0.9236  0.1766
  739TIP3   OH223707   6.478   0.031   0.384  0.4583  0.6486  0.1021
  739TIP3    H123708   6.452  -0.042   0.329 -0.3127  0.9868  0.0053
  739TIP3    H223709   6.570   0.046   0.362  1.1552 -1.3519  1.3115
  740TIP3   OH223710   2.411   5.400  14.461  0.0878  0.4622  0.0540
  740TIP3    H123711   2.478   5.434  14.402 -1.3293 -0.4155 -2.1941
  740TIP3    H223712   2.407   5.306  14.441 -0.2680  0.0735  1.7697
  741TIP3   OH223713   0.563   2.393   5.889  0.0054  0.1788 -0.4438
  741TIP3    H123714   0.562   2.310   5.937  1.6484 -0.2421 -1.0649
  741TIP3    H223715   0.656   2.412   5.876 -0.2202  3.1579  1.3903
  742TIP3   OH223716   5.231   5.452   2.544  0.0767  0.1507 -0.3002
  742TIP3    H123717   5.260   5.467   2.634  0.4591 -0.5716 -0.3033
  742TIP3    H223718   5.141   5.421   2.553 -1.2556  3.5678 -0.3395
  743TIP3   OH223719   4.097   1.955  10.870 -0.0806  0.5183 -0.3302
  743TIP3    H123720   4.007   1.973  10.845 -0.1890 -0.2145 -0.5017
  743TIP3    H223721   4.143   2.038  10.856 -0.7137  0.8847 -0.2804
  744TIP3   OH223722   1.610   4.872  13.918  0.0467  0.0714 -0.2013
  744TIP3    H123723   1.549   4.841  13.851  0.8498 -1.9119 -0.0695
  744TIP3    H223724   1.664   4.936  13.872  0.7397 -1.4099 -1.5741
  745TIP3   OH223725   4.747   3.037   4.692 -0.5601 -0.1421  0.0417
  745TIP3    H123726   4.735   2.944   4.673 -2.8594 -0.1104  1.0655
  745TIP3    H223727   4.702   3.082   4.621 -0.2816  0.1804  0.0667
  746TIP3   OH223728   3.859   5.813   3.398  0.4697  0.0626 -0.4188
  746TIP3    H123729   3.871   5.719   3.406 -1.1346 -0.0258  2.1144
  746TIP3    H223730   3.943   5.846   3.365  1.8720 -2.0138  0.8776
  747TIP3   OH223731   3.040   5.605   6.064 -0.0894  0.4787 -0.0722
  747TIP3    H123732   2.961   5.632   6.110  0.4614  2.8609 -0.4354
  747TIP3    H223733   3.046   5.510   6.080 -1.6147  0.6860  2.0563
  748TIP3   OH223734   2.024   1.928   6.190  0.5534 -0.9216  0.1793
  748TIP3    H123735   1.982   1.851   6.153  0.1887 -0.3193 -0.6808
  748TIP3    H223736   1.982   2.002   6.146 -0.2278 -0.1452  2.1185
  749TIP3   OH223737   1.148   2.334   0.990 -0.0721 -0.1879 -0.1857
  749TIP3    H123738   1.076   2.273   1.009  0.1915 -0.7229 -0.8272
  749TIP3    H223739   1.105   2.418   0.975 -0.5048 -0.3615  0.0541
  750TIP3   OH223740   1.488   5.267  14.731  0.2214  0.1703 -0.5253
  750TIP3    H123741   1.396   5.277  14.707  0.4298 -0.0361 -1.4583
  750TIP3    H223742   1.486   5.233  14.821 -0.6587 -1.8285 -1.2585
  751TIP3   OH223743   0.328   2.908   0.863 -0.4733 -0.1691  0.2790
  751TIP3    H123744   0.296   2.867   0.944 -0.8682  1.2613  0.8867
  751TIP3    H223745   0.281   2.863   0.793  0.1910 -1.7291  0.7983
  752TIP3   OH223746   0.262   3.281   4.440  0.4293 -1.1678  0.3144
  752TIP3    H123747   0.186   3.256   4.493  0.0460  0.2199  0.4705
  752TIP3    H223748   0.336   3.274   4.500 -0.2244  2.2341  1.7487
  753TIP3   OH223749   5.192   3.729  12.281 -0.5442  1.2859 -0.5731
  753TIP3    H123750   5.134   3.707  12.354  0.8568  0.8189  0.4485
  753TIP3    H223751   5.189   3.652  12.224 -0.3118  0.9226 -0.1032
  754TIP3   OH223752   0.761   4.364  15.357 -0.2630 -0.2494  0.8573
  754TIP3    H123753   0.821   4.438  15.368 -1.8247  1.6907 -2.0459
  754TIP3    H223754   0.786   4.326  15.273 -3.5233  1.3328 -1.0552
  755TIP3   OH223755   4.875   3.868  15.213 -0.5335  0.3989 -0.2445
  755TIP3    H123756   4.883   3.785  15.260  1.5373  0.0092 -1.1656
  755TIP3    H223757   4.810   3.852  15.145 -0.6340 -0.2745  0.0058
  756TIP3   OH223758   4.203   4.116   0.427  1.0328 -0.0894 -0.6312
  756TIP3    H123759   4.284   4.159   0.456  1.2475 -0.1090 -1.2020
  756TIP3    H223760   4.166   4.080   0.508  2.7686 -2.1127 -0.6659
  757TIP3   OH223761   1.393   3.837  14.313 -0.1631  0.1834  0.3867
  757TIP3    H123762   1.480   3.814  14.344  0.0895 -0.6896 -0.8872
  757TIP3    H223763   1.348   3.871  14.391  0.4197 -1.8897  1.6982
  758TIP3   OH223764   4.732   1.159   2.816 -0.3391  0.3935 -0.2914
  758TIP3    H123765   4.774   1.151   2.902  0.2039 -2.2763 -0.7013
  758TIP3    H223766   4.639   1.153   2.834 -0.2104 -3.5193  0.0454
  759TIP3   OH223767   4.833   1.414  12.737 -0.2856 -0.3073 -0.4855
  759TIP3    H123768   4.744   1.446  12.755  0.4589  0.9618  1.2724
  759TIP3    H223769   4.882   1.493  12.716  0.3157 -1.0765 -2.0792
  760TIP3   OH223770   5.590   5.359  11.911 -0.4706  0.4713  0.4863
  760TIP3    H123771   5.656   5.333  11.975  0.5345 -0.1209 -0.7267
  760TIP3    H223772   5.510   5.371  11.962  0.4440  0.6901  1.9286
  761TIP3   OH223773   4.990   6.007  11.943 -0.1160 -0.3593 -0.2190
  761TIP3    H123774   4.981   6.067  12.017 -2.0885 -0.6280 -0.2058
  761TIP3    H223775   5.085   5.993  11.935  0.1706 -0.0573  2.0335
  762TIP3   OH223776   2.038   1.178  14.071  0.9032 -0.2165  0.0498
  762TIP3    H123777   2.071   1.161  14.159 -0.2735 -2.2731  0.1699
  762TIP3    H223778   2.025   1.091  14.033 -0.6716  0.5627 -1.3443
  763TIP3   OH223779   6.630   5.337  12.831  0.4819 -0.2571  0.1617
  763TIP3    H123780   6.682   5.257  12.833  3.8523  1.7030  2.1226
  763TIP3    H223781   6.604   5.350  12.922  1.9856  1.8851  0.3798
  764TIP3   OH223782   5.513   0.261   0.697 -0.9206 -0.3373  0.2730
  764TIP3    H123783   5.608   0.259   0.709 -1.1139 -0.8789  2.0728
  764TIP3    H223784   5.495   0.349   0.665  0.2297 -0.4174 -0.6605
  765TIP3   OH223785   2.302   6.351   4.460  0.3286  0.7304  0.7663
  765TIP3    H123786   2.311   6.316   4.549  0.4228  1.4482  1.0558
  765TIP3    H223787   2.278   6.443   4.474 -1.4416  0.4128  0.0486
  766TIP3   OH223788   2.437   1.660   3.315 -0.2307  0.0656  0.4971
  766TIP3    H123789   2.481   1.577   3.331  1.5665  0.4628 -1.8314
  766TIP3    H223790   2.482   1.723   3.370  1.2089  0.1879 -0.7574
  767TIP3   OH223791   6.636   1.067   2.909  0.1204 -1.0729 -0.2372
  767TIP3    H123792   6.581   1.115   2.847  1.1015  0.0244 -0.3097
  767TIP3    H223793   6.585   1.062   2.989 -1.1566 -2.4793 -1.0840
  768TIP3   OH223794   3.908   5.127  11.399 -0.2466 -0.3395  0.0874
  768TIP3    H123795   3.929   5.048  11.448 -1.0188  0.4904  1.8443
  768TIP3    H223796   3.990   5.151  11.356  0.1447 -1.7481  0.0017
  769TIP3   OH223797   1.093   1.055   3.771  0.3680 -0.2651  0.1944
  769TIP3    H123798   1.159   0.989   3.752  0.1883 -0.7311  1.1398
  769TIP3    H223799   1.014   1.023   3.728  0.7994  0.4405 -1.1912
  770TIP3   OH223800   0.023   5.434  12.153  0.5460 -1.2308 -0.5025
  770TIP3    H123801  -0.065   5.405  12.178 -0.0499  1.0090  0.2451
  770TIP3    H223802   0.073   5.431  12.235 -0.1652  1.7998  0.1794
  771TIP3   OH223803   0.997   3.512  12.606  0.0392  0.3301 -0.0311
  771TIP3    H123804   1.022   3.512  12.699 -0.4584  0.1685  0.1034
  771TIP3    H223805   1.055   3.446  12.566 -0.5327 -0.4364  0.3815
  772TIP3   OH223806   3.989   0.848   2.880  0.8538 -0.7285 -0.2126
  772TIP3    H123807   3.905   0.877   2.844  0.6907  1.2674  1.5456
  772TIP3    H223808   4.053   0.865   2.811  0.3912  1.8160 -0.1017
  773TIP3   OH223809   2.624   5.922  16.982 -0.2676  0.6588 -0.2947
  773TIP3    H123810   2.563   5.873  17.039 -2.9566  2.0287 -1.7850
  773TIP3    H223811   2.585   6.009  16.976  2.4788  1.9486 -0.5490
  774TIP3   OH223812   2.848   2.325   0.858 -0.0136 -0.8899  0.0437
  774TIP3    H123813   2.839   2.245   0.807  1.4435 -0.1440 -1.4472
  774TIP3    H223814   2.870   2.393   0.794  1.2562  0.2022  1.5495
  775TIP3   OH223815   6.528   4.273  10.911  0.0514 -0.1366  0.2833
  775TIP3    H123816   6.469   4.323  10.855  1.2218  1.1592  0.1376
  775TIP3    H223817   6.485   4.188  10.922 -0.6336 -0.1428 -1.8738
  776TIP3   OH223818   2.868   0.934   3.439  0.2677  0.0212 -0.3235
  776TIP3    H123819   2.925   0.953   3.365  1.1203  0.8769  0.5285
  776TIP3    H223820   2.898   0.849   3.471  0.0288 -0.2564 -0.8206
  777TIP3   OH223821   1.757   5.258  15.132 -0.0334 -0.3885 -0.0064
  777TIP3    H123822   1.701   5.186  15.160  1.6822 -1.5652  0.5676
  777TIP3    H223823   1.760   5.316  15.207  1.0614 -1.3343  0.7164
  778TIP3   OH223824   4.327   4.352   1.360 -1.2624  0.7037  0.9028
  778TIP3    H123825   4.405   4.405   1.341 -1.2019  0.2696 -0.1241
  778TIP3    H223826   4.363   4.271   1.397 -1.1904  0.3639  0.1107
  779TIP3   OH223827   2.709   2.303  17.180 -0.3757 -0.4146  0.2892
  779TIP3    H123828   2.754   2.281  17.098  0.4316  2.4255 -0.1474
  779TIP3    H223829   2.687   2.218  17.219  1.2993 -1.8796 -1.7110
  780TIP3   OH223830   6.312   4.604   4.744  0.1389  0.1611 -0.0708
  780TIP3    H123831   6.357   4.582   4.825 -0.4888 -0.6873  0.0556
  780TIP3    H223832   6.340   4.537   4.682  0.4400  0.6759 -0.4962
  781TIP3   OH223833   1.187   5.038   5.435  0.8115  0.1613 -0.1020
  781TIP3    H123834   1.274   5.009   5.462  1.4596  1.7092 -0.3877
  781TIP3    H223835   1.203   5.094   5.359 -0.6505 -1.2441 -1.5132
  782TIP3   OH223836   4.720   2.366  15.130 -0.2712  0.0515 -0.5517
  782TIP3    H123837   4.628   2.369  15.156 -0.5166  0.1217 -1.3984
  782TIP3    H223838   4.759   2.301  15.188 -1.3428 -1.6503 -1.6625
  783TIP3   OH223839   3.518   6.455  16.937 -0.7762 -0.2700  0.3633
  783TIP3    H123840   3.468   6.467  16.856 -1.6136 -1.6028  0.6640
  783TIP3    H223841   3.455   6.474  17.007 -0.1680  0.4779  0.7228
  784TIP3   OH223842   5.666   2.859   5.031  0.2306 -0.0582 -0.7007
  784TIP3    H123843   5.595   2.921   5.048  0.1858 -0.2501 -0.1617
  784TIP3    H223844   5.661   2.797   5.104  1.1383  0.0913 -0.4981
  785TIP3   OH223845   5.465   2.800  16.666 -0.7869  0.3387 -0.2895
  785TIP3    H123846   5.499   2.802  16.755 -1.5189 -0.0025  0.0092
  785TIP3    H223847   5.370   2.808  16.676 -1.3263 -3.5578 -0.7344
  786TIP3   OH223848   1.906   6.366  13.483 -0.4263  0.5147 -0.0776
  786TIP3    H123849   1.859   6.292  13.522  0.1516  0.1367 -0.1002
  786TIP3    H223850   1.980   6.382  13.542 -1.1844  1.8284  0.5744
  787TIP3   OH223851   2.129   6.199   4.266  0.6231 -0.2996  0.0656
  787TIP3    H123852   2.177   6.261   4.321  1.8367 -0.5102 -0.7128
  787TIP3    H223853   2.157   6.113   4.296 -0.0853 -0.4479  0.3059
  788TIP3   OH223854   6.756   1.002   5.179  0.5252  0.0007 -0.1912
  788TIP3    H123855   6.703   0.984   5.101 -1.7802  0.0452  1.2487
  788TIP3    H223856   6.737   0.929   5.237  1.0769  0.6797  0.8691
  789TIP3   OH223857   5.770   0.542   1.692 -0.2330 -0.1420 -0.3628
  789TIP3    H123858   5.768   0.446   1.698 -1.9325 -0.1112  0.0231
  789TIP3    H223859   5.759   0.572   1.782 -0.3763  0.4214 -0.5635
  790TIP3   OH223860   1.356   0.178  16.968  0.0929  0.0075 -0.1934
  790TIP3    H123861   1.447   0.182  16.996  0.3330 -0.0337 -0.9559
  790TIP3    H223862   1.310   0.237  17.027  0.5193 -0.3765  0.5408
  791TIP3   OH223863   4.100   6.651  14.947  0.2062 -0.0195 -0.1369
  791TIP3    H123864   4.173   6.634  14.887 -1.2562 -0.7241 -1.8169
  791TIP3    H223865   4.056   6.567  14.955  0.0761  0.1698  1.6216
  792TIP3   OH223866   4.026   0.631   1.786 -0.4123 -0.8008 -0.3135
  792TIP3    H123867   4.039   0.618   1.880 -0.3997  1.4170  0.0482
  792TIP3    H223868   4.092   0.575   1.745  1.2349  0.0057  1.0919
  793TIP3   OH223869   0.746   0.624  13.085  0.0516  0.2957 -0.7885
  793TIP3    H123870   0.679   0.643  13.020  0.8376  1.3776 -1.3213
  793TIP3    H223871   0.767   0.708  13.124 -0.5028 -0.3545  1.0042
  794TIP3   OH223872   5.442   1.890  11.728 -0.1760 -0.1059 -0.3772
  794TIP3    H123873   5.449   1.944  11.649 -0.2149  0.8940  0.2809
  794TIP3    H223874   5.406   1.949  11.794 -0.5618 -1.0510  0.2745
  795TIP3   OH223875   6.030   2.615  15.038  0.1171  0.4384 -0.1536
  795TIP3    H123876   5.944   2.657  15.031 -0.0420  0.6140  2.1400
  795TIP3    H223877   6.075   2.663  15.107  0.5036 -2.1495  1.5477
  796TIP3   OH223878   5.813   4.004  11.552 -0.1272  0.0399  0.2715
  796TIP3    H123879   5.896   4.029  11.593  0.3680 -1.3787  0.1959
  796TIP3    H223880   5.805   4.063  11.477  1.0912 -0.1476 -0.0331
  797TIP3   OH223881   6.314   4.150   4.939  0.9210  0.3732 -0.8609
  797TIP3    H123882   6.377   4.178   5.006  1.0071  1.6340 -1.4411
  797TIP3    H223883   6.253   4.223   4.931  2.4754  1.4834 -4.0729
  798TIP3   OH223884   6.495   3.615   2.363  0.5933  0.3253  0.3542
  798TIP3    H123885   6.479   3.628   2.456  2.5779 -1.4212  1.0274
  798TIP3    H223886   6.554   3.540   2.359 -1.4880 -1.3581 -2.4897
  799TIP3   OH223887   1.828   0.730  15.716  0.4424 -0.1123 -0.6198
  799TIP3    H123888   1.747   0.685  15.741  0.4005  0.2703 -0.0470
  799TIP3    H223889   1.817   0.819  15.750  2.2355 -0.7537  1.8978
  800TIP3   OH223890   1.032   1.342   3.269  0.5625 -0.3046 -0.0473
  800TIP3    H123891   1.010   1.309   3.182 -0.3371  1.6559 -0.5987
  800TIP3    H223892   1.060   1.264   3.317  2.6412 -1.2519 -2.5234
  801TIP3   OH223893   4.617   4.618  12.999  0.5296 -0.0023  0.4733
  801TIP3    H123894   4.594   4.650  13.086 -0.8207  0.9098 -0.1820
  801TIP3    H223895   4.613   4.522  13.007 -3.2431  0.0106  0.6224
  802TIP3   OH223896   1.935   2.438   0.353 -0.0951  0.4733 -0.6167
  802TIP3    H123897   1.926   2.533   0.362 -0.1476  0.3471  0.7949
  802TIP3    H223898   2.004   2.427   0.288 -0.5053  1.4673 -1.2497
  803TIP3   OH223899   5.320   6.453   4.390  0.5143 -0.3173 -0.2533
  803TIP3    H123900   5.344   6.533   4.436  1.8001 -0.3270 -0.8677
  803TIP3    H223901   5.336   6.383   4.453  0.8831 -0.2162 -0.2340
  804TIP3   OH223902   3.622   5.229  13.063  0.2516 -0.0448 -0.6069
  804TIP3    H123903   3.576   5.258  13.142  0.3769 -1.8711  0.1849
  804TIP3    H223904   3.566   5.160  13.027 -0.5169  1.6868 -2.9596
  805TIP3   OH223905   1.199   6.802   4.246 -0.8093 -0.4233 -0.1097
  805TIP3    H123906   1.228   6.711   4.254 -0.2221 -0.1254  1.4425
  805TIP3    H223907   1.266   6.853   4.291 -1.1645  0.7900 -0.9048
  806TIP3   OH223908   5.167   2.349  16.734  0.2264 -0.6559 -0.0027
  806TIP3    H123909   5.104   2.330  16.804  0.4088 -1.3297 -0.0091
  806TIP3    H223910   5.158   2.276  16.673  0.7379 -0.5617 -0.1979
  807TIP3   OH223911   4.705   2.529  15.635  0.0037  0.2568  0.4582
  807TIP3    H123912   4.618   2.543  15.599 -0.2779 -0.2710  0.9366
  807TIP3    H223913   4.755   2.605  15.605 -0.1108 -0.3358 -1.3597
  808TIP3   OH223914   1.452   4.388  11.441 -0.2888 -0.1746 -0.5630
  808TIP3    H123915   1.389   4.434  11.497  3.2460  2.5580  1.5726
  808TIP3    H223916   1.416   4.397  11.353 -1.7417  3.5677  0.2155
  809TIP3   OH223917   6.311   0.695   1.335 -0.2930 -0.3048  0.1783
  809TIP3    H123918   6.333   0.651   1.417 -1.0748  1.3848  1.3516
  809TIP3    H223919   6.262   0.630   1.285 -2.2895 -0.5204  2.2803
  810TIP3   OH223920   0.852   3.685   5.012 -0.1554  0.4743  0.3305
  810TIP3    H123921   0.939   3.655   5.039  0.0271  1.1719  0.5317
  810TIP3    H223922   0.792   3.623   5.052  0.2282  0.2467  0.5637
  811TIP3   OH223923   1.062   5.345   1.313 -0.1676 -0.0165 -0.1062
  811TIP3    H123924   0.973   5.371   1.291  0.4254  1.3096 -1.0654
  811TIP3    H223925   1.077   5.265   1.263 -1.3030 -1.1168  1.2372
  812TIP3   OH223926   5.027   5.300  16.974 -0.3532  1.2368 -0.4333
  812TIP3    H123927   4.972   5.280  16.899 -0.4716  0.5236 -0.1665
  812TIP3    H223928   5.114   5.266  16.949 -0.7832 -0.5932  0.4211
  813TIP3   OH223929   5.212   5.685   1.398  0.0527  0.7153  0.2005
  813TIP3    H123930   5.275   5.659   1.466  0.2210 -0.5465 -0.4102
  813TIP3    H223931   5.265   5.728   1.331  0.2725 -0.2507 -0.2636
  814TIP3   OH223932   6.790   6.389  13.711 -0.5068 -0.1784  0.1509
  814TIP3    H123933   6.795   6.294  13.724  1.4473 -0.2437 -0.6575
  814TIP3    H223934   6.716   6.402  13.652  0.5481 -1.4746 -1.5707
  815TIP3   OH223935   1.775   0.076   0.469 -0.6420 -0.2811  0.7613
  815TIP3    H123936   1.866   0.073   0.497 -0.6779 -0.1223  0.8946
  815TIP3    H223937   1.774   0.030   0.384 -0.4784 -0.4780  0.8661
  816TIP3   OH223938   3.161   1.249  17.077 -0.4205 -0.0687  0.3176
  816TIP3    H123939   3.240   1.247  17.023 -1.8726 -0.3267 -1.9339
  816TIP3    H223940   3.167   1.330  17.126  1.8100 -0.6855  1.1575
  817TIP3   OH223941   0.045   5.776   1.417 -0.0170 -0.1984  0.2337
  817TIP3    H123942   0.037   5.771   1.513  0.9017 -0.1027  0.3247
  817TIP3    H223943   0.113   5.842   1.402  0.2017 -0.5659 -0.4656
  818TIP3   OH223944   5.299   5.027  16.694 -0.1029  0.1649  0.2858
  818TIP3    H123945   5.277   5.114  16.729  1.6613  0.2734  1.1956
  818TIP3    H223946   5.245   4.966  16.744 -0.1916  0.6039  0.7288
  819TIP3   OH223947   0.320   0.001   2.936 -0.0605 -0.4042  0.6203
  819TIP3    H123948   0.273   0.082   2.955  3.5315  1.7592  1.2453
  819TIP3    H223949   0.313  -0.051   3.016 -0.8455  0.1008  0.8908
  820TIP3   OH223950   2.668   2.500   1.034 -0.2103 -0.1593  0.0936
  820TIP3    H123951   2.713   2.471   0.955  1.7379 -0.5965  1.2881
  820TIP3    H223952   2.622   2.422   1.065 -2.6699  0.5140 -1.6158
  821TIP3   OH223953   5.054   0.064   1.708  0.2680 -0.2379  0.0542
  821TIP3    H123954   5.054   0.086   1.802 -1.1135 -0.4784  0.1291
  821TIP3    H223955   5.146   0.047   1.688  0.6367  0.1740  1.2851
  822TIP3   OH223956   4.737   2.883   3.046 -0.0900  0.0139 -0.5276
  822TIP3    H123957   4.777   2.805   3.083  1.5152  0.7196 -0.7040
  822TIP3    H223958   4.648   2.884   3.082 -0.2533 -2.0275 -0.7616
  823TIP3   OH223959   2.121   2.321  15.754 -0.1702 -0.3036  0.0479
  823TIP3    H123960   2.144   2.407  15.717 -1.9090 -0.1249 -0.7302
  823TIP3    H223961   2.048   2.339  15.812 -2.1279 -1.4817 -1.8873
  824TIP3   OH223962   3.540   5.270  12.018 -0.0282 -0.5002  0.5624
  824TIP3    H123963   3.450   5.238  12.010 -0.8327  1.6666  0.0487
  824TIP3    H223964   3.564   5.297  11.930 -0.8522  3.5856  1.3804
  825TIP3   OH223965   0.672   1.618   1.133 -0.0240 -0.2001  0.8972
  825TIP3    H123966   0.699   1.556   1.201 -0.1873 -1.2027  0.0809
  825TIP3    H223967   0.696   1.575   1.051 -0.1092  0.8527  0.3068
  826TIP3   OH223968   3.625   0.448  14.627  0.5995  0.2279  0.2846
  826TIP3    H123969   3.564   0.386  14.587 -0.1821  1.1845 -0.0710
  826TIP3    H223970   3.667   0.399  14.697  0.1438 -0.7491 -0.0958
  827TIP3   OH223971   0.982   4.428   2.759  0.2873  0.0666 -0.0160
  827TIP3    H123972   0.893   4.417   2.725 -0.0366  3.8359 -0.8500
  827TIP3    H223973   1.038   4.423   2.682  0.5065  0.1946  0.1351
  828TIP3   OH223974   0.435   3.397  12.804 -0.1416 -0.0324 -0.1422
  828TIP3    H123975   0.394   3.363  12.884 -1.3930  2.4132  0.3611
  828TIP3    H223976   0.415   3.491  12.805  2.5358  0.6583 -1.7364
  829TIP3   OH223977   3.775   3.150  10.657 -0.5153 -0.3338 -0.5787
  829TIP3    H123978   3.823   3.097  10.721  0.0932  0.2225 -0.5615
  829TIP3    H223979   3.824   3.139  10.575 -0.0795  0.5941 -0.4565
  830TIP3   OH223980   1.990   4.207   1.853 -0.5740 -0.5583 -0.3538
  830TIP3    H123981   2.007   4.153   1.930 -0.9475 -2.1231 -1.2995
  830TIP3    H223982   1.938   4.150   1.795  0.5228  0.1894 -2.1747
  831TIP3   OH223983   5.554   4.360   4.667  0.4218  0.4664  0.0190
  831TIP3    H123984   5.471   4.338   4.709  1.4048 -0.5634  1.5734
  831TIP3    H223985   5.542   4.448   4.633 -1.5106  0.0725 -0.4127
  832TIP3   OH223986   2.509   0.108  15.579 -0.2731  0.3730  0.1017
  832TIP3    H123987   2.507   0.012  15.574  0.9475  0.3025  0.5653
  832TIP3    H223988   2.476   0.138  15.495  0.0295 -0.4645 -0.3193
  833TIP3   OH223989   5.207   5.521   5.431 -0.2898 -0.1413 -0.3406
  833TIP3    H123990   5.183   5.514   5.524 -0.2522  0.0610 -0.3162
  833TIP3    H223991   5.171   5.441   5.391  1.1002 -1.0533  0.1443
  834TIP3   OH223992   2.693   6.069   4.587 -0.0416  0.0551 -0.1567
  834TIP3    H123993   2.709   5.983   4.550  1.6675  0.2312  0.0678
  834TIP3    H223994   2.655   6.052   4.673 -0.8520 -0.4307 -0.6056
  835TIP3   OH223995   3.369   2.523  15.430 -0.8747 -0.2731 -1.2190
  835TIP3    H123996   3.296   2.468  15.457 -0.6831 -0.0451 -0.2179
  835TIP3    H223997   3.447   2.467  15.439 -0.6578  0.2035 -0.0186
  836TIP3   OH223998   6.581   0.625   4.340 -0.2404 -0.0281 -0.0549
  836TIP3    H123999   6.653   0.681   4.367  0.3782 -0.7136 -0.2436
  836TIP3    H224000   6.549   0.664   4.259 -1.2161  1.2529  0.9103
  837TIP3   OH224001   5.643   6.670   6.106  0.3533  0.0024 -0.3779
  837TIP3    H124002   5.613   6.589   6.064 -0.0668 -0.2821  0.4563
  837TIP3    H224003   5.652   6.648   6.198 -1.5470  1.3928  0.1934
  838TIP3   OH224004   1.385   1.085   0.446 -0.2253 -0.1872  0.2620
  838TIP3    H124005   1.415   1.097   0.536 -0.1152  0.7757  0.1122
  838TIP3    H224006   1.378   0.991   0.435 -1.1570 -0.2936  1.5841
  839TIP3   OH224007   4.542   1.066  13.568 -0.2423  0.0237  0.8443
  839TIP3    H124008   4.606   1.049  13.637 -0.8580 -1.1190  1.1603
  839TIP3    H224009   4.460   1.029  13.601 -0.8389  0.5542  0.0136
  840TIP3   OH224010   1.658   0.332   5.705  0.1637 -0.5647  0.1590
  840TIP3    H124011   1.622   0.420   5.714 -0.4454 -0.6403 -1.2601
  840TIP3    H224012   1.649   0.294   5.792  0.0254  0.6165  0.6830
  841TIP3   OH224013   0.955   4.698  16.046  0.0823 -0.2852  0.6328
  841TIP3    H124014   0.884   4.646  16.009  0.5362 -0.2774 -0.2680
  841TIP3    H224015   1.019   4.634  16.075 -0.2637 -0.2916  1.4373
  842TIP3   OH224016   1.613   1.388  14.101  0.4131 -0.3207 -0.0598
  842TIP3    H124017   1.549   1.411  14.034 -2.9340  0.4500  3.0567
  842TIP3    H224018   1.686   1.449  14.086 -1.9154  2.5649 -0.7497
  843TIP3   OH224019   0.207   1.763  12.798  0.3887  0.1446 -0.1050
  843TIP3    H124020   0.209   1.852  12.763  3.1914  0.7714  1.3192
  843TIP3    H224021   0.140   1.765  12.866  0.0815  1.0247 -0.4220
  844TIP3   OH224022   3.076   3.340   2.277 -0.0900  0.5437  0.0757
  844TIP3    H124023   3.123   3.307   2.354  1.1906  0.1723 -0.8256
  844TIP3    H224024   2.984   3.334   2.301  0.2520 -0.2728  1.2992
  845TIP3   OH224025   3.047   6.268  16.629  0.4969  0.0330 -0.5474
  845TIP3    H124026   3.068   6.203  16.696 -3.1220  0.5482  1.3525
  845TIP3    H224027   3.043   6.351  16.677 -0.6156  0.6711 -1.6951
  846TIP3   OH224028   3.813   3.295   2.570 -0.2407  0.4990 -0.1193
  846TIP3    H124029   3.874   3.222   2.569 -0.2727  0.4671 -1.3436
  846TIP3    H224030   3.816   3.328   2.660 -0.6832 -1.3666  0.6259
  847TIP3   OH224031   0.640   1.881  12.235 -0.4995  0.4735 -0.7015
  847TIP3    H124032   0.722   1.833  12.244  0.2997  2.0342  1.0746
  847TIP3    H224033   0.573   1.818  12.260  0.4874  0.1568  1.3843
  848TIP3   OH224034   5.040   0.835  16.522  0.0570  0.2098 -0.2108
  848TIP3    H124035   5.030   0.852  16.428  2.7315 -3.7268 -1.4903
  848TIP3    H224036   5.110   0.895  16.549 -0.4220  1.0701 -0.8247
  849TIP3   OH224037   1.621   2.618   2.042  0.2628  0.3775 -0.0087
  849TIP3    H124038   1.697   2.569   2.073  0.0724 -0.1659 -0.3742
  849TIP3    H224039   1.549   2.588   2.097 -0.0890 -0.6361 -0.9810
  850TIP3   OH224040   0.789   5.350   1.909  1.0965  1.1237  0.0068
  850TIP3    H124041   0.710   5.404   1.920 -0.4629 -1.1570  0.8291
  850TIP3    H224042   0.819   5.335   1.999  1.6422  0.8321 -0.2261
  851TIP3   OH224043   2.071   6.330   6.214 -0.2585 -0.2425 -0.4292
  851TIP3    H124044   2.115   6.278   6.282 -1.1584  1.0093  1.1664
  851TIP3    H224045   2.140   6.350   6.151  1.2628  0.7583  1.4459
  852TIP3   OH224046   2.756   6.089   2.538 -0.5306  0.2010  0.0158
  852TIP3    H124047   2.798   6.057   2.458  0.9868  0.9738  0.4638
  852TIP3    H224048   2.681   6.031   2.550 -0.3263 -0.4355 -1.5208
  853TIP3   OH224049   6.007   0.135  11.977  0.1145  0.3685  0.3005
  853TIP3    H124050   5.947   0.103  11.910  0.1183  0.6426  0.1612
  853TIP3    H224051   6.092   0.140  11.932  0.5522 -1.3303  0.8713
  854TIP3   OH224052   1.130   0.385   4.189  0.0138  0.2994 -0.3156
  854TIP3    H124053   1.089   0.470   4.202  1.1416  0.5688  2.1999
  854TIP3    H224054   1.200   0.401   4.126  0.2960  1.2937  0.2255
  855TIP3   OH224055   4.232   4.134   3.856  0.2510  0.0464 -0.7395
  855TIP3    H124056   4.227   4.051   3.809  0.0487 -1.3808  1.6268
  855TIP3    H224057   4.178   4.194   3.805 -2.2963 -2.1536 -0.8611
  856TIP3   OH224058   3.889   0.697  14.675 -0.2131  0.4036  0.1613
  856TIP3    H124059   3.958   0.762  14.661 -2.4311  2.5850 -1.4912
  856TIP3    H224060   3.900   0.634  14.604  1.5868 -0.8058  1.4285
  857TIP3   OH224061   6.322   5.115  12.287 -0.0828 -0.3392 -0.3406
  857TIP3    H124062   6.356   5.035  12.328  1.1066  0.2260 -0.1850
  857TIP3    H224063   6.367   5.186  12.332 -1.4705  0.4622 -0.1581
  858TIP3   OH224064   0.162   6.241   5.332  0.0536 -0.1661 -0.5608
  858TIP3    H124065   0.231   6.285   5.381  0.1625 -0.0284 -0.8343
  858TIP3    H224066   0.085   6.297   5.342 -0.1997 -0.6462  0.2801
  859TIP3   OH224067   4.562   6.820   6.174 -0.3309  0.0033 -0.3323
  859TIP3    H124068   4.584   6.886   6.240  0.9878 -0.0043 -0.7240
  859TIP3    H224069   4.608   6.741   6.203 -0.8246 -0.3722 -0.5628
  860TIP3   OH224070   1.899   4.086  13.613  0.0279 -1.0701 -0.2186
  860TIP3    H124071   1.808   4.114  13.606  0.5135  0.8726  0.5803
  860TIP3    H224072   1.947   4.147  13.557  1.0650 -0.7083  1.0172
  861TIP3   OH224073   2.952   2.865   3.382 -0.1179 -0.3470  0.3262
  861TIP3    H124074   2.889   2.914   3.436  1.1408  0.1928  1.3534
  861TIP3    H224075   2.929   2.888   3.292 -0.0507  1.5769  0.7467
  862TIP3   OH224076   6.300   3.218  12.034  0.1915  0.4292 -0.2452
  862TIP3    H124077   6.275   3.310  12.025  1.0966  0.6476 -0.5748
  862TIP3    H224078   6.217   3.173  12.053 -0.1045  1.4360  0.9680
  863TIP3   OH224079   3.433   0.624   2.315 -0.4524 -0.2483 -0.5450
  863TIP3    H124080   3.486   0.695   2.279 -0.6028 -0.4921 -1.2574
  863TIP3    H224081   3.473   0.605   2.400 -0.5278  0.8126 -0.2592
  864TIP3   OH224082   0.597   3.562   2.713  0.2945  0.0429  0.0107
  864TIP3    H124083   0.619   3.553   2.806 -0.0540 -2.8101 -0.0773
  864TIP3    H224084   0.586   3.656   2.700  1.2848  0.6221  2.6189
  865TIP3   OH224085   1.643   3.442  16.571  0.2519 -0.0760  0.0478
  865TIP3    H124086   1.614   3.458  16.660  0.2440 -0.6479  0.1546
  865TIP3    H224087   1.737   3.462  16.572  0.1601  0.3537  0.0694
  866TIP3   OH224088   5.321   2.031   2.027 -0.2311 -0.4813 -0.4573
  866TIP3    H124089   5.377   2.108   2.019  1.2776 -1.4631  0.3069
  866TIP3    H224090   5.233   2.067   2.036  0.4520  1.1633  0.0336
  867TIP3   OH224091   1.560   5.984  15.104  0.0267 -0.0102 -0.3570
  867TIP3    H124092   1.556   5.921  15.175  0.8165  0.4467  0.1063
  867TIP3    H224093   1.477   5.973  15.058  0.3964 -1.8043 -0.6645
  868TIP3   OH224094   3.113   2.904   2.922  0.2051 -0.6093 -0.4644
  868TIP3    H124095   3.054   2.833   2.948 -1.3681  0.0474 -2.0407
  868TIP3    H224096   3.124   2.956   3.001 -1.5336 -0.6429 -0.1496
  869TIP3   OH224097   6.146   4.040  16.202 -0.3427 -0.0863 -0.1561
  869TIP3    H124098   6.153   4.098  16.126 -0.3141  0.8038  0.5041
  869TIP3    H224099   6.053   4.043  16.226 -1.2308 -3.4413 -2.4469
  870TIP3   OH224100   2.745   5.424  15.616  0.5107  0.1213 -0.6095
  870TIP3    H124101   2.751   5.484  15.690  0.4661  1.1695 -1.4401
  870TIP3    H224102   2.705   5.476  15.546 -0.4144 -1.1535 -1.0614
  871TIP3   OH224103   2.115   0.098  16.644 -0.3209  0.0166  0.0039
  871TIP3    H124104   2.180   0.167  16.630 -1.1452  0.6567 -0.8086
  871TIP3    H224105   2.135   0.032  16.578  0.3262 -0.4248  0.6322
  872TIP3   OH224106   0.085   0.276  12.076 -0.7068 -0.2139 -0.9126
  872TIP3    H124107   0.061   0.190  12.112  0.8472 -0.2789  0.0720
  872TIP3    H224108   0.133   0.255  11.996 -0.2022 -0.2795 -0.5964
  873TIP3   OH224109   6.200   1.160   4.653 -0.0110 -0.3895  0.2169
  873TIP3    H124110   6.244   1.081   4.687 -0.5007 -1.0290 -0.6009
  873TIP3    H224111   6.271   1.212   4.615  0.0847 -1.4311 -1.1170
  874TIP3   OH224112   2.691   1.040   1.856 -0.5800 -0.0210 -0.4658
  874TIP3    H124113   2.710   1.100   1.784 -0.3292 -0.3413 -0.6676
  874TIP3    H224114   2.604   1.066   1.886  0.1273  1.4275  0.4412
  875TIP3   OH224115   2.306   0.043   2.742 -0.5062 -0.0132  0.3688
  875TIP3    H124116   2.271  -0.028   2.795 -0.3971 -0.8748 -0.6813
  875TIP3    H224117   2.396   0.055   2.773 -1.0467  0.8461  1.7004
  876TIP3   OH224118   5.316   1.386   4.618 -0.6557  0.1676 -0.3387
  876TIP3    H124119   5.339   1.454   4.681 -2.3491  0.2405  0.2370
  876TIP3    H224120   5.337   1.304   4.663  0.2086  0.2480 -0.5613
  877TIP3   OH224121   6.512   0.570   3.019 -0.0105 -0.8014  0.6698
  877TIP3    H124122   6.451   0.538   3.086  0.4015 -1.3345  0.7986
  877TIP3    H224123   6.594   0.524   3.037 -0.2365 -1.9057 -0.9474
  878TIP3   OH224124   0.823   3.144  16.849 -0.7138 -0.1292  0.1391
  878TIP3    H124125   0.769   3.080  16.896 -1.2039 -0.8563 -1.3650
  878TIP3    H224126   0.780   3.228  16.864  0.2321  0.0166  2.5883
  879TIP3   OH224127   2.506   3.988  15.832 -0.4954 -0.2680  0.1095
  879TIP3    H124128   2.494   3.955  15.743  0.5014 -3.4045  1.0269
  879TIP3    H224129   2.601   3.991  15.843 -0.5360  2.4413  0.3489
  880TIP3   OH224130   5.993   5.905   2.405  0.3047  0.4070 -0.2517
  880TIP3    H124131   6.065   5.846   2.383  0.3766  0.4824 -0.2201
  880TIP3    H224132   6.007   5.926   2.498 -1.0782 -1.4291  0.4286
  881TIP3   OH224133   5.058   4.546   3.388  0.0857  0.2535  0.0108
  881TIP3    H124134   5.091   4.514   3.304  1.0374  0.8618  0.1331
  881TIP3    H224135   4.998   4.617   3.365 -2.3423 -1.7568 -0.2809
  882TIP3   OH224136   2.504   5.493   3.106 -0.1444 -0.0239 -0.4400
  882TIP3    H124137   2.431   5.549   3.080 -0.6423 -0.2179  0.4819
  882TIP3    H224138   2.565   5.551   3.152 -1.5191 -0.4973  2.1569
  883TIP3   OH224139   0.419   3.517   0.544  0.1867  0.6703 -0.4974
  883TIP3    H124140   0.329   3.538   0.570 -0.4166 -1.7899 -0.3377
  883TIP3    H224141   0.423   3.421   0.548  2.1362  0.5762 -2.8048
  884TIP3   OH224142   2.217   5.812   6.530 -0.0184 -0.5539  0.1249
  884TIP3    H124143   2.279   5.772   6.591  0.4993 -0.4485 -0.3270
  884TIP3    H224144   2.254   5.796   6.443  2.5436  4.3223 -0.0881
  885TIP3   OH224145   1.424   0.173  15.769 -0.6632 -0.0794 -0.1715
  885TIP3    H124146   1.426   0.267  15.754  2.1533 -0.0957 -0.3873
  885TIP3    H224147   1.412   0.163  15.863 -0.1843  0.5270 -0.0422
  886TIP3   OH224148   1.806   2.734  14.406 -0.4491  0.0042 -0.4966
  886TIP3    H124149   1.781   2.651  14.446 -0.0091  0.8779  1.7130
  886TIP3    H224150   1.900   2.726  14.389 -0.4592 -0.0465 -0.5274
  887TIP3   OH224151   6.789   6.185   5.568  0.0447 -0.7246  0.1581
  887TIP3    H124152   6.847   6.151   5.500  0.2381 -0.1716  0.0424
  887TIP3    H224153   6.703   6.148   5.547 -0.2781  0.8116 -1.4185
  888TIP3   OH224154   3.901   1.303  14.728 -0.6410  0.2221  0.4037
  888TIP3    H124155   3.948   1.305  14.811 -0.7457  1.5263  0.4449
  888TIP3    H224156   3.966   1.330  14.663 -0.5364 -0.8717  0.0359
  889TIP3   OH224157   0.260   0.608   0.815  0.5856 -0.3103  0.1041
  889TIP3    H124158   0.275   0.573   0.727 -0.3150 -0.1654 -0.1199
  889TIP3    H224159   0.261   0.703   0.804 -1.0844 -0.2880 -0.0510
  890TIP3   OH224160   2.583   0.140  12.397 -0.2296  0.0361  0.6034
  890TIP3    H124161   2.671   0.167  12.373  0.1888 -0.9764  0.9346
  890TIP3    H224162   2.532   0.220  12.396  1.0056  0.8749  1.7581
  891TIP3   OH224163   4.342   2.706  10.787 -0.6232 -0.7862  0.5378
  891TIP3    H124164   4.378   2.763  10.855 -3.0556  1.9637 -0.2779
  891TIP3    H224165   4.411   2.701  10.721 -0.8218  2.6856 -0.0890
  892TIP3   OH224166   2.357   0.940   3.355 -0.2935  0.2266 -0.5100
  892TIP3    H124167   2.415   1.014   3.370 -1.4950  1.1527 -0.2785
  892TIP3    H224168   2.393   0.870   3.409  0.6973  0.7195 -0.5112
  893TIP3   OH224169   0.656   4.524  14.978  0.3687  0.3027 -0.1751
  893TIP3    H124170   0.661   4.570  15.063  0.2951 -0.7102  0.3915
  893TIP3    H224171   0.564   4.498  14.971  0.8966 -2.0754  0.7936
  894TIP3   OH224172   4.317   2.632   1.101 -0.1516 -0.1696 -0.0715
  894TIP3    H124173   4.345   2.723   1.094  0.5029 -0.3028  0.7433
  894TIP3    H224174   4.343   2.593   1.017  0.1440  0.2359 -0.1743
  895TIP3   OH224175   3.637   3.450   5.766  0.0016 -0.5730 -0.3424
  895TIP3    H124176   3.562   3.411   5.721 -1.3230  1.4437  0.0044
  895TIP3    H224177   3.633   3.415   5.855 -0.8466 -0.0603 -0.1783
  896TIP3   OH224178   0.576   6.033  16.725 -0.3546  0.0963  0.4519
  896TIP3    H124179   0.558   5.965  16.661  0.1488  0.1120  0.2931
  896TIP3    H224180   0.625   5.989  16.794 -0.7124  0.1255  0.7309
  897TIP3   OH224181   6.001   2.101  15.244  0.0284 -0.1296  0.2642
  897TIP3    H124182   5.987   2.175  15.186 -2.2127  0.3294  1.2712
  897TIP3    H224183   5.915   2.086  15.284  1.1921 -1.1689  2.5383
  898TIP3   OH224184   3.900   2.829  16.658  0.2672 -0.0345 -0.4274
  898TIP3    H124185   3.906   2.746  16.611 -0.9763  0.2812 -1.1907
  898TIP3    H224186   3.807   2.840  16.677  0.5464  0.6368  0.6973
  899TIP3   OH224187   5.896   2.500   2.072 -0.0323  0.1533 -0.5956
  899TIP3    H124188   5.839   2.437   2.029 -0.6667 -0.0378  0.4848
  899TIP3    H224189   5.945   2.448   2.136 -1.9586  0.9795  1.6945
  900TIP3   OH224190   1.213   3.377   1.409 -0.4056  0.2990 -0.2143
  900TIP3    H124191   1.173   3.428   1.338  1.8924  1.4713 -0.7663
  900TIP3    H224192   1.203   3.433   1.486  1.0772  1.1476 -0.5874
  901TIP3   OH224193   1.787   4.722  15.648  0.2464  0.1105 -0.4782
  901TIP3    H124194   1.728   4.649  15.666 -0.0771  0.3530 -0.5542
  901TIP3    H224195   1.860   4.683  15.600  0.0519 -0.1527 -0.5583
  902TIP3   OH224196   6.488   5.470   0.427 -0.9249  0.0064  0.1482
  902TIP3    H124197   6.455   5.519   0.502 -0.0486  0.5454  0.1942
  902TIP3    H224198   6.455   5.381   0.440  0.2139 -0.2150  1.8523
  903TIP3   OH224199   5.110   3.074   0.988  0.7286 -0.4108  0.3177
  903TIP3    H124200   5.029   3.112   1.022  0.6128 -0.6856  0.3445
  903TIP3    H224201   5.151   3.032   1.064  0.9707 -0.1450  0.3383
  904TIP3   OH224202   1.959   6.609   1.189 -0.7300  0.1429 -0.1711
  904TIP3    H124203   2.017   6.626   1.264 -1.2925 -0.1189  0.3325
  904TIP3    H224204   1.930   6.696   1.162  0.2721  0.3181 -0.7462
  905TIP3   OH224205   5.637   5.039  15.465 -0.5894  0.5797  0.0701
  905TIP3    H124206   5.662   4.982  15.392  0.8522 -0.2457  1.1658
  905TIP3    H224207   5.599   4.980  15.530  0.4246  0.9117  1.0014
  906TIP3   OH224208   3.805   4.119   4.167  0.6740  0.0402 -0.0981
  906TIP3    H124209   3.898   4.133   4.146  1.0417 -0.6596  0.9399
  906TIP3    H224210   3.804   4.033   4.210 -0.6294 -0.4633 -1.0909
  907TIP3   OH224211   1.816   4.619   5.120 -0.0826 -0.0184 -0.0058
  907TIP3    H124212   1.867   4.542   5.144 -1.1159 -0.2231  1.7197
  907TIP3    H224213   1.881   4.684   5.093  1.2199  0.0171  2.9159
  908TIP3   OH224214   1.261   6.692  13.222 -0.4532  0.0298  0.7206
  908TIP3    H124215   1.302   6.649  13.148  0.8981  2.0177  0.2174
  908TIP3    H224216   1.334   6.735  13.268 -1.6837  2.1178  0.8778
  909TIP3   OH224217   0.018   5.052   4.963  0.3141 -0.0455 -0.0086
  909TIP3    H124218  -0.054   5.081   5.019  1.4725 -0.8888  2.0408
  909TIP3    H224219  -0.024   4.996   4.897 -0.9552 -0.2319  0.9213
  910TIP3   OH224220   2.713   2.319  12.267 -0.3767  0.6743  0.3525
  910TIP3    H124221   2.716   2.357  12.354  2.3068  0.2651  0.5301
  910TIP3    H224222   2.787   2.360  12.220  0.2071 -1.3846 -0.6785
  911TIP3   OH224223   5.918   1.152   5.133 -0.2356 -0.5781  0.5101
  911TIP3    H124224   5.901   1.240   5.166 -0.6005 -0.3051 -0.3851
  911TIP3    H224225   6.001   1.127   5.175  1.1611  1.1412 -1.0106
  912TIP3   OH224226   5.966   0.327  11.330  0.3244 -0.1554  0.4757
  912TIP3    H124227   5.897   0.374  11.376  0.9385  0.8247  0.4306
  912TIP3    H224228   5.977   0.375  11.248 -0.0461 -1.2731 -0.2409
  913TIP3   OH224229   3.725   3.498  11.048 -0.3851 -0.0217 -0.2729
  913TIP3    H124230   3.630   3.495  11.045 -0.4048 -0.1227  0.2489
  913TIP3    H224231   3.754   3.444  10.975 -0.7266  1.7404 -1.7691
  914TIP3   OH224232   0.128   1.943   0.613  0.3874 -0.6390 -0.3803
  914TIP3    H124233   0.169   1.993   0.543  0.9233  0.8388  0.9183
  914TIP3    H224234   0.200   1.919   0.671 -0.2386 -0.1082  0.6654
  915TIP3   OH224235   2.594   3.952   0.597  0.3794  0.2453 -0.5437
  915TIP3    H124236   2.503   3.927   0.577  0.1063  0.5021  0.3266
  915TIP3    H224237   2.643   3.925   0.520 -0.2075 -1.2676 -0.4445
  916TIP3   OH224238   4.158   6.228   2.604  0.3712  0.2685 -0.0324
  916TIP3    H124239   4.181   6.320   2.590 -2.3197  0.7867 -2.0276
  916TIP3    H224240   4.154   6.191   2.515 -0.1539 -1.3487  0.6339
  917TIP3   OH224241   1.693   1.072  16.436 -0.2418  0.2241  0.2032
  917TIP3    H124242   1.762   1.061  16.502  1.3795 -0.2445 -1.4773
  917TIP3    H224243   1.731   1.133  16.372 -1.3242 -0.1603 -0.8418
  918TIP3   OH224244   4.314   5.556   5.986 -0.5688  0.1429  0.1593
  918TIP3    H124245   4.228   5.593   5.967 -0.8794  0.2721  1.7242
  918TIP3    H224246   4.300   5.499   6.061  0.4697 -0.9033 -0.4082
  919TIP3   OH224247   4.450   6.435  14.569  0.2534 -0.3469  0.7390
  919TIP3    H124248   4.394   6.467  14.639 -0.8052  1.4150 -0.8165
  919TIP3    H224249   4.408   6.355  14.538  0.1000 -0.5036  1.3482
  920TIP3   OH224250   2.341   5.490  12.066 -0.5257  0.2608  0.1444
  920TIP3    H124251   2.274   5.558  12.066 -0.8350 -0.0323 -0.2731
  920TIP3    H224252   2.420   5.532  12.100 -0.1676  1.3706 -1.8992
  921TIP3   OH224253   4.214   6.136  13.484 -0.0002 -0.0846  0.0540
  921TIP3    H124254   4.262   6.087  13.417 -1.4870 -3.1728  1.0545
  921TIP3    H224255   4.130   6.157  13.443 -0.1060 -0.0871  0.2695
  922TIP3   OH224256   2.807   1.586   0.402 -0.3722  0.2899  0.2068
  922TIP3    H124257   2.826   1.672   0.439 -0.5009  1.2370 -1.7882
  922TIP3    H224258   2.872   1.575   0.332 -1.4675 -0.4219 -0.7433
  923TIP3   OH224259   5.628   3.561   5.492 -0.0917 -0.0996 -0.3622
  923TIP3    H124260   5.658   3.648   5.464  0.1608  0.0639  0.3979
  923TIP3    H224261   5.662   3.502   5.425  1.6860  0.1253  0.2794
  924TIP3   OH224262   5.864   4.265  17.089  0.0498 -0.0235  0.0471
  924TIP3    H124263   5.848   4.329  17.158 -0.1761  0.2715 -0.2729
  924TIP3    H224264   5.896   4.187  17.134  1.4980  0.7074  0.3589
  925TIP3   OH224265   1.128   2.724   2.012  0.6886  0.1926  0.6299
  925TIP3    H124266   1.188   2.659   1.976  2.6583  1.6072  1.2002
  925TIP3    H224267   1.113   2.695   2.102 -1.9103 -1.7403 -0.3029
  926TIP3   OH224268   1.705   1.313   4.052  0.6073 -0.2763 -0.4463
  926TIP3    H124269   1.730   1.345   4.138 -0.8836  3.1035 -1.1298
  926TIP3    H224270   1.612   1.294   4.059  0.4782  0.0058 -1.2884
  927TIP3   OH224271   6.360   3.933  14.827  0.1216  0.8760 -0.2244
  927TIP3    H124272   6.352   3.873  14.754 -2.3533  1.3736 -0.4490
  927TIP3    H224273   6.399   3.881  14.897  0.7736 -0.1197 -1.2928
  928TIP3   OH224274   0.621   0.435  15.868 -0.0298 -0.1330  0.0607
  928TIP3    H124275   0.531   0.413  15.893  0.0770  0.5345  1.0788
  928TIP3    H224276   0.612   0.519  15.821  0.1333  0.3060  0.8038
  929TIP3   OH224277   0.586   5.879   5.770 -0.1928 -0.3446 -0.0620
  929TIP3    H124278   0.522   5.921   5.828 -1.2737 -0.4804 -1.1316
  929TIP3    H224279   0.604   5.795   5.812 -0.4878 -0.1860  0.3946
  930TIP3   OH224280   5.441   5.843  13.371 -0.7020 -0.4528 -0.3740
  930TIP3    H124281   5.505   5.774  13.359  0.3455 -0.1401  2.5137
  930TIP3    H224282   5.359   5.796  13.390 -0.3571 -0.9192  0.0032
  931TIP3   OH224283   3.109   3.387  16.808 -0.1510  0.3624 -0.0032
  931TIP3    H124284   3.018   3.387  16.839  0.4219  0.6732  1.8179
  931TIP3    H224285   3.114   3.311  16.750 -1.0264 -1.0799  1.6712
  932TIP3   OH224286   0.729   0.669   3.181 -0.8046 -0.6299 -0.2449
  932TIP3    H124287   0.823   0.649   3.184 -0.2492  1.7090 -0.2507
  932TIP3    H224288   0.711   0.713   3.264 -1.7135 -0.2567 -0.6311
  933TIP3   OH224289   6.005   5.918  12.395 -0.3079 -0.3517  0.2054
  933TIP3    H124290   6.060   5.946  12.322 -0.7097 -1.9993 -0.7860
  933TIP3    H224291   5.932   5.979  12.395  1.4947  2.0001  1.6537
  934TIP3   OH224292   3.342   1.842  12.784  0.1667  0.0532  0.2348
  934TIP3    H124293   3.429   1.840  12.825  0.3351  0.2193 -0.1081
  934TIP3    H224294   3.288   1.788  12.841  0.7797 -1.0608 -0.2061
  935TIP3   OH224295   2.840   0.890  15.824 -0.2462  0.0610  0.1047
  935TIP3    H124296   2.932   0.887  15.799 -0.4041 -0.4322 -0.4626
  935TIP3    H224297   2.803   0.809  15.787 -1.1067  0.7118 -0.4988
  936TIP3   OH224298   6.010   4.183   5.994 -0.1002  0.2483 -0.1405
  936TIP3    H124299   6.079   4.134   6.037 -1.0097 -0.4738  0.5356
  936TIP3    H224300   6.017   4.159   5.901  0.9740  0.7260 -0.1972
  937TIP3   OH224301   2.897   4.490   6.383 -0.4172 -0.2490  0.1903
  937TIP3    H124302   2.871   4.564   6.329  0.2769 -0.3223 -0.2473
  937TIP3    H224303   2.986   4.510   6.410  0.6794 -1.9896 -1.8650
  938TIP3   OH224304   0.575   2.148  16.983 -0.2570  0.4585 -0.0448
  938TIP3    H124305   0.576   2.098  16.901  0.8141  0.1260  0.1541
  938TIP3    H224306   0.637   2.220  16.968 -1.5621  1.5963 -0.2240
  939TIP3   OH224307   6.695   4.076  14.506 -0.1536  0.7337 -0.3729
  939TIP3    H124308   6.747   4.113  14.578 -1.5518  2.1545 -0.0377
  939TIP3    H224309   6.659   3.995  14.542  0.8983  0.3121 -0.2353
  940TIP3   OH224310   5.665   1.906  14.138  0.8004 -0.7394  0.3948
  940TIP3    H124311   5.711   1.822  14.130  1.7851 -0.1908  0.0790
  940TIP3    H224312   5.577   1.889  14.105  1.2999 -1.3957 -0.6371
  941TIP3   OH224313   1.974   1.272   0.211  0.4735  0.2750 -0.4725
  941TIP3    H124314   2.051   1.228   0.175  0.5872 -0.5939  0.7659
  941TIP3    H224315   1.967   1.238   0.300 -0.9336  0.8899 -0.3293
  942TIP3   OH224316   2.706   6.695   3.571  0.0464 -0.0580  0.1832
  942TIP3    H124317   2.752   6.617   3.538  0.6488  0.3347  0.0857
  942TIP3    H224318   2.630   6.704   3.512  0.4898 -0.0253 -0.3914
  943TIP3   OH224319   1.230   0.811  13.303  0.4810  0.0795  0.1431
  943TIP3    H124320   1.317   0.804  13.343  1.0336 -1.3272 -1.2123
  943TIP3    H224321   1.187   0.728  13.325  0.0737  0.1039 -0.5474
  944TIP3   OH224322   4.869   5.508  12.310 -0.6043  0.8703  0.5198
  944TIP3    H124323   4.803   5.536  12.373  0.6862 -1.9812  3.4134
  944TIP3    H224324   4.850   5.416  12.295  0.6202  0.8740 -1.4225
  945TIP3   OH224325   4.593   1.358   5.263  0.3426  0.2106 -0.1368
  945TIP3    H124326   4.681   1.374   5.296  0.5366  0.9678 -0.9788
  945TIP3    H224327   4.535   1.394   5.331  0.6321 -1.2641  0.9315
  946TIP3   OH224328   3.739   6.245  13.160  0.3227  0.0181  0.3878
  946TIP3    H124329   3.803   6.271  13.095  0.9999 -0.6506  0.7742
  946TIP3    H224330   3.657   6.285  13.131  0.1200 -1.9252 -2.0363
  947TIP3   OH224331   3.502   6.613   6.318  0.0459  0.5762  0.1641
  947TIP3    H124332   3.524   6.553   6.247  2.3944  0.4325  0.9296
  947TIP3    H224333   3.585   6.630   6.362 -1.0731  1.9266  1.9049
  948TIP3   OH224334   0.405   0.615  14.665  0.0177  0.1811  0.5981
  948TIP3    H124335   0.391   0.704  14.697 -1.4367  0.6254 -1.1564
  948TIP3    H224336   0.323   0.570  14.681  0.7291 -0.8633  1.4292
  949TIP3   OH224337   6.621   6.346  16.925 -0.1675  0.0222  0.0269
  949TIP3    H124338   6.644   6.367  16.835  0.2972  0.8330  0.3245
  949TIP3    H224339   6.575   6.262  16.920  0.0576 -0.0468 -0.9310
  950TIP3   OH224340   2.463   0.603   0.804  0.1588  0.7505  0.0182
  950TIP3    H124341   2.435   0.514   0.782  0.5697  1.0422 -1.7940
  950TIP3    H224342   2.382   0.653   0.813 -0.1082  0.0521  1.8193
  951TIP3   OH224343   2.970   3.708  12.825  0.3142 -0.0435  0.5238
  951TIP3    H124344   2.937   3.631  12.872  3.2107 -2.8884 -1.6446
  951TIP3    H224345   2.912   3.716  12.749  0.6530 -0.8645  0.1654
  952TIP3   OH224346   1.997   0.482   3.103 -0.0706 -0.7911  0.3188
  952TIP3    H124347   2.055   0.528   3.164 -0.7841  0.3658  0.1509
  952TIP3    H224348   1.997   0.536   3.025 -0.0819 -1.6578 -0.2950
  953TIP3   OH224349   1.498   5.842  13.177  0.2975  0.3242  0.4903
  953TIP3    H124350   1.529   5.910  13.116 -1.3700  1.7956  1.1956
  953TIP3    H224351   1.469   5.771  13.121  0.0759  1.0852 -0.3924
  954TIP3   OH224352   5.108   0.143   1.206 -0.3524  0.1612  0.4274
  954TIP3    H124353   5.146   0.146   1.294  2.5690 -0.0298 -0.7093
  954TIP3    H224354   5.092   0.234   1.183  0.7765  0.3650  0.4272
  955TIP3   OH224355   3.157   3.999   2.755 -0.0370  0.5079  0.0412
  955TIP3    H124356   3.228   4.042   2.708  0.0728  1.0301  0.6730
  955TIP3    H224357   3.129   3.928   2.697 -0.4086  1.5878 -1.1537
  956TIP3   OH224358   1.003   1.771  10.814  0.2582  0.3162 -0.0842
  956TIP3    H124359   0.928   1.721  10.783  0.1267  0.7518 -0.4898
  956TIP3    H224360   1.073   1.750  10.753  0.4918 -0.1573  0.3473
  957TIP3   OH224361   2.074   1.397  15.837  0.5003 -0.3447  0.1270
  957TIP3    H124362   2.062   1.412  15.743 -2.7946  0.1133  0.4792
  957TIP3    H224363   2.019   1.321  15.856  0.1003  0.3292  1.8502
  958TIP3   OH224364   3.914   4.711  12.266  0.5530  0.1581 -0.0167
  958TIP3    H124365   3.870   4.708  12.181 -1.3305 -0.9951  0.9081
  958TIP3    H224366   3.919   4.804  12.287 -2.0995  0.3736  0.0581
  959TIP3   OH224367   3.876   1.470  13.679  0.4787  0.0432 -0.5414
  959TIP3    H124368   3.840   1.550  13.718  1.4980 -0.7810  2.3435
  959TIP3    H224369   3.810   1.443  13.615 -2.3501  0.5402  1.9319
  960TIP3   OH224370   2.121   4.642  11.910  0.6142  0.0285 -0.2926
  960TIP3    H124371   2.060   4.679  11.973 -1.0810 -0.0231 -1.8217
  960TIP3    H224372   2.147   4.716  11.855  0.6470 -0.2421 -0.6461
  961TIP3   OH224373   2.439   4.266   4.934  0.4809 -0.2875  0.0696
  961TIP3    H124374   2.372   4.217   4.886 -0.2262 -0.6182  1.3737
  961TIP3    H224375   2.522   4.239   4.893 -0.0716 -0.7888 -0.7496
  962TIP3   OH224376   0.213   5.523  16.832  0.1191 -0.3083 -0.1756
  962TIP3    H124377   0.271   5.454  16.865  0.0337 -0.3272 -0.0671
  962TIP3    H224378   0.174   5.485  16.753  0.2212 -0.3125 -0.2249
  963TIP3   OH224379   4.744   3.443   1.488  0.8531  0.0009  0.5254
  963TIP3    H124380   4.722   3.494   1.410  0.6816 -0.1790  0.4530
  963TIP3    H224381   4.726   3.352   1.462  3.3407 -0.3888 -0.1362
  964TIP3   OH224382   5.161   3.352   4.115 -0.0620  0.7218  0.2747
  964TIP3    H124383   5.184   3.445   4.108  0.8768  0.4907  0.2519
  964TIP3    H224384   5.237   3.311   4.155 -0.1843 -0.1680 -0.3750
  965TIP3   OH224385   5.569   6.641   0.649 -0.0843 -0.0868 -0.1987
  965TIP3    H124386   5.535   6.704   0.586 -0.7714 -1.3035 -1.0797
  965TIP3    H224387   5.532   6.669   0.733 -0.7116  0.4335 -0.6366
  966TIP3   OH224388   0.046   1.683  13.544  0.1503 -0.1263  0.2596
  966TIP3    H124389   0.069   1.755  13.603  0.0463 -0.2962  0.5096
  966TIP3    H224390   0.085   1.605  13.585  1.3667 -0.0371 -0.6567
  967TIP3   OH224391   5.887   0.278   5.974  0.4363  0.4734  0.2971
  967TIP3    H124392   5.878   0.370   5.997 -0.0375  0.5212 -0.0636
  967TIP3    H224393   5.845   0.230   6.046 -1.3401  0.6333 -0.5768
  968TIP3   OH224394   6.816   4.312  12.366 -0.3803 -0.2165 -0.2034
  968TIP3    H124395   6.745   4.303  12.302 -0.5467  1.1947 -0.2523
  968TIP3    H224396   6.842   4.403  12.360 -0.7189  0.0967  2.0791
  969TIP3   OH224397   0.900   5.771  17.119 -0.1791  0.3041  0.5468
  969TIP3    H124398   0.971   5.759  17.056 -0.3799 -1.6498  0.6318
  969TIP3    H224399   0.838   5.829  17.074  1.2322  1.7073  0.3213
  970TIP3   OH224400   6.674   4.129  16.967  0.0462 -0.2298  0.2360
  970TIP3    H124401   6.767   4.151  16.960  0.3249 -1.8999 -2.3465
  970TIP3    H224402   6.630   4.191  16.908 -0.2162 -0.8716 -0.2438
  971TIP3   OH224403   6.036   2.345  12.768  0.1132  0.4751 -0.2143
  971TIP3    H124404   6.120   2.302  12.781 -0.3806 -0.8657 -1.2999
  971TIP3    H224405   6.058   2.438  12.763  1.6475  0.0971 -1.2467
  972TIP3   OH224406   3.741   1.897   3.187  0.6792 -0.1908 -0.8077
  972TIP3    H124407   3.738   1.810   3.227  1.8515  0.5647  1.0527
  972TIP3    H224408   3.818   1.895   3.130  1.0183 -0.2086 -0.3489
  973TIP3   OH224409   1.628   4.678  16.083 -0.2302  0.5111  0.0025
  973TIP3    H124410   1.547   4.722  16.109 -0.5226  0.4657 -0.8075
  973TIP3    H224411   1.678   4.746  16.037  0.1681  0.5243  0.4547
  974TIP3   OH224412   3.278   2.714   2.368 -0.0314 -0.5817  0.1854
  974TIP3    H124413   3.202   2.657   2.361 -1.1586  0.8494  0.2921
  974TIP3    H224414   3.247   2.789   2.418  1.5460 -0.0987  0.4952
  975TIP3   OH224415   1.730   3.394  14.225  0.5858  0.3752 -0.2765
  975TIP3    H124416   1.808   3.404  14.171  0.6735  1.5095  0.0487
  975TIP3    H224417   1.754   3.326  14.288  1.6253  1.3052  0.3628
  976TIP3   OH224418   6.385   0.414  14.636  0.1640 -0.0774  0.1523
  976TIP3    H124419   6.448   0.459  14.692 -0.0434  1.7634 -1.0220
  976TIP3    H224420   6.404   0.321  14.649  2.5705  0.3952  0.4768
  977TIP3   OH224421   5.563   0.842  15.905 -0.4484 -0.6639  0.0620
  977TIP3    H124422   5.601   0.930  15.904 -1.7719 -0.0778 -0.3010
  977TIP3    H224423   5.546   0.822  15.813 -0.4447 -1.1765  0.1667
  978TIP3   OH224424   2.952   1.653  15.291 -0.2747  0.4943  0.4235
  978TIP3    H124425   2.911   1.608  15.217 -1.7472 -0.3315  1.6841
  978TIP3    H224426   3.041   1.673  15.261 -0.0762 -1.8474 -0.7416
  979TIP3   OH224427   0.474   4.470   5.424 -0.0634 -0.4274  0.2421
  979TIP3    H124428   0.461   4.527   5.348  2.4551 -0.1350 -0.0690
  979TIP3    H224429   0.465   4.381   5.389  1.2294 -0.3000 -0.4676
  980TIP3   OH224430   0.296   0.394   2.729 -0.0807 -0.1550 -0.4313
  980TIP3    H124431   0.251   0.313   2.705  0.0760 -0.0253 -1.1946
  980TIP3    H224432   0.318   0.382   2.821  2.1056 -2.0457 -1.0790
  981TIP3   OH224433   3.822   5.042   5.143 -0.6554  0.1015  1.1873
  981TIP3    H124434   3.745   5.082   5.102  0.2135  1.3977  0.7776
  981TIP3    H224435   3.833   4.959   5.097 -2.1156 -0.3893  1.6323
  982TIP3   OH224436   0.460   2.426  13.429 -0.6523  0.1492  0.2186
  982TIP3    H124437   0.364   2.419  13.429 -0.7654  1.3727 -0.6822
  982TIP3    H224438   0.484   2.422  13.522 -1.3570 -2.2424  0.3783
  983TIP3   OH224439   4.108   4.493  16.772  0.0549 -0.2944  0.4831
  983TIP3    H124440   4.064   4.488  16.688 -0.9631  0.9207  0.9130
  983TIP3    H224441   4.038   4.508  16.835  1.0945  3.4863  0.9991
  984TIP3   OH224442   0.690   0.652  16.960  0.2547 -0.2901  0.4370
  984TIP3    H124443   0.737   0.571  16.978 -0.4207 -1.0042 -0.8258
  984TIP3    H224444   0.742   0.696  16.893  0.2840 -0.0024  0.6498
  985TIP3   OH224445   2.182   4.429   2.669 -0.4421  0.5008 -0.2930
  985TIP3    H124446   2.145   4.516   2.656 -1.0835  0.0928 -1.2554
  985TIP3    H224447   2.217   4.404   2.584 -0.1517 -0.1415  0.0045
  986TIP3   OH224448   4.801   4.971   2.416 -0.0711  0.4116  0.1234
  986TIP3    H124449   4.764   4.962   2.328 -0.0084 -0.4069  0.1693
  986TIP3    H224450   4.766   4.896   2.464  1.9770 -0.6753  0.0464
  987TIP3   OH224451   6.150   3.525  13.666 -0.2118  0.6837 -0.5170
  987TIP3    H124452   6.067   3.498  13.706 -0.9478  0.3652 -2.1318
  987TIP3    H224453   6.197   3.572  13.735 -0.8838 -0.8144  1.0235
  988TIP3   OH224454   5.912   0.562   5.974 -0.1174 -0.0313  0.5782
  988TIP3    H124455   6.002   0.587   5.994 -0.5820  2.3120  0.1006
  988TIP3    H224456   5.858   0.628   6.018 -1.4481  0.4773 -1.6419
  989TIP3   OH224457   0.327   1.135   0.327 -0.0483  0.2805  0.2173
  989TIP3    H124458   0.334   1.126   0.422  0.0879  2.2359  0.4148
  989TIP3    H224459   0.370   1.217   0.306 -0.5556  0.1661 -1.4849
  990TIP3   OH224460   5.253   0.852  15.801  0.4560 -0.4941  0.1386
  990TIP3    H124461   5.197   0.778  15.777  0.2565 -0.3257  0.0770
  990TIP3    H224462   5.311   0.864  15.726 -0.2724  0.1317 -0.3505
  991TIP3   OH224463   3.244   5.719  13.189 -0.5301 -0.7160 -0.3048
  991TIP3    H124464   3.164   5.770  13.199  0.8531  1.1147  2.5488
  991TIP3    H224465   3.220   5.631  13.220 -1.2126  0.1168  1.7266
  992TIP3   OH224466   1.548   1.827   3.869 -0.3479 -0.1621 -0.3349
  992TIP3    H124467   1.554   1.762   3.939 -0.1956  0.2915  0.0773
  992TIP3    H224468   1.537   1.910   3.914  1.1231  0.3143 -0.7851
  993TIP3   OH224469   1.615   0.282   5.407 -0.2380  0.4059 -0.5781
  993TIP3    H124470   1.617   0.309   5.499 -0.8584 -0.3274 -0.3319
  993TIP3    H224471   1.638   0.360   5.358 -0.5743  0.9878  0.1735
  994TIP3   OH224472   5.063   0.555  16.389  0.2424 -0.2913  0.1546
  994TIP3    H124473   5.028   0.632  16.434  1.9401  1.2133 -0.9823
  994TIP3    H224474   5.062   0.486  16.455  0.3673  1.1899  1.7685
  995TIP3   OH224475   4.257   1.557  10.869  0.1728  0.5974 -0.1337
  995TIP3    H124476   4.318   1.574  10.941  1.8807  0.9297 -1.5972
  995TIP3    H224477   4.263   1.636  10.815  0.6789 -0.5719 -1.8411
  996TIP3   OH224478   5.731   6.051   2.946 -0.2091 -0.4969 -0.5996
  996TIP3    H124479   5.766   5.963   2.931  0.4439 -0.2924 -0.3250
  996TIP3    H224480   5.665   6.062   2.878 -2.2604 -2.2156  0.9622
  997TIP3   OH224481   1.598   0.565   0.789  0.2913  0.1343  0.5065
  997TIP3    H124482   1.666   0.631   0.785 -1.9207  2.4965 -2.1207
  997TIP3    H224483   1.627   0.495   0.731  0.9197  0.5960  0.2642
  998TIP3   OH224484   2.193   1.084   0.879  0.2633 -0.0871 -0.4650
  998TIP3    H124485   2.098   1.086   0.886  0.1390  1.1986 -1.8736
  998TIP3    H224486   2.216   0.992   0.873 -0.8927 -0.4046 -0.1620
  999TIP3   OH224487   5.532   0.367   5.507  0.6621  0.2391 -0.0653
  999TIP3    H124488   5.573   0.398   5.588 -1.8525 -0.9353  1.7933
  999TIP3    H224489   5.534   0.272   5.515 -0.4703  0.1268 -0.9286
 1000TIP3   OH224490   2.744   3.405  14.919 -0.1352  0.4951 -0.1760
 1000TIP3    H124491   2.681   3.388  14.848 -1.3780 -0.3809  1.0977
 1000TIP3    H224492   2.739   3.500  14.932 -0.4809  0.5601 -0.7136
 1001TIP3   OH224493   1.051   5.043   4.627 -0.1607 -0.6906  0.4971
 1001TIP3    H124494   1.087   5.058   4.715 -0.6412 -0.0825  0.5989
 1001TIP3    H224495   0.974   5.100   4.623  0.3704 -0.0153 -0.6398
 1002TIP3   OH224496   6.609   6.422  16.082 -1.4595  0.4756  0.4823
 1002TIP3    H124497   6.535   6.455  16.030 -1.8406 -1.4099 -0.2508
 1002TIP3    H224498   6.621   6.332  16.052  2.3077  1.2137 -0.7140
 1003TIP3   OH224499   2.183   2.585  15.234  0.0116  0.2331  0.1217
 1003TIP3    H124500   2.192   2.615  15.144  0.6044  0.9903  0.4226
 1003TIP3    H224501   2.112   2.520  15.231 -0.0684  0.3559 -0.8560
 1004TIP3   OH224502   2.776   3.796   4.512  0.1139 -0.0114  0.0198
 1004TIP3    H124503   2.862   3.812   4.552 -0.4567 -1.4214  1.9701
 1004TIP3    H224504   2.733   3.736   4.572 -2.0173  0.1530 -1.2548
 1005TIP3   OH224505   2.061   5.001  15.984  0.1959  1.1187 -0.2935
 1005TIP3    H124506   2.120   4.968  16.051  0.2919  2.9309  0.5729
 1005TIP3    H224507   2.114   5.006  15.905  0.3525 -0.0857 -0.2816
 1006TIP3   OH224508   4.243   3.042  11.504 -0.4077  0.9838  0.3146
 1006TIP3    H124509   4.333   3.010  11.507 -1.0384 -0.8577  1.2436
 1006TIP3    H224510   4.227   3.061  11.412  1.2410  2.3579  0.2689
 1007TIP3   OH224511   5.177   4.849  12.317  0.3122  0.0560  0.2804
 1007TIP3    H124512   5.197   4.756  12.325 -1.9712 -0.3117  2.8323
 1007TIP3    H224513   5.100   4.852  12.260 -0.6806  0.1792  1.5930
 1008TIP3   OH224514   6.213   1.531  14.101 -0.0420  0.0767  0.1258
 1008TIP3    H124515   6.160   1.607  14.123  0.4564  0.5500 -0.2813
 1008TIP3    H224516   6.230   1.540  14.007  1.4290  0.3691  0.3989
 1009TIP3   OH224517   5.677   5.287  13.792 -0.2526 -0.0287 -0.4407
 1009TIP3    H124518   5.695   5.336  13.872  0.2359 -1.3139  0.2545
 1009TIP3    H224519   5.749   5.225  13.784 -0.1914  0.1846 -1.9842
 1010TIP3   OH224520   4.753   6.748   5.298 -0.0025  0.1132 -0.6236
 1010TIP3    H124521   4.682   6.726   5.358  1.1001 -1.5363  0.1606
 1010TIP3    H224522   4.781   6.835   5.325 -0.8691  0.2405 -0.0906
 1011TIP3   OH224523   6.396   3.358   1.822  0.3000 -0.3614  0.0245
 1011TIP3    H124524   6.349   3.359   1.739  0.2769 -0.2941  0.0382
 1011TIP3    H224525   6.442   3.442   1.824 -1.1740  0.4759  0.9278
 1012TIP3   OH224526   0.431   1.577  12.827 -0.3164  0.0140  0.3161
 1012TIP3    H124527   0.356   1.637  12.827 -0.5008 -0.1717  1.7752
 1012TIP3    H224528   0.479   1.599  12.907  0.8293 -0.3217 -0.2558
 1013TIP3   OH224529   3.344   4.173  12.566 -0.0461 -0.0008 -0.2458
 1013TIP3    H124530   3.369   4.166  12.474 -1.3283 -2.2929 -0.4836
 1013TIP3    H224531   3.263   4.123  12.574 -0.4709  0.8807  1.9730
 1014TIP3   OH224532   3.497   4.536   5.163 -0.7225  0.2986  0.1577
 1014TIP3    H124533   3.577   4.563   5.118 -1.0616  1.7755  0.3865
 1014TIP3    H224534   3.487   4.443   5.142  0.4077  0.3872 -0.8385
 1015TIP3   OH224535   2.491   2.641  16.551 -0.4615 -0.1119 -0.1659
 1015TIP3    H124536   2.520   2.553  16.576 -0.4748  0.5209  2.4488
 1015TIP3    H224537   2.550   2.667  16.480  1.9231 -0.9171  1.4008
 1016TIP3   OH224538   6.604   2.924  11.469  0.2629  0.6004  0.1070
 1016TIP3    H124539   6.561   2.885  11.393 -0.7401 -0.9223  1.3953
 1016TIP3    H224540   6.687   2.877  11.477 -0.0520  0.0927  0.4788
 1017TIP3   OH224541   0.165   1.276  16.517  0.0788  0.2455  0.2944
 1017TIP3    H124542   0.229   1.287  16.589  0.0008  1.5216  0.1926
 1017TIP3    H224543   0.105   1.209  16.549  0.3019  0.4775  1.2448
 1018TIP3   OH224544   4.858   3.989   1.809 -0.5197 -0.5036  0.4978
 1018TIP3    H124545   4.935   3.965   1.757 -0.9421  0.8381 -0.8125
 1018TIP3    H224546   4.843   4.081   1.789 -2.2551 -0.6318  1.0077
 1019TIP3   OH224547   2.049   5.499   0.910  0.2575 -0.6354  0.0223
 1019TIP3    H124548   2.015   5.539   0.989  0.8816  0.5746 -0.2973
 1019TIP3    H224549   2.012   5.410   0.910 -1.2984 -0.0214  0.6578
 1020TIP3   OH224550   5.460   3.869  12.264 -0.4209 -0.0234  0.0871
 1020TIP3    H124551   5.380   3.824  12.292 -1.2238  0.7936 -0.8275
 1020TIP3    H224552   5.531   3.813  12.295 -1.1968  0.8465  3.8685
 1021TIP3   OH224553   1.509   4.108   3.368 -0.1706 -0.1208 -0.1631
 1021TIP3    H124554   1.587   4.090   3.315  0.3630 -1.2187  0.9325
 1021TIP3    H224555   1.514   4.201   3.388  1.8329 -0.4695  1.3134
 1022TIP3   OH224556   3.450   6.485  16.658  0.0212 -0.2579  0.0133
 1022TIP3    H124557   3.363   6.524  16.663 -0.3930 -0.9300 -1.4268
 1022TIP3    H224558   3.487   6.520  16.577  0.1433 -1.7919 -0.6242
 1023TIP3   OH224559   6.723   6.676   2.546 -0.2321  0.8129  0.4283
 1023TIP3    H124560   6.764   6.592   2.527 -2.6954 -0.4721  0.4501
 1023TIP3    H224561   6.792   6.741   2.531  1.0943 -1.0131 -1.8346
 1024TIP3   OH224562   0.721   4.455   4.951 -0.2861 -0.6826 -0.8368
 1024TIP3    H124563   0.752   4.497   4.871  0.3174  2.0270  0.6725
 1024TIP3    H224564   0.630   4.483   4.959 -0.8160 -2.2159 -1.3259
 1025TIP3   OH224565   2.369   2.946  15.878 -0.2460  0.2997  0.1687
 1025TIP3    H124566   2.353   2.870  15.822  1.3564 -1.2617  1.7103
 1025TIP3    H224567   2.292   2.951  15.934 -0.4243 -0.1189 -0.0336
 1026TIP3   OH224568   6.746   1.495  16.372  0.2333 -0.0088 -0.0422
 1026TIP3    H124569   6.679   1.448  16.323 -2.1096  1.1753  1.8221
 1026TIP3    H224570   6.774   1.434  16.440 -0.0692  0.0099  0.0994
 1027TIP3   OH224571   3.884   4.009   4.535  0.0343  0.1056  0.1672
 1027TIP3    H124572   3.830   3.978   4.463 -0.4885  0.8147  0.2486
 1027TIP3    H224573   3.931   3.930   4.565 -0.5701 -0.4130 -0.2196
 1028TIP3   OH224574   5.838   5.305  16.709 -0.4845 -0.7191  0.2841
 1028TIP3    H124575   5.816   5.397  16.723 -0.3561 -0.7660  0.8264
 1028TIP3    H224576   5.934   5.304  16.701 -0.3155 -0.9888  1.9251
 1029TIP3   OH224577   2.358   2.441  14.340  0.1109  0.0078 -0.3080
 1029TIP3    H124578   2.383   2.442  14.433 -0.3975 -0.2810 -0.1632
 1029TIP3    H224579   2.263   2.451  14.341  0.1272  0.2083 -0.8077
 1030TIP3   OH224580   2.694   1.776   4.059 -0.0684 -0.9166  0.0913
 1030TIP3    H124581   2.717   1.861   4.094  3.7886 -1.8339  0.2547
 1030TIP3    H224582   2.659   1.727   4.134  1.4058 -0.6709  0.9643
 1031TIP3   OH224583   4.730   2.203   6.376  0.3804 -0.6627  0.2255
 1031TIP3    H124584   4.690   2.255   6.307  1.3863 -0.6197 -0.3420
 1031TIP3    H224585   4.686   2.231   6.456  0.1326  0.2567 -0.2183
 1032TIP3   OH224586   5.262   4.368  11.114  0.4943 -0.2696  0.2929
 1032TIP3    H124587   5.315   4.410  11.046 -2.2000  0.8851 -1.2987
 1032TIP3    H224588   5.171   4.381  11.084 -0.7421 -1.4931  3.1501
 1033TIP3   OH224589   1.267   4.533   1.290 -0.1831  0.6397  0.0762
 1033TIP3    H124590   1.216   4.513   1.212  1.3302  0.3460 -0.8868
 1033TIP3    H224591   1.202   4.543   1.360 -1.4220 -2.2518 -0.5075
 1034TIP3   OH224592   4.745   1.216   5.664 -0.3285  0.1613  0.6051
 1034TIP3    H124593   4.669   1.208   5.607 -0.9228  1.1556  1.2163
 1034TIP3    H224594   4.767   1.126   5.688 -0.7659 -0.1886 -0.2774
 1035TIP3   OH224595   1.265   1.089  14.870 -0.3434  0.3999  0.0398
 1035TIP3    H124596   1.347   1.122  14.834 -0.3697  3.3739  2.3261
 1035TIP3    H224597   1.200   1.106  14.802  0.4005  1.1969 -0.4911
 1036TIP3   OH224598   5.379   5.337   0.099 -0.2153 -0.0689  0.6361
 1036TIP3    H124599   5.292   5.375   0.092 -0.1324  0.2391  1.2489
 1036TIP3    H224600   5.407   5.324   0.008 -2.0632 -2.9052  0.3217
 1037TIP3   OH224601   3.403   3.483   6.046 -0.0521 -0.2148  0.6586
 1037TIP3    H124602   3.482   3.430   6.051  0.6670  0.6369 -0.9042
 1037TIP3    H224603   3.399   3.528   6.130  1.0984 -0.3250  0.7893
 1038TIP3   OH224604   3.539   6.689   6.589  0.2480  0.1794  0.0041
 1038TIP3    H124605   3.539   6.784   6.604  1.7620  0.2749 -0.4291
 1038TIP3    H224606   3.447   6.663   6.598 -0.2388  1.7361 -0.1802
 1039TIP3   OH224607   6.424   4.047  11.842 -0.2708  0.5035 -0.0627
 1039TIP3    H124608   6.337   4.012  11.823 -0.4416  0.6152  0.5057
 1039TIP3    H224609   6.422   4.067  11.936  0.9626 -1.1432  0.3472
 1040TIP3   OH224610   5.482   3.502  13.563 -0.5888 -0.0698  0.8942
 1040TIP3    H124611   5.502   3.409  13.558 -1.3807 -0.2508  0.9883
 1040TIP3    H224612   5.433   3.521  13.483 -0.6301  0.2166  0.9850
 1041TIP3   OH224613   1.203   0.233  15.213  0.1154  0.6782  0.0963
 1041TIP3    H124614   1.204   0.283  15.295 -0.3614  1.6995 -0.5005
 1041TIP3    H224615   1.110   0.224  15.192  0.1178 -1.4151  0.7181
 1042TIP3   OH224616   1.253   1.025   0.944  0.5337  0.2766 -0.2555
 1042TIP3    H124617   1.327   1.084   0.957  0.0624  0.9074 -0.3640
 1042TIP3    H224618   1.287   0.955   0.888  1.1566  0.3384  0.0421
 1043TIP3   OH224619   2.702   1.436  12.365  0.0517  0.0056 -0.1305
 1043TIP3    H124620   2.665   1.515  12.327 -1.0294 -0.8795 -0.9794
 1043TIP3    H224621   2.792   1.460  12.387  0.2995  0.9708 -1.9998
 1044TIP3   OH224622   0.658   0.032   2.129 -0.2907 -0.4299  0.6326
 1044TIP3    H124623   0.685   0.048   2.220  0.0148 -1.1313  0.6722
 1044TIP3    H224624   0.712  -0.042   2.101  0.9572  0.9183 -0.7208
 1045TIP3   OH224625   4.086   4.759   2.449 -0.2550  0.3418  0.0578
 1045TIP3    H124626   4.107   4.833   2.392  1.5581  0.3222  0.6211
 1045TIP3    H224627   4.164   4.749   2.503 -0.6071 -1.7688  0.2326
 1046TIP3   OH224628   5.563   3.097  15.958  0.2615  0.5270 -0.0151
 1046TIP3    H124629   5.595   3.175  16.004 -1.2389  1.0229  0.2556
 1046TIP3    H224630   5.490   3.130  15.905 -0.1559 -0.6476 -0.1862
 1047TIP3   OH224631   4.805   1.804   1.313  0.5681 -0.4223 -0.0183
 1047TIP3    H124632   4.811   1.835   1.223  0.3578 -0.8062 -0.1698
 1047TIP3    H224633   4.853   1.868   1.364  2.0281 -1.0153 -0.6034
 1048TIP3   OH224634   3.638   0.727  16.984 -0.0326 -0.4427 -0.8814
 1048TIP3    H124635   3.585   0.799  16.950 -1.4518 -1.9630 -2.0892
 1048TIP3    H224636   3.632   0.659  16.916  0.7928 -1.9091  0.4410
 1049TIP3   OH224637   0.649   4.703   0.237  1.1401  0.5617 -0.2029
 1049TIP3    H124638   0.675   4.644   0.308  3.1099  0.6470 -0.8119
 1049TIP3    H224639   0.674   4.657   0.157 -0.5990  0.6941 -0.8670
 1050TIP3   OH224640   6.102   0.491   0.534 -0.6351  0.2520  0.4054
 1050TIP3    H124641   6.194   0.470   0.518 -0.5139  0.0135  1.3328
 1050TIP3    H224642   6.055   0.409   0.517 -0.8255  0.6414 -1.0909
 1051TIP3   OH224643   1.144   6.530  15.867 -0.3269  0.0192  0.1152
 1051TIP3    H124644   1.212   6.509  15.803  0.0189  0.7578  0.2242
 1051TIP3    H224645   1.066   6.485  15.835  0.1969 -0.8122 -0.0314
 1052TIP3   OH224646   2.849   2.405   4.132  0.4745 -0.4252 -0.3012
 1052TIP3    H124647   2.799   2.408   4.050 -1.8059 -0.5854  0.9876
 1052TIP3    H224648   2.932   2.366   4.108  0.3234  0.5436 -2.7429
 1053TIP3   OH224649   1.908   3.170   1.546  0.2774  0.0149 -0.5581
 1053TIP3    H124650   1.868   3.149   1.630  0.8783 -0.4424 -0.3765
 1053TIP3    H224651   1.917   3.086   1.501  2.2977 -0.1264 -0.0102
 1054TIP3   OH224652   4.203   1.909   3.798 -0.8435 -0.0939  0.3892
 1054TIP3    H124653   4.195   1.927   3.892  0.3120  1.3063  0.2676
 1054TIP3    H224654   4.159   1.983   3.756  0.7982  0.6147 -0.1538
 1055TIP3   OH224655   3.680   3.428   5.282  0.4385  0.4441 -0.0892
 1055TIP3    H124656   3.643   3.514   5.263 -0.5668 -0.0074 -0.1876
 1055TIP3    H224657   3.724   3.439   5.367 -0.2126  0.8917  0.1915
 1056TIP3   OH224658   3.524   3.620   5.140 -0.6283 -0.2603 -0.4099
 1056TIP3    H124659   3.561   3.631   5.052  0.1037 -0.1972 -0.1039
 1056TIP3    H224660   3.432   3.644   5.131  0.0658  2.7595 -0.5619
 1057TIP3   OH224661   0.040   5.593  15.855 -0.7695 -0.0477 -0.1043
 1057TIP3    H124662   0.051   5.512  15.805 -0.3088  0.8355 -1.4814
 1057TIP3    H224663   0.077   5.661  15.799 -0.4133  1.0203  1.3638
 1058TIP3   OH224664   4.713   2.960   4.133 -0.6480  1.0669 -0.4507
 1058TIP3    H124665   4.681   3.050   4.139  1.5884  1.8296  1.4898
 1058TIP3    H224666   4.806   2.970   4.112 -0.3517 -0.7992 -0.1305
 1059TIP3   OH224667   6.415   1.614  16.650 -0.5109 -0.3104 -0.0457
 1059TIP3    H124668   6.457   1.637  16.733 -0.8769 -0.0760  0.0756
 1059TIP3    H224669   6.331   1.575  16.676 -0.3050 -0.9196 -0.2810
 1060TIP3   OH224670   5.579   5.093  14.267 -0.2917 -0.0980  0.2528
 1060TIP3    H124671   5.629   5.162  14.311 -0.3078 -0.2734  0.5464
 1060TIP3    H224672   5.558   5.031  14.337  0.9748 -1.1489 -0.2460
 1061TIP3   OH224673   4.456   4.176   0.538  0.5041  0.1088 -0.1178
 1061TIP3    H124674   4.550   4.191   0.536  0.2635  1.7841  0.0065
 1061TIP3    H224675   4.443   4.114   0.611  1.4327  0.3995  0.3026
 1062TIP3   OH224676   2.594   1.069   3.048 -0.2954  0.0371  0.8378
 1062TIP3    H124677   2.595   1.119   2.966  1.5518 -1.0730  0.1387
 1062TIP3    H224678   2.671   1.100   3.096  0.6431 -1.8017  0.5780
 1063TIP3   OH224679   1.274   0.823   6.768  0.4439 -0.3819 -0.1607
 1063TIP3    H124680   1.209   0.821   6.838 -0.9592  0.8346 -1.3719
 1063TIP3    H224681   1.319   0.907   6.778 -0.3254  0.1757 -1.1597
 1064TIP3   OH224682   6.675   0.888  16.715 -0.2040 -0.7134  0.2383
 1064TIP3    H124683   6.625   0.857  16.790  1.0503  0.1781  1.4959
 1064TIP3    H224684   6.630   0.968  16.687 -0.2940 -0.6824  0.4741
 1065TIP3   OH224685   6.067   2.592  10.683  0.0911  0.0728  0.6476
 1065TIP3    H124686   6.039   2.656  10.617  0.4674  0.0692  0.4786
 1065TIP3    H224687   6.160   2.579  10.664 -0.2045 -1.2774  0.0489
 1066TIP3   OH224688   4.940   6.278  13.878 -0.1461  0.2988 -0.3486
 1066TIP3    H124689   4.860   6.235  13.850  0.5106 -1.0345 -0.2651
 1066TIP3    H224690   4.973   6.321  13.799 -0.4416  0.0398 -0.6131
 1067TIP3   OH224691   6.478   6.760  11.794  0.4770 -0.4010  0.0313
 1067TIP3    H124692   6.552   6.763  11.734 -0.5588  0.7907 -1.2553
 1067TIP3    H224693   6.407   6.804  11.747 -1.0455 -1.4666  1.2331
 1068TIP3   OH224694   6.707   4.921   3.555 -0.2388 -0.1977  0.4959
 1068TIP3    H124695   6.686   4.845   3.501 -1.2406 -0.4548  1.2187
 1068TIP3    H224696   6.739   4.986   3.493 -1.6654 -0.3761 -0.4832
 1069TIP3   OH224697   1.130   1.102  11.623  0.2924  0.2641  0.2258
 1069TIP3    H124698   1.161   1.012  11.621  1.2760  0.6008 -1.1463
 1069TIP3    H224699   1.124   1.128  11.531  0.9276  1.8836  0.5916
 1070TIP3   OH224700   5.184   1.736  15.891  0.4874  0.3656  0.0819
 1070TIP3    H124701   5.097   1.750  15.853  0.4333  1.9222  0.7212
 1070TIP3    H224702   5.180   1.649  15.929  0.0958 -0.6966 -2.2479
 1071TIP3   OH224703   0.540   5.497   3.037  0.2343 -0.4808  0.2495
 1071TIP3    H124704   0.538   5.581   2.992 -0.7182 -0.3733  0.4754
 1071TIP3    H224705   0.472   5.503   3.104 -0.5077 -1.7743 -0.3566
 1072TIP3   OH224706   6.131   4.318   3.938  0.1228  0.0848 -0.0999
 1072TIP3    H124707   6.185   4.306   3.860  0.2903  1.1800 -0.1674
 1072TIP3    H224708   6.126   4.232   3.978  1.1958 -0.1995 -0.5719
 1073TIP3   OH224709   4.396   1.401   5.788 -0.3036 -0.3273 -0.1686
 1073TIP3    H124710   4.318   1.454   5.805  0.0338  0.0587  0.1776
 1073TIP3    H224711   4.442   1.398   5.872  1.1392  1.2193 -0.8536
 1074TIP3   OH224712   0.828   5.833  14.924 -0.2716  0.1207 -0.1691
 1074TIP3    H124713   0.923   5.819  14.919 -0.3237 -0.0905 -0.6360
 1074TIP3    H224714   0.817   5.894  14.997  0.0353 -1.6873  1.4868
 1075TIP3   OH224715   2.653   4.587   3.983 -0.0122 -0.2609  0.5769
 1075TIP3    H124716   2.557   4.585   3.979 -0.0351 -2.0091  1.0950
 1075TIP3    H224717   2.681   4.540   3.904  0.4813  1.4706 -0.3190
 1076TIP3   OH224718   3.100   0.456  11.164 -0.2788  0.0403 -0.0157
 1076TIP3    H124719   3.140   0.374  11.135 -1.0570 -1.4051  2.6587
 1076TIP3    H224720   3.171   0.505  11.205 -0.2191 -0.2296  0.2043
 1077TIP3   OH224721   4.561   4.362   2.854  0.5853  0.4923  0.5368
 1077TIP3    H124722   4.616   4.406   2.919  0.2267  0.3426  0.9446
 1077TIP3    H224723   4.607   4.375   2.771  2.7436 -2.0181  1.2112
 1078TIP3   OH224724   6.082   4.606   3.038  0.2727 -0.3107  0.5254
 1078TIP3    H124725   6.129   4.558   3.106 -0.2939 -0.4394  0.8406
 1078TIP3    H224726   5.990   4.585   3.054 -0.1062  1.7670  1.4116
 1079TIP3   OH224727   1.981   2.607   2.375 -0.5781  0.2270  0.0590
 1079TIP3    H124728   1.939   2.522   2.369 -0.7397  0.2294  1.1132
 1079TIP3    H224729   2.040   2.601   2.450 -0.4136  0.9685  0.0049
 1080TIP3   OH224730   1.317   4.037  16.962 -0.1003 -0.0947 -0.0704
 1080TIP3    H124731   1.384   3.983  17.003 -0.7446  0.3435  1.6776
 1080TIP3    H224732   1.298   3.994  16.879  0.1472 -1.9669  0.7868
 1081TIP3   OH224733   4.737   6.810   1.731  0.3150 -0.7759 -0.4847
 1081TIP3    H124734   4.714   6.741   1.669  0.2237 -0.4447 -0.8246
 1081TIP3    H224735   4.832   6.804   1.740  0.5022  0.0505 -1.7165
 1082TIP3   OH224736   0.534   3.036  12.454 -0.2202  0.3228  0.9817
 1082TIP3    H124737   0.526   2.951  12.409  2.6463 -0.4810  1.7391
 1082TIP3    H224738   0.623   3.035  12.489 -0.5638  3.1436  2.1503
 1083TIP3   OH224739   1.446   4.940  10.612 -0.1084  0.5112 -0.1121
 1083TIP3    H124740   1.405   5.026  10.614  3.1895  2.3293 -2.2297
 1083TIP3    H224741   1.431   4.909  10.523  0.5877 -0.0995 -0.0243
 1084TIP3   OH224742   4.971   6.098   5.263  0.4203  0.0744 -0.0436
 1084TIP3    H124743   5.063   6.124   5.250  0.5519  0.3378  1.2820
 1084TIP3    H224744   4.946   6.141   5.345 -1.2948  1.0773 -1.0382
 1085TIP3   OH224745   4.557   5.520  15.727 -0.1825  0.1388 -0.6083
 1085TIP3    H124746   4.586   5.486  15.812 -0.4713  2.4457  0.4944
 1085TIP3    H224747   4.539   5.613  15.743 -0.5283  0.5849 -3.1472
 1086TIP3   OH224748   3.884   3.128  14.819 -0.1782 -0.1945 -0.0132
 1086TIP3    H124749   3.895   3.058  14.754  0.6654 -0.0179 -0.0823
 1086TIP3    H224750   3.842   3.199  14.770 -2.3621 -1.1149  0.4011
 1087TIP3   OH224751   4.640   2.385  12.428  0.0158  0.0366 -0.4627
 1087TIP3    H124752   4.654   2.309  12.372  3.9851 -0.2064  0.5794
 1087TIP3    H224753   4.588   2.352  12.502  1.7131 -1.7619  0.0006
 1088TIP3   OH224754   1.605   1.177   4.568  0.4858 -0.4974 -0.2345
 1088TIP3    H124755   1.600   1.201   4.660  2.6710 -0.9074  0.0445
 1088TIP3    H224756   1.582   1.084   4.566 -1.5699 -0.0463 -0.4427
 1089TIP3   OH224757   0.715   1.084  13.701  0.0659  0.1250 -0.3001
 1089TIP3    H124758   0.664   1.119  13.774  0.6940  0.1285  0.1463
 1089TIP3    H224759   0.807   1.093  13.729  0.2686 -2.8126  0.3266
 1090TIP3   OH224760   0.544   6.401   4.295  0.6656  0.1193 -0.0837
 1090TIP3    H124761   0.462   6.364   4.263  0.1503  0.5160  0.7355
 1090TIP3    H224762   0.556   6.481   4.244 -0.5550  1.1642  1.1638
 1091TIP3   OH224763   1.819   0.556   5.504 -0.6586  0.3991  0.4686
 1091TIP3    H124764   1.845   0.641   5.469 -0.8230  0.3295  0.1781
 1091TIP3    H224765   1.766   0.577   5.581  0.0281  0.5479  0.9107
 1092TIP3   OH224766   6.671   2.336  13.275  0.8787  0.0824 -0.6775
 1092TIP3    H124767   6.625   2.296  13.349 -1.3903  0.3420 -1.8677
 1092TIP3    H224768   6.723   2.265  13.238  1.1460 -0.3407  0.4598
 1093TIP3   OH224769   3.160   5.888   2.342  0.4128  0.0127 -0.5426
 1093TIP3    H124770   3.178   5.868   2.250  1.5937  0.7079 -0.4708
 1093TIP3    H224771   3.088   5.829   2.365  0.5115 -0.6031 -1.7354
 1094TIP3   OH224772   5.690   6.706   1.973  0.1390 -0.0948  0.2471
 1094TIP3    H124773   5.653   6.668   1.894 -0.5889 -1.8608  1.3645
 1094TIP3    H224774   5.776   6.665   1.982  0.9545  1.3966 -0.5086
 1095TIP3   OH224775   0.223   4.769   4.207  0.5742  0.0258 -0.5131
 1095TIP3    H124776   0.273   4.844   4.174  0.9636 -0.1068 -0.2405
 1095TIP3    H224777   0.208   4.789   4.300  0.3749 -0.0705 -0.5253
 1096TIP3   OH224778   0.773   4.809  14.987  0.0229  0.3833 -0.0358
 1096TIP3    H124779   0.819   4.740  14.939 -1.1619  0.0173 -0.6954
 1096TIP3    H224780   0.741   4.766  15.066 -1.2144 -0.0028 -0.7235
 1097TIP3   OH224781   6.139   2.598   1.684  0.0033  0.5135 -0.2358
 1097TIP3    H124782   6.184   2.677   1.655 -1.3578  1.7109  0.7465
 1097TIP3    H224783   6.052   2.605   1.647 -0.0805 -0.6296 -0.2818
 1098TIP3   OH224784   6.230   2.354  12.188 -0.0951 -0.6468 -0.1397
 1098TIP3    H124785   6.279   2.305  12.121 -2.4621 -1.3234 -1.4922
 1098TIP3    H224786   6.138   2.340  12.165 -0.9978 -0.2988  2.8739
 1099TIP3   OH224787   0.410   3.188  11.444 -0.2740  0.0488  0.0684
 1099TIP3    H124788   0.369   3.162  11.362 -0.6637 -2.8312  1.0348
 1099TIP3    H224789   0.379   3.277  11.461 -3.7499 -0.8689 -0.7419
 1100TIP3   OH224790   5.857   3.180  15.934  0.6911  0.0280 -0.2790
 1100TIP3    H124791   5.920   3.252  15.928  0.0118  0.6464 -0.1332
 1100TIP3    H224792   5.773   3.220  15.915  0.4794 -1.0426 -1.8215
 1101TIP3   OH224793   0.503   5.669  15.468  0.3827 -0.3132  0.4404
 1101TIP3    H124794   0.588   5.692  15.431 -0.5155 -0.6158 -2.0399
 1101TIP3    H224795   0.443   5.733  15.430 -0.9253 -1.9096 -0.3126
 1102TIP3   OH224796   2.398   6.654  13.426  0.7553 -0.0610  0.5645
 1102TIP3    H124797   2.318   6.621  13.385  0.8248 -1.2831  1.3487
 1102TIP3    H224798   2.441   6.706  13.358  1.3428 -2.7264 -1.2640
 1103TIP3   OH224799   0.143   4.138  14.356 -0.3176  0.0467  0.0771
 1103TIP3    H124800   0.073   4.181  14.405 -0.2872 -0.9827  1.0572
 1103TIP3    H224801   0.105   4.054  14.329 -1.5648  1.8195 -4.6917
 1104TIP3   OH224802   4.676   1.223  13.391  0.2750  0.0812 -0.0451
 1104TIP3    H124803   4.618   1.219  13.314  0.0938  0.5577  0.0631
 1104TIP3    H224804   4.633   1.168  13.456  0.1186  0.1609 -0.0802
 1105TIP3   OH224805   6.764   0.784   4.445 -0.4379  0.1504  0.1387
 1105TIP3    H124806   6.853   0.807   4.417  0.4287 -1.2776  1.5522
 1105TIP3    H224807   6.714   0.864   4.432  1.0557  1.0177 -0.6467
 1106TIP3   OH224808   3.394   1.930   0.470 -0.5088 -0.0910 -0.3154
 1106TIP3    H124809   3.470   1.954   0.417  0.0520  0.0545  0.5144
 1106TIP3    H224810   3.409   1.975   0.554 -1.3290 -0.3602 -0.0154
 1107TIP3   OH224811   2.379   0.592   2.813  0.0810  0.1320  0.1950
 1107TIP3    H124812   2.460   0.616   2.859  0.7578 -1.6719  0.0166
 1107TIP3    H224813   2.372   0.655   2.741 -0.0244  1.8557  1.6337
 1108TIP3   OH224814   2.011   5.930   0.581  0.3196  0.5431 -0.7175
 1108TIP3    H124815   1.945   5.985   0.624  0.0053  1.6984 -2.5705
 1108TIP3    H224816   1.960   5.867   0.530  0.6435 -2.4076  2.2932
 1109TIP3   OH224817   2.221   4.794  13.399  0.2261  0.2920  0.0770
 1109TIP3    H124818   2.273   4.782  13.478  0.3185  1.2786  0.1811
 1109TIP3    H224819   2.196   4.705  13.373  2.0057 -0.2173 -0.0282
 1110TIP3   OH224820   2.177   4.385   4.069 -0.0485 -0.2287  0.1351
 1110TIP3    H124821   2.084   4.386   4.087 -0.0525  0.3778  0.0810
 1110TIP3    H224822   2.188   4.314   4.005 -0.4515 -0.3649  0.2133
 1111TIP3   OH224823   3.021   0.548  17.231  0.7210 -0.1575 -0.1089
 1111TIP3    H124824   3.037   0.642  17.222  1.3543 -0.2854 -0.3774
 1111TIP3    H224825   3.019   0.516  17.141 -0.5071 -0.2472 -0.0657
 1112TIP3   OH224826   1.197   3.402  10.241  0.1805  0.1199  0.4319
 1112TIP3    H124827   1.293   3.401  10.240  0.2033  1.0905 -0.1772
 1112TIP3    H224828   1.172   3.314  10.268  1.2453 -0.0506  0.9146
 1113TIP3   OH224829   0.058   2.076   3.522 -0.5646  0.2281  0.3170
 1113TIP3    H124830   0.087   2.070   3.613  1.5712 -0.2871 -0.3342
 1113TIP3    H224831   0.081   1.991   3.484 -2.4499  0.0137 -0.4635
 1114TIP3   OH224832   5.561   5.202   4.576 -0.4805 -0.5421 -0.1240
 1114TIP3    H124833   5.651   5.170   4.570 -0.2986 -0.5374  2.0843
 1114TIP3    H224834   5.516   5.159   4.503  1.4160 -0.0583 -1.6648
 1115TIP3   OH224835   6.697   3.658  11.423  0.0937 -0.3653 -0.3807
 1115TIP3    H124836   6.783   3.690  11.451  0.1450  0.4276 -1.4175
 1115TIP3    H224837   6.707   3.640  11.330 -1.2094  0.8932 -0.7874
 1116TIP3   OH224838   2.315   0.723   5.472  0.0882  0.5478  0.2766
 1116TIP3    H124839   2.265   0.712   5.391  0.8292 -1.4199  0.0258
 1116TIP3    H224840   2.399   0.681   5.453  0.4592  0.5210  1.9044
 1117TIP3   OH224841   2.275   4.796   1.958  0.4306  0.5207 -0.4174
 1117TIP3    H124842   2.349   4.735   1.950 -0.6008 -0.9135  0.5625
 1117TIP3    H224843   2.198   4.743   1.937 -0.4458  1.6431 -0.0999
 1118TIP3   OH224844   3.674   2.872  11.255 -0.7590 -0.0402  0.2025
 1118TIP3    H124845   3.716   2.956  11.239 -0.5238 -0.0428  0.7716
 1118TIP3    H224846   3.745   2.816  11.287 -0.9911 -0.3419  0.1946
 1119TIP3   OH224847   5.448   4.291  14.819 -1.1393  0.2432  0.4623
 1119TIP3    H124848   5.370   4.239  14.803 -2.4913  2.5338 -0.8755
 1119TIP3    H224849   5.469   4.331  14.734  1.2806 -0.0102  0.8714
 1120TIP3   OH224850   2.504   1.058  12.281 -0.8484  0.0188 -0.3970
 1120TIP3    H124851   2.471   1.120  12.215 -1.1007 -1.2078 -1.4629
 1120TIP3    H224852   2.431   0.998  12.295  0.0695 -1.2676 -0.9573
 1121TIP3   OH224853   6.171   0.533   3.641  0.6323  0.0084 -0.1364
 1121TIP3    H124854   6.191   0.627   3.644 -1.1109  0.4495 -1.1024
 1121TIP3    H224855   6.162   0.513   3.548 -1.8325 -0.4111  0.1054
 1122TIP3   OH224856   0.439   1.400   4.683  0.1466  0.3971 -0.1337
 1122TIP3    H124857   0.384   1.391   4.760 -0.5787  5.2070  0.2285
 1122TIP3    H224858   0.389   1.359   4.612 -2.6134  2.0139  0.7359
 1123TIP3   OH224859   2.215   6.648  13.716  0.1464  0.1942  0.0631
 1123TIP3    H124860   2.181   6.737  13.707  0.7570  0.3011 -1.4318
 1123TIP3    H224861   2.258   6.630  13.633  1.6809 -0.8111  1.0259
 1124TIP3   OH224862   2.859   2.500   5.728 -0.6275  0.3091 -0.8170
 1124TIP3    H124863   2.895   2.482   5.815 -1.7670  2.5977  0.2129
 1124TIP3    H224864   2.879   2.421   5.677  2.0414 -0.2204  0.8474
 1125TIP3   OH224865   0.796   3.031   1.101 -0.2139  0.1099 -0.3248
 1125TIP3    H124866   0.794   3.121   1.069 -1.3274 -0.1402 -0.9926
 1125TIP3    H224867   0.752   3.035   1.186  1.4005  0.5035  0.5334
 1126TIP3   OH224868   4.001   4.038   2.830 -0.1193  0.0234  0.0200
 1126TIP3    H124869   4.073   4.042   2.894 -0.9612  1.8751  0.9352
 1126TIP3    H224870   3.994   3.945   2.808  3.5040 -0.0880 -1.2665
 1127TIP3   OH224871   5.920   3.099  15.199  0.0100 -0.2044 -0.3078
 1127TIP3    H124872   6.000   3.065  15.239 -0.5656  0.7192  1.7860
 1127TIP3    H224873   5.949   3.174  15.147  0.7373 -1.1824 -1.3570
 1128TIP3   OH224874   6.567   2.124  16.573  0.3438 -0.6272  0.4478
 1128TIP3    H124875   6.576   2.218  16.560 -0.2113 -0.2248  2.5497
 1128TIP3    H224876   6.655   2.095  16.597  0.4463 -0.5816  0.1256
 1129TIP3   OH224877   6.637   3.851   2.628 -0.3017 -0.0843  0.2231
 1129TIP3    H124878   6.572   3.918   2.604 -0.8594 -0.0728  1.6298
 1129TIP3    H224879   6.598   3.769   2.598 -0.0956  0.1134 -0.5955
 1130TIP3   OH224880   3.724   0.163  14.850  0.2137  0.3554 -0.2098
 1130TIP3    H124881   3.673   0.123  14.921  1.0531 -0.4218 -0.0187
 1130TIP3    H224882   3.763   0.241  14.890  0.5378  0.0209  0.1386
 1131TIP3   OH224883   5.517   4.029  16.736 -0.2474 -0.7390  0.1069
 1131TIP3    H124884   5.477   3.953  16.780 -4.0303  0.7937 -0.2374
 1131TIP3    H224885   5.535   4.090  16.807 -3.0670  0.3520  0.0087
 1132TIP3   OH224886   1.888   3.769  11.316 -0.7691  0.4275  0.4475
 1132TIP3    H124887   1.946   3.765  11.240  0.0037  2.8903  0.8203
 1132TIP3    H224888   1.837   3.688  11.312  0.3024 -0.2053 -1.8187
 1133TIP3   OH224889   0.852   3.441   0.152  0.0960 -0.2015 -0.4179
 1133TIP3    H124890   0.814   3.518   0.109 -0.1380  1.0941  1.9200
 1133TIP3    H224891   0.783   3.410   0.211  0.7521 -1.2556 -0.1822
 1134TIP3   OH224892   0.834   4.851  16.653 -0.1984  0.1218 -0.0835
 1134TIP3    H124893   0.899   4.866  16.585 -0.0622  1.7867  0.3665
 1134TIP3    H224894   0.755   4.896  16.622 -0.7289 -0.7330 -0.0054
 1135TIP3   OH224895   3.207   5.347  16.381  0.0107  0.7408  0.2211
 1135TIP3    H124896   3.223   5.310  16.468  1.1703  0.7621  0.0293
 1135TIP3    H224897   3.119   5.317  16.358 -0.4535  1.0199  1.5489
 1136TIP3   OH224898   4.808   5.215  12.415  0.3313 -0.5094  0.4267
 1136TIP3    H124899   4.770   5.127  12.406 -0.9295  0.1989 -2.3629
 1136TIP3    H224900   4.733   5.273  12.422  0.9470  0.5870 -1.2764
 1137TIP3   OH224901   6.301   3.041   3.452  0.4512  0.4423  0.1669
 1137TIP3    H124902   6.233   2.974   3.446  0.3400  0.6156 -0.6679
 1137TIP3    H224903   6.254   3.124   3.441  0.5983  0.6577  1.1113
 1138TIP3   OH224904   0.749   6.167   3.598  0.6015  0.1027  0.5147
 1138TIP3    H124905   0.675   6.216   3.562  0.4736 -1.6206 -1.7087
 1138TIP3    H224906   0.825   6.219   3.573  0.2904  0.9017  1.1643
 1139TIP3   OH224907   1.263   1.674  16.539  0.5967  0.2575  0.2371
 1139TIP3    H124908   1.250   1.632  16.454 -1.6619  1.7314 -0.2496
 1139TIP3    H224909   1.314   1.753  16.520 -1.3531  1.4954 -0.1084
 1140TIP3   OH224910   4.411   2.754   5.566 -0.3286  0.4145  0.1110
 1140TIP3    H124911   4.408   2.725   5.475 -0.4916 -0.7763  0.4787
 1140TIP3    H224912   4.505   2.764   5.585 -0.3197  1.5431 -0.4307
 1141TIP3   OH224913   0.892   1.016  14.641  0.3349 -0.6661 -0.2885
 1141TIP3    H124914   0.906   1.077  14.713  0.7100  1.1948 -1.8841
 1141TIP3    H224915   0.978   0.978  14.625  0.2826 -0.9665  0.1160
 1142TIP3   OH224916   3.496   2.904   2.902 -0.2484 -0.1599 -0.7399
 1142TIP3    H124917   3.564   2.966   2.931 -0.6093  0.1186 -0.4840
 1142TIP3    H224918   3.434   2.901   2.974  0.7175 -2.2891  0.0847
 1143TIP3   OH224919   5.757   0.260   0.917  0.2389 -0.4549  0.0625
 1143TIP3    H124920   5.744   0.167   0.932 -0.0493 -0.1501  1.9207
 1143TIP3    H224921   5.730   0.302   0.999 -0.6983  1.3547 -1.1017
 1144TIP3   OH224922   3.440   2.366  12.720 -0.1232 -0.3050  0.1771
 1144TIP3    H124923   3.414   2.276  12.740 -1.3178 -0.2457 -1.0296
 1144TIP3    H224924   3.391   2.389  12.642  1.6594  0.7217 -0.7100
 1145TIP3   OH224925   2.525   3.207  14.116  0.1042 -0.3921  0.4916
 1145TIP3    H124926   2.615   3.206  14.085  0.2340 -0.3983  0.8735
 1145TIP3    H224927   2.495   3.297  14.102 -0.1972 -0.6545 -0.6857
 1146TIP3   OH224928   4.573   0.219  14.566  0.1928  0.3215  0.0655
 1146TIP3    H124929   4.530   0.303  14.555 -0.0961  0.1696  0.0336
 1146TIP3    H224930   4.626   0.230  14.645 -0.9721  0.0736  0.9075
 1147TIP3   OH224931   3.043   0.013  14.212 -0.0828 -0.2131  0.1144
 1147TIP3    H124932   3.035  -0.060  14.150  0.5973  1.8032 -2.4958
 1147TIP3    H224933   3.096  -0.022  14.284 -1.6683 -2.9157  0.1055
 1148TIP3   OH224934   3.275   2.450  10.822  0.2902  0.3424  0.0910
 1148TIP3    H124935   3.350   2.484  10.869 -0.5730  1.7998  0.4866
 1148TIP3    H224936   3.212   2.522  10.821 -0.6567 -0.4439 -1.2219
 1149TIP3   OH224937   2.300   3.036   1.530 -0.2523 -0.5360 -0.3961
 1149TIP3    H124938   2.282   2.980   1.605  2.2645 -2.4538 -1.1051
 1149TIP3    H224939   2.271   2.985   1.454 -1.6041  0.8626 -0.8918
 1150TIP3   OH224940   0.383   5.486   4.959  0.3694 -0.3378 -0.7245
 1150TIP3    H124941   0.296   5.450   4.974  0.7310 -1.6001 -1.4731
 1150TIP3    H224942   0.368   5.565   4.907 -0.3466 -0.3925 -0.6067
 1151TIP3   OH224943   3.157   4.435   2.490  0.3508  0.1233 -0.3060
 1151TIP3    H124944   3.142   4.502   2.423  2.0258 -0.7717 -1.6372
 1151TIP3    H224945   3.244   4.455   2.525  1.3314 -1.8974 -1.4375
 1152TIP3   OH224946   1.787   5.560  16.606 -0.6105  0.3755 -0.0696
 1152TIP3    H124947   1.746   5.524  16.684 -0.4792 -0.7228 -0.4865
 1152TIP3    H224948   1.721   5.549  16.537 -0.1075 -0.2345 -0.4662
 1153TIP3   OH224949   3.530   6.395   4.952 -0.1811 -0.1409 -0.2621
 1153TIP3    H124950   3.444   6.429   4.978 -0.4011 -0.2866 -0.7815
 1153TIP3    H224951   3.510   6.315   4.903  0.3229 -1.0581  0.9508
 1154TIP3   OH224952   5.116   1.271   5.433 -0.0645  0.1095 -0.4793
 1154TIP3    H124953   5.048   1.305   5.492 -0.5699 -1.6644  0.0292
 1154TIP3    H224954   5.151   1.349   5.389 -0.8978  1.2978  0.8627
 1155TIP3   OH224955   2.675   4.973  11.453 -0.7251 -0.1345 -0.3134
 1155TIP3    H124956   2.586   5.001  11.475 -0.4406  0.4147  0.1754
 1155TIP3    H224957   2.682   4.987  11.358 -1.3419 -0.7202 -0.4521
 1156TIP3   OH224958   6.213   6.123   1.839 -0.2627 -0.2007 -0.4185
 1156TIP3    H124959   6.266   6.138   1.917 -1.4760  0.3917  0.3164
 1156TIP3    H224960   6.209   6.209   1.796  1.0175 -0.6804 -1.5567
 1157TIP3   OH224961   2.973   5.472  11.712 -0.3211 -0.2978 -0.5012
 1157TIP3    H124962   3.033   5.403  11.685  0.2599 -0.1680  0.4130
 1157TIP3    H224963   2.886   5.439  11.689  0.0425 -0.7871 -1.2061
 1158TIP3   OH224964   4.949   3.072  13.181 -0.1460  0.0462  0.2671
 1158TIP3    H124965   5.004   3.127  13.125  1.6901 -1.4085  0.5502
 1158TIP3    H224966   4.873   3.050  13.126 -0.5875  2.2295 -0.0759
 1159TIP3   OH224967   6.001   6.433   3.996  0.3096  0.2098 -0.4690
 1159TIP3    H124968   5.989   6.340   3.978  1.1935  0.2727 -1.4835
 1159TIP3    H224969   6.091   6.440   4.028 -0.0887  0.5908  0.6041
 1160TIP3   OH224970   5.685   4.567   5.483  0.0282 -0.7560  0.3485
 1160TIP3    H124971   5.607   4.571   5.428  0.7313  0.5115 -0.6075
 1160TIP3    H224972   5.652   4.546   5.570 -1.2391 -1.4442 -0.2679
 1161TIP3   OH224973   4.140   3.247  13.266  1.0936 -0.0058  0.4066
 1161TIP3    H124974   4.057   3.267  13.223  2.0516  0.5368 -1.3176
 1161TIP3    H224975   4.152   3.153  13.253 -0.1205 -0.4853  2.3773
 1162TIP3   OH224976   6.647   6.224  12.284 -0.3433 -0.0654 -0.2697
 1162TIP3    H124977   6.641   6.152  12.222 -0.0919 -0.5767  0.2923
 1162TIP3    H224978   6.618   6.301  12.235  0.2932 -0.3832 -1.1546
 1163TIP3   OH224979   2.844   3.449  12.108 -0.0866  0.5491 -0.2897
 1163TIP3    H124980   2.749   3.457  12.118 -0.2577 -1.8142  0.5063
 1163TIP3    H224981   2.871   3.533  12.071 -2.4199  1.4340 -0.1512
 1164TIP3   OH224982   3.504   5.793   5.554 -0.3646  0.2698 -0.0121
 1164TIP3    H124983   3.599   5.797   5.538 -0.1925 -1.3580  0.4334
 1164TIP3    H224984   3.497   5.790   5.650 -0.8385 -0.2477 -0.0636
 1165TIP3   OH224985   2.569   5.678   3.459  0.2800 -0.5794  0.3737
 1165TIP3    H124986   2.645   5.704   3.511  1.7252  1.1223 -2.3508
 1165TIP3    H224987   2.601   5.674   3.369 -2.4050 -1.8865 -0.6362
 1166TIP3   OH224988   6.239   2.253   2.753  0.0245  0.4832  0.4926
 1166TIP3    H124989   6.233   2.332   2.808 -0.5217  1.6658 -1.1862
 1166TIP3    H224990   6.321   2.263   2.705  0.5245 -0.5675  1.1050
 1167TIP3   OH224991   5.954   5.787  16.494  0.2268 -0.5959  0.3335
 1167TIP3    H124992   5.895   5.825  16.559  2.0085  0.5559  1.3518
 1167TIP3    H224993   5.899   5.775  16.416 -1.4349  0.0430  1.3634
 1168TIP3   OH224994   5.506   5.843  11.293  0.2127  0.6387  0.6782
 1168TIP3    H124995   5.450   5.871  11.365  0.8731  2.0848  0.6594
 1168TIP3    H224996   5.594   5.837  11.331  0.6494  1.8508 -0.0682
 1169TIP3   OH224997   1.528   1.197  13.144 -0.5098 -0.2950  0.0892
 1169TIP3    H124998   1.584   1.150  13.082  0.8416 -0.2311  1.2150
 1169TIP3    H224999   1.441   1.192  13.105 -0.1436 -2.3891 -0.5898
 1170TIP3   OH225000   3.728   2.989  12.222  0.1000  0.2886  0.3242
 1170TIP3    H125001   3.793   2.923  12.246  0.1282  0.8064  1.7059
 1170TIP3    H225002   3.668   2.942  12.164  2.9837  0.3759 -3.1042
 1171TIP3   OH225003   4.663   2.467   0.570  0.3247 -0.4197 -0.7165
 1171TIP3    H125004   4.575   2.478   0.534  0.7327 -2.1575 -2.4370
 1171TIP3    H225005   4.661   2.513   0.654 -2.0564 -0.0068 -0.9325
 1172TIP3   OH225006   5.461   2.879  11.419 -0.0046 -0.3640 -0.0742
 1172TIP3    H125007   5.373   2.846  11.436  0.1890 -0.3785  0.9444
 1172TIP3    H225008   5.498   2.819  11.354 -1.0046  0.0854 -1.0928
 1173TIP3   OH225009   6.466   2.626  11.277 -0.6128 -0.3465 -0.0048
 1173TIP3    H125010   6.420   2.709  11.293  0.5080  0.4899 -0.9234
 1173TIP3    H225011   6.410   2.578  11.216 -1.7420 -0.7183  1.2845
 1174TIP3   OH225012   2.360   3.789  15.039  0.3792  0.5944 -0.0538
 1174TIP3    H125013   2.440   3.773  15.090  1.0330  0.9444 -0.9509
 1174TIP3    H225014   2.289   3.761  15.097  1.2746 -2.7542 -0.4008
 1175TIP3   OH225015   4.838   0.884  15.137  0.1850  0.1685  0.1975
 1175TIP3    H125016   4.788   0.803  15.150  1.4054 -0.5276  0.6844
 1175TIP3    H225017   4.818   0.936  15.215  0.3330 -0.1836  0.4807
 1176TIP3   OH225018   0.988   2.028   4.224  0.2068 -0.3768 -0.2862
 1176TIP3    H125019   0.952   1.955   4.174 -2.0419  0.0249  0.6161
 1176TIP3    H225020   0.947   2.020   4.310 -0.3032  2.0797 -0.2427
 1177TIP3   OH225021   6.639   4.744  17.126  0.0540  0.3704 -0.1370
 1177TIP3    H125022   6.623   4.754  17.220  2.2110  2.0763  0.1286
 1177TIP3    H225023   6.690   4.821  17.102  0.5050 -0.5752 -2.4941
 1178TIP3   OH225024   4.954   6.123  16.858  0.2204  0.4277 -0.6767
 1178TIP3    H125025   4.866   6.110  16.893 -0.4101  1.6173 -1.7201
 1178TIP3    H225026   5.008   6.057  16.902 -1.4798 -1.3505 -1.1375
 1179TIP3   OH225027   3.506   6.412   0.733  0.0695  0.0370 -0.3920
 1179TIP3    H125028   3.438   6.457   0.782  0.3372 -0.8485  0.8598
 1179TIP3    H225029   3.459   6.350   0.676 -0.2093  0.3464 -0.4985
 1180TIP3   OH225030   1.978   6.005   6.030  0.3177 -0.2518  0.1973
 1180TIP3    H125031   2.047   5.981   6.091 -1.1595  0.4264  2.2245
 1180TIP3    H225032   1.944   5.921   5.998  0.6392 -0.6407  0.8493
 1181TIP3   OH225033   6.398   4.146  15.740 -0.2686  0.6191  0.3500
 1181TIP3    H125034   6.420   4.069  15.688 -1.4785  0.4323  0.0780
 1181TIP3    H225035   6.391   4.217  15.677  0.6937  0.9345  0.5832
 1182TIP3   OH225036   1.242   4.916  14.232 -0.0066 -0.4034 -0.3966
 1182TIP3    H125037   1.327   4.953  14.259 -0.6966 -0.1202  1.5583
 1182TIP3    H225038   1.205   4.881  14.313 -0.6777 -2.8407 -1.6544
 1183TIP3   OH225039   0.634   3.533   2.993  0.2314  0.5093 -0.4921
 1183TIP3    H125040   0.657   3.588   3.068 -1.3272  1.9296 -0.9850
 1183TIP3    H225041   0.583   3.461   3.030  0.1108  0.7953 -0.0963
 1184TIP3   OH225042   5.936   2.522   5.449 -0.0769 -0.5166  0.1122
 1184TIP3    H125043   5.907   2.602   5.404 -0.6507 -1.1028 -0.5835
 1184TIP3    H225044   5.987   2.474   5.383 -1.2719 -1.5806 -0.0739
 1185TIP3   OH225045   6.360   4.922   4.222 -0.0758  0.3707 -0.1770
 1185TIP3    H125046   6.363   4.845   4.165  4.1708  0.5231 -0.4882
 1185TIP3    H225047   6.341   4.886   4.309 -2.2742 -0.4188 -0.9392
 1186TIP3   OH225048   1.990   0.420   4.319  0.3758 -0.3106  0.4239
 1186TIP3    H125049   1.999   0.447   4.410  0.3902 -0.0276  0.3392
 1186TIP3    H225050   2.080   0.416   4.286  0.3572 -0.1825  0.3563
 1187TIP3   OH225051   5.296   1.494   4.877  0.0767  0.2088 -0.3570
 1187TIP3    H125052   5.363   1.435   4.910 -0.2993 -0.4805 -0.8082
 1187TIP3    H225053   5.311   1.576   4.925  0.1501 -0.4648  0.8149
 1188TIP3   OH225054   6.420   4.636  11.653  0.1594  0.1324 -0.0779
 1188TIP3    H125055   6.386   4.547  11.647 -1.2041  0.5558  0.9646
 1188TIP3    H225056   6.435   4.650  11.747 -0.3604  1.2615 -0.1552
 1189TIP3   OH225057   1.583   4.503   5.280  0.9101 -0.1129 -0.3789
 1189TIP3    H125058   1.644   4.551   5.223  3.4517 -1.5021  0.9885
 1189TIP3    H225059   1.571   4.418   5.236  1.7944 -0.6732  0.4149
 1190TIP3   OH225060   4.917   4.325  12.055 -0.5057  0.3450  0.0308
 1190TIP3    H125061   4.845   4.370  12.010  2.0124  2.3778 -2.3249
 1190TIP3    H225062   4.924   4.241  12.011 -0.5041  0.7562 -0.7661
 1191TIP3   OH225063   5.060   4.444  15.699 -0.2053  0.0540 -0.6351
 1191TIP3    H125064   5.024   4.522  15.741  1.8588  0.0483  1.3333
 1191TIP3    H225065   5.077   4.471  15.608  0.1560  1.8064 -0.0763
 1192TIP3   OH225066   4.238   1.857  11.864 -0.5598 -0.3888  0.5846
 1192TIP3    H125067   4.187   1.779  11.885  2.0142 -2.0977  0.9523
 1192TIP3    H225068   4.298   1.829  11.795 -0.1398  1.5422  0.0882
 1193TIP3   OH225069   5.508   6.589  11.890 -0.0746  0.1833  0.4211
 1193TIP3    H125070   5.561   6.511  11.878 -0.2164  0.2745 -0.9236
 1193TIP3    H225071   5.434   6.577  11.830 -0.0344  1.3945  0.1090
 1194TIP3   OH225072   6.200   5.399   3.092 -0.9126 -0.6365 -0.0682
 1194TIP3    H125073   6.214   5.477   3.146  0.6167  0.9619 -2.5510
 1194TIP3    H225074   6.248   5.330   3.136 -0.1084  0.4742  0.8622
 1195TIP3   OH225075   6.776   5.326  15.994  0.0275 -0.5978 -0.3016
 1195TIP3    H125076   6.685   5.310  15.970  0.3896 -0.4977 -1.8758
 1195TIP3    H225077   6.779   5.309  16.088 -1.8188  0.4049 -0.0121
 1196TIP3   OH225078   3.935   2.303  14.607  0.1032 -0.1465  1.0654
 1196TIP3    H125079   3.995   2.309  14.532 -1.9948 -0.5100 -0.7221
 1196TIP3    H225080   3.887   2.386  14.605 -2.6942 -1.6453 -0.5215
 1197TIP3   OH225081   1.149   1.435  11.606 -0.4066 -0.3550 -0.2149
 1197TIP3    H125082   1.188   1.377  11.671 -1.5436 -0.0346  0.7789
 1197TIP3    H225083   1.136   1.518  11.653 -0.7147  0.0630 -1.0219
 1198TIP3   OH225084   3.005   4.602   4.148 -0.3221  0.9120  0.0523
 1198TIP3    H125085   2.955   4.520   4.144 -0.0400  0.8044 -2.5232
 1198TIP3    H225086   3.096   4.576   4.139 -0.2929  1.5301 -1.7696
 1199TIP3   OH225087   6.034   5.138   1.778  0.0436 -0.0528  0.5292
 1199TIP3    H125088   5.955   5.098   1.742  0.6136 -0.8063  0.0792
 1199TIP3    H225089   6.004   5.219   1.819 -0.7327  0.4309 -0.9521
 1200TIP3   OH225090   0.713   2.034   0.621 -0.3619 -0.0096 -0.3012
 1200TIP3    H125091   0.687   2.034   0.713 -1.0088 -0.0099 -0.4762
 1200TIP3    H225092   0.800   2.073   0.620 -0.0188 -0.7283  0.3978
 1201TIP3   OH225093   1.041   3.153   3.077 -0.2072 -0.4369  0.0771
 1201TIP3    H125094   1.106   3.083   3.074 -1.9752 -2.2991  1.8833
 1201TIP3    H225095   0.957   3.108   3.089 -1.6226  1.9474 -0.1276
 1202TIP3   OH225096   4.613   5.313   2.915 -0.0657 -0.3270 -0.1236
 1202TIP3    H125097   4.708   5.313   2.905 -0.0399 -1.6388 -0.0119
 1202TIP3    H225098   4.593   5.397   2.957  1.1381 -0.4006  0.6307
 1203TIP3   OH225099   5.240   6.637  15.660 -0.2957  0.1973 -0.2532
 1203TIP3    H125100   5.262   6.578  15.588 -0.5995  2.3910 -2.2710
 1203TIP3    H225101   5.232   6.723  15.619 -1.1928  1.4458  2.3141
 1204TIP3   OH225102   4.412   6.188   4.825  0.3813 -0.5467  0.3080
 1204TIP3    H125103   4.505   6.173   4.807  0.3922 -1.5382  1.1701
 1204TIP3    H225104   4.402   6.172   4.918 -0.2265  1.8555  0.7330
 1205TIP3   OH225105   2.934   0.543   5.582  0.5695 -0.0128 -0.6026
 1205TIP3    H125106   2.900   0.632   5.589  0.2893 -0.2179  1.2997
 1205TIP3    H225107   3.016   0.545   5.632  0.4393 -0.8636 -0.3289
 1206TIP3   OH225108   1.947   5.429  13.139  0.0129 -0.6999 -0.5671
 1206TIP3    H125109   1.999   5.351  13.120 -0.2352 -1.1399  0.4972
 1206TIP3    H225110   1.868   5.396  13.182 -0.5088  0.0718 -0.9062
 1207TIP3   OH225111   6.169   4.600  12.280  0.1937  0.3796  0.1578
 1207TIP3    H125112   6.239   4.661  12.255  0.7099 -0.5229 -0.6505
 1207TIP3    H225113   6.152   4.549  12.201 -0.0365 -0.7177  0.8885
 1208TIP3   OH225114   5.244   0.768  14.215 -0.3060 -0.3862 -0.1158
 1208TIP3    H125115   5.291   0.780  14.298 -0.1653  0.1419 -0.2649
 1208TIP3    H225116   5.275   0.840  14.160 -0.9815 -0.2756 -0.3629
 1209TIP3   OH225117   0.460   5.834  11.923 -0.2234  0.4016  0.0452
 1209TIP3    H125118   0.383   5.889  11.937  0.2045  0.7455  1.1955
 1209TIP3    H225119   0.484   5.848  11.831 -2.4331 -0.9393 -0.8114
 1210TIP3   OH225120   2.878   4.578  13.686 -0.0136  0.1401 -0.2028
 1210TIP3    H125121   2.871   4.591  13.781 -1.0094 -0.1065 -0.2280
 1210TIP3    H225122   2.838   4.656  13.648  0.4729  0.2850 -0.4323
 1211TIP3   OH225123   5.409   3.202   1.784  0.6136  0.0424 -0.1720
 1211TIP3    H125124   5.371   3.184   1.870  1.9300  1.0724  0.6778
 1211TIP3    H225125   5.337   3.234   1.731 -0.1277 -0.1214  0.7172
 1212TIP3   OH225126   5.394   4.178  11.296 -0.1195  0.0356  0.2784
 1212TIP3    H125127   5.351   4.245  11.244  2.4653  1.7439  0.2223
 1212TIP3    H225128   5.476   4.159  11.251 -0.0045 -1.9876  1.1873
 1213TIP3   OH225129   3.400   1.093   3.991  0.1838  0.1756 -0.1087
 1213TIP3    H125130   3.339   1.092   3.918  0.8194  0.5667 -0.6634
 1213TIP3    H225131   3.345   1.098   4.069 -0.5270 -1.0548 -0.5160
 1214TIP3   OH225132   2.271   0.854   4.614 -0.2774  0.6447  0.4502
 1214TIP3    H125133   2.176   0.854   4.627 -0.4910  1.5439 -0.8838
 1214TIP3    H225134   2.307   0.821   4.697 -1.6893  1.6948  1.5325
 1215TIP3   OH225135   3.090   0.610  12.663  0.1246 -0.0636  0.5341
 1215TIP3    H125136   3.125   0.541  12.720 -1.1896 -1.2319 -0.0022
 1215TIP3    H225137   3.023   0.653  12.716 -0.0102 -0.1150  0.4067
 1216TIP3   OH225138   1.127   6.282   1.886  0.2034 -0.1775 -0.6595
 1216TIP3    H125139   1.093   6.195   1.909  0.6149 -0.4473 -1.0537
 1216TIP3    H225140   1.187   6.266   1.813  0.9487  0.3344 -0.1702
 1217TIP3   OH225141   3.243   0.723   0.403  0.2926 -0.1569  0.2942
 1217TIP3    H125142   3.172   0.659   0.409  0.3240 -0.1602  0.6028
 1217TIP3    H225143   3.223   0.773   0.324 -0.1262 -0.0657  0.4594
 1218TIP3   OH225144   1.966   0.167  11.091  0.2040  0.3738  0.1240
 1218TIP3    H125145   1.967   0.108  11.016 -0.1834  0.0687  0.3569
 1218TIP3    H225146   1.888   0.221  11.079  0.0332  0.1947  0.4032
 1219TIP3   OH225147   1.550   5.078  12.317  0.0727  0.5677 -0.6851
 1219TIP3    H125148   1.587   5.028  12.390  2.0231  3.4057  0.4513
 1219TIP3    H225149   1.581   5.034  12.238  1.0982 -0.3954  0.2327
 1220TIP3   OH225150   4.370   6.522  17.225  0.2436 -0.8846 -0.8437
 1220TIP3    H125151   4.411   6.597  17.183 -0.2132  0.7367  1.4719
 1220TIP3    H225152   4.444   6.470  17.258  0.6282  1.3384  2.1467
 1221TIP3   OH225153   1.152   1.351  16.204  0.6874 -0.3010 -0.1182
 1221TIP3    H125154   1.069   1.319  16.238  1.5645 -0.4812  2.0187
 1221TIP3    H225155   1.210   1.275  16.205  0.9522 -0.1378 -1.4044
 1222TIP3   OH225156   5.619   5.632   0.060  0.2804 -0.2263  0.3483
 1222TIP3    H125157   5.566   5.705   0.027  1.7918  0.7732  0.0447
 1222TIP3    H225158   5.617   5.642   0.155 -1.1519 -1.0074  0.4336
 1223TIP3   OH225159   4.947   3.287   3.905 -0.0627  0.3998 -0.2452
 1223TIP3    H125160   5.036   3.290   3.940  0.4724 -1.2666 -1.3789
 1223TIP3    H225161   4.891   3.301   3.982  1.1105 -1.5507  1.0370
 1224TIP3   OH225162   2.243   3.461   4.372 -0.1398  0.1933  0.4448
 1224TIP3    H125163   2.184   3.535   4.360  0.9557  1.2357  1.2968
 1224TIP3    H225164   2.203   3.390   4.321 -1.5916  1.1427  0.2088
 1225TIP3   OH225165   5.836   3.736   0.933 -0.0300  0.3624 -0.8477
 1225TIP3    H125166   5.868   3.751   0.843  1.6714 -0.4380 -0.4146
 1225TIP3    H225167   5.866   3.812   0.982  3.3189 -1.3122  0.0257
 1226TIP3   OH225168   3.348   5.834   4.184  0.4895  0.4804 -0.3746
 1226TIP3    H125169   3.357   5.884   4.103 -1.2157  0.0221 -0.8880
 1226TIP3    H225170   3.416   5.766   4.178  0.4293  0.4921 -1.3877
 1227TIP3   OH225171   5.003   6.721  12.118 -0.0521 -0.1105 -0.3266
 1227TIP3    H125172   5.066   6.663  12.074 -2.0951 -1.4478 -1.7020
 1227TIP3    H225173   5.022   6.808  12.082  1.6379 -0.2561  0.0969
 1228TIP3   OH225174   1.476   6.231   4.645  0.4503  0.5367  0.6549
 1228TIP3    H125175   1.440   6.286   4.576 -0.2299  1.4656  1.7188
 1228TIP3    H225176   1.543   6.285   4.687  1.1539 -0.1737  0.4648
 1229TIP3   OH225177   5.449   5.810  11.011 -0.2695 -0.4411 -0.3433
 1229TIP3    H125178   5.437   5.825  11.105  1.9732  0.8076 -0.1696
 1229TIP3    H225179   5.389   5.871  10.969 -1.6487 -1.3529  0.2526
 1230TIP3   OH225180   1.409   3.908  11.658 -0.3793 -0.2633  0.3874
 1230TIP3    H125181   1.479   3.965  11.628  1.0275 -1.1884  1.7343
 1230TIP3    H225182   1.334   3.966  11.669  0.7295  1.1513  0.8319
 1231TIP3   OH225183   2.637   2.321  14.130  0.1695  0.1202  0.2982
 1231TIP3    H125184   2.687   2.281  14.202  1.7969 -0.1025 -0.9026
 1231TIP3    H225185   2.605   2.403  14.167 -0.4213 -0.7113  1.7681
 1232TIP3   OH225186   2.246   0.303  15.351 -0.1708 -0.1596  0.2404
 1232TIP3    H125187   2.241   0.350  15.434  0.7354 -1.0792  0.8400
 1232TIP3    H225188   2.222   0.213  15.373 -1.2906 -0.1504 -0.7688
 1233TIP3   OH225189   2.571   1.928  15.516 -0.0660  0.2964 -0.1639
 1233TIP3    H125190   2.552   1.835  15.503 -1.3343  0.5665 -0.3683
 1233TIP3    H225191   2.576   1.938  15.611  0.4641 -0.0432 -0.1497
 1234TIP3   OH225192   2.872   0.181  11.156  0.7788  0.3195 -0.3451
 1234TIP3    H125193   2.955   0.212  11.120 -0.1329 -0.0437 -2.9430
 1234TIP3    H225194   2.818   0.260  11.163  0.0315  0.0639 -2.5359
 1235TIP3   OH225195   1.120   2.100  15.491  0.2187  0.1398 -0.0382
 1235TIP3    H125196   1.124   2.054  15.407 -0.1447  1.3962 -0.7775
 1235TIP3    H225197   1.184   2.170  15.483  0.4940 -0.0001  0.9136
 1236TIP3   OH225198   0.723   1.591  16.000 -0.0928 -0.0333  0.6401
 1236TIP3    H125199   0.705   1.622  16.089 -2.0664  2.6191 -0.5781
 1236TIP3    H225200   0.639   1.559  15.968  0.6976 -1.4028 -0.1966
 1237TIP3   OH225201   4.088   6.360   4.369  0.2026 -0.1581  0.0927
 1237TIP3    H125202   4.032   6.370   4.446  0.7039 -1.3287  0.6401
 1237TIP3    H225203   4.140   6.440   4.367 -1.2839  0.8486 -0.2916
 1238TIP3   OH225204   4.564   5.064  13.168 -0.0874 -0.5403 -0.6107
 1238TIP3    H125205   4.522   5.133  13.219  1.2640  1.4820 -2.0577
 1238TIP3    H225206   4.591   4.999  13.232 -1.3581  0.2721  0.8224
 1239TIP3   OH225207   3.382   4.980   2.058  0.0340 -0.7867 -0.4467
 1239TIP3    H125208   3.380   4.938   1.972 -0.3576  1.0221 -1.3877
 1239TIP3    H225209   3.466   4.953   2.096 -0.3516 -2.6401 -0.8128
 1240TIP3   OH225210   4.747   6.189  13.675 -0.1332  0.0603 -0.2256
 1240TIP3    H125211   4.742   6.236  13.592 -0.3162 -1.0313 -0.8481
 1240TIP3    H225212   4.727   6.098  13.653  0.5513 -0.3871  0.8925
 1241TIP3   OH225213   0.558   3.156   1.363  0.0127  0.2832  0.1134
 1241TIP3    H125214   0.599   3.168   1.448  0.3677  0.0357 -0.0221
 1241TIP3    H225215   0.466   3.136   1.383  0.1949 -0.2221  0.4508
 1242TIP3   OH225216   2.399   6.473  15.065 -0.1037  0.3756  0.2282
 1242TIP3    H125217   2.375   6.508  15.151  0.4406 -0.5754  0.7864
 1242TIP3    H225218   2.380   6.544  15.004 -0.5162  1.0623  1.1310
 1243TIP3   OH225219   2.667   2.307  13.555  0.3497 -0.4998 -0.8921
 1243TIP3    H125220   2.742   2.329  13.610 -1.1200  0.3764  0.8609
 1243TIP3    H225221   2.642   2.219  13.582 -0.8715  0.2406  0.4932
 1244TIP3   OH225222   0.535   4.434   0.530  0.3103 -0.0257  0.2222
 1244TIP3    H125223   0.568   4.345   0.521  2.0201  0.6293 -0.3304
 1244TIP3    H225224   0.614   4.488   0.541 -0.6691  1.4505  0.2606
 1245TIP3   OH225225   2.690   1.029  13.933 -0.0938  0.3304  0.8184
 1245TIP3    H125226   2.742   1.092  13.881 -0.2830 -0.7507 -0.7637
 1245TIP3    H225227   2.612   1.078  13.958 -0.7167  0.5093 -1.2450
 1246TIP3   OH225228   3.186   1.750   0.161  0.6749  0.8040  0.2104
 1246TIP3    H125229   3.223   1.832   0.130  2.8539 -1.0171 -2.5505
 1246TIP3    H225230   3.257   1.709   0.211  1.0652 -0.9259 -1.6202
 1247TIP3   OH225231   2.134   1.498  14.753  0.0862 -0.2117 -0.6684
 1247TIP3    H125232   2.050   1.520  14.712  0.1925 -0.8484 -1.2454
 1247TIP3    H225233   2.174   1.583  14.773  0.0692  0.1241 -1.9735
 1248TIP3   OH225234   4.085   0.300   3.535 -0.0716  0.3118 -0.3410
 1248TIP3    H125235   4.070   0.365   3.604 -0.6569 -1.8031  1.6350
 1248TIP3    H225236   4.011   0.310   3.476  0.2570  1.9203 -0.5508
 1249TIP3   OH225237   5.967   2.084   3.551 -0.6632 -0.4462  0.4657
 1249TIP3    H125238   5.976   2.105   3.459  0.7880 -0.5356  0.5635
 1249TIP3    H225239   5.873   2.082   3.567 -0.9109  0.0878 -0.8824
 1250TIP3   OH225240   1.952   6.692   2.974 -0.1794 -0.1328 -0.7636
 1250TIP3    H125241   2.007   6.770   2.964  0.1685 -0.2320  0.2509
 1250TIP3    H225242   1.964   6.644   2.892 -0.9876  1.2232 -1.7299
 1251TIP3   OH225243   0.019   6.434   2.484  0.6461  0.0808  0.1998
 1251TIP3    H125244  -0.019   6.378   2.417  1.7379  1.5135 -1.7059
 1251TIP3    H225245   0.096   6.472   2.443 -0.1032  3.1018  1.3327
 1252TIP3   OH225246   6.742   2.062   4.595  0.1312 -0.1288  0.4615
 1252TIP3    H125247   6.705   2.125   4.657  0.8181 -0.1997  0.9450
 1252TIP3    H225248   6.712   1.977   4.627  3.1873 -0.5181  2.7224
 1253TIP3   OH225249   0.283   5.655   0.211 -0.3668 -0.1996  0.0856
 1253TIP3    H125250   0.222   5.722   0.182  0.4238  0.5807  0.1726
 1253TIP3    H225251   0.339   5.639   0.136  0.1097  0.0085  0.3898
 1254TIP3   OH225252   0.710   4.927  11.435  0.0037 -0.7234 -0.5585
 1254TIP3    H125253   0.690   4.900  11.525  1.8072 -1.3057 -0.2844
 1254TIP3    H225254   0.794   4.886  11.417 -0.4440 -0.8258 -2.6274
 1255TIP3   OH225255   0.887   5.169  16.303 -0.5525 -0.1496 -0.1044
 1255TIP3    H125256   0.930   5.088  16.277 -0.7722 -0.3762  0.2196
 1255TIP3    H225257   0.872   5.216  16.221 -0.5978 -0.5249 -0.3142
 1256TIP3   OH225258   3.019   5.999  13.890  0.2075  0.2886 -0.3436
 1256TIP3    H125259   2.959   5.986  13.964  2.5214 -2.4468  1.2734
 1256TIP3    H225260   2.974   5.962  13.815 -1.2412  0.8987  0.1931
 1257TIP3   OH225261   6.090   3.600   1.202 -0.2583  0.1337 -0.4478
 1257TIP3    H125262   6.097   3.672   1.265  0.1829  0.4574 -0.8650
 1257TIP3    H225263   5.999   3.571   1.209 -0.0744 -0.2154  0.7561
 1258TIP3   OH225264   5.914   2.060  14.556 -0.0309 -0.2128  0.2417
 1258TIP3    H125265   5.866   2.107  14.624  0.5268  1.0320 -0.2179
 1258TIP3    H225266   5.995   2.108  14.544  0.4594 -1.1544 -0.4143
 1259TIP3   OH225267   6.331   1.250  10.600  0.1670 -0.3069 -0.3016
 1259TIP3    H125268   6.283   1.195  10.663 -1.1638  1.8410  0.6516
 1259TIP3    H225269   6.406   1.283  10.650  1.4756 -1.8838 -1.1386
 1260TIP3   OH225270   6.665   3.357  11.937 -0.7410  0.7498 -0.4163
 1260TIP3    H125271   6.648   3.270  11.901 -1.5854  1.0511 -0.7744
 1260TIP3    H225272   6.753   3.379  11.905 -0.3925 -0.0828 -0.0725
 1261TIP3   OH225273   3.948   5.176  14.648  0.2439 -0.1905 -0.0622
 1261TIP3    H125274   4.026   5.231  14.657  0.4972 -0.6609  0.6784
 1261TIP3    H225275   3.977   5.101  14.596  0.9013 -1.4729  2.0353
 1262TIP3   OH225276   4.741   4.218   0.860  0.0872  0.9757  0.3946
 1262TIP3    H125277   4.813   4.238   0.920 -1.0811  1.1038  1.7971
 1262TIP3    H225278   4.665   4.205   0.916 -0.8171 -0.0603 -0.9890
 1263TIP3   OH225279   2.648   0.402  16.141  0.0116 -0.4165  0.1417
 1263TIP3    H125280   2.682   0.355  16.218 -0.3521  1.0775  1.2712
 1263TIP3    H225281   2.700   0.369  16.068 -1.2347 -3.6997  0.5493
 1264TIP3   OH225282   6.050   2.063   5.928  0.6176 -0.7975  0.2473
 1264TIP3    H125283   6.127   2.030   5.883  0.5786  0.4123 -0.7591
 1264TIP3    H225284   6.085   2.115   6.001  0.7126 -1.4291  0.6575
 1265TIP3   OH225285   0.129   4.775  16.647 -0.2686 -0.4517  0.1700
 1265TIP3    H125286   0.212   4.784  16.601  0.1474  0.4735  1.0873
 1265TIP3    H225287   0.086   4.860  16.637 -1.7259 -1.2999 -1.4108
 1266TIP3   OH225288   4.620   1.432  15.105  0.2994  0.2121  0.0564
 1266TIP3    H125289   4.578   1.425  15.191 -0.3991 -2.1295 -0.3997
 1266TIP3    H225290   4.681   1.359  15.102 -0.7601 -0.6648 -1.9492
 1267TIP3   OH225291   1.091   2.343  11.261  0.1364  0.0310 -0.4863
 1267TIP3    H125292   1.165   2.363  11.317 -0.5159 -0.0836  0.4388
 1267TIP3    H225293   1.061   2.428  11.229  0.3729  0.1136 -0.4894
 1268TIP3   OH225294   5.777   0.832  11.625 -0.7776 -0.2306  0.0659
 1268TIP3    H125295   5.753   0.920  11.655  1.5770  0.5372 -0.0869
 1268TIP3    H225296   5.777   0.778  11.704 -1.3807  0.1168  0.3044
 1269TIP3   OH225297   2.852   5.784   5.331 -0.3565 -0.5637 -0.6220
 1269TIP3    H125298   2.822   5.859   5.383  0.2364 -1.0372  0.4294
 1269TIP3    H225299   2.799   5.710   5.362  1.9976 -1.4997  1.5359
 1270TIP3   OH225300   3.977   0.078  12.727 -0.4028 -0.0505 -0.0372
 1270TIP3    H125301   3.906   0.122  12.773  0.1865 -1.0219  1.9402
 1270TIP3    H225302   3.938  -0.005  12.699 -0.2523 -0.3021  0.4758
 1271TIP3   OH225303   3.199   3.303   0.899  0.6944 -0.1880  0.5024
 1271TIP3    H125304   3.197   3.272   0.990  1.1099  0.1813  0.6387
 1271TIP3    H225305   3.212   3.398   0.906  0.3064 -0.0977  0.0661
 1272TIP3   OH225306   1.074   3.240   1.665  0.0893  0.0029  0.3612
 1272TIP3    H125307   1.106   3.325   1.634 -0.5114 -0.1666 -0.7706
 1272TIP3    H225308   1.129   3.220   1.741  0.8920  0.9433  0.0484
 1273TIP3   OH225309   5.841   6.543   2.196 -0.5633  0.4291  1.0769
 1273TIP3    H125310   5.910   6.544   2.130  0.3187 -2.1364  1.8437
 1273TIP3    H225311   5.806   6.453   2.193 -1.7037  0.7580  2.8797
 1274TIP3   OH225312   0.823   5.470   3.428  0.1665 -0.9213  0.4673
 1274TIP3    H125313   0.790   5.380   3.421 -1.5139 -0.2190 -1.6794
 1274TIP3    H225314   0.902   5.471   3.374 -0.8471 -0.7002 -1.0537
 1275TIP3   OH225315   4.861   5.159   5.320 -0.6391  1.0023  0.0609
 1275TIP3    H125316   4.895   5.226   5.260 -0.1321  1.2258  0.5936
 1275TIP3    H225317   4.831   5.209   5.396 -0.0354  0.6025  0.5634
 1276TIP3   OH225318   3.937   3.732   3.853  0.0266 -0.1642 -0.4759
 1276TIP3    H125319   3.929   3.644   3.815  1.6174  0.0477 -1.3976
 1276TIP3    H225320   3.849   3.769   3.848 -0.6716 -1.6824 -0.0998
 1277TIP3   OH225321   1.661   3.603  16.105 -0.0246 -0.1673  0.6349
 1277TIP3    H125322   1.726   3.589  16.174 -0.6747  2.5937  1.9411
 1277TIP3    H225323   1.713   3.614  16.025  1.0049  0.0452  1.3165
 1278TIP3   OH225324   5.505   1.532  13.252 -0.0070  0.4366 -0.3956
 1278TIP3    H125325   5.519   1.491  13.167  1.2586  1.8908 -0.9292
 1278TIP3    H225326   5.523   1.462  13.315  0.0685 -0.3771 -1.2988
 1279TIP3   OH225327   4.671   3.416   2.502  0.0079 -0.1869  0.6299
 1279TIP3    H125328   4.624   3.332   2.501 -1.1396  0.4154  1.7940
 1279TIP3    H225329   4.735   3.407   2.573  0.7103 -0.4757 -0.0159
 1280TIP3   OH225330   2.633   1.137   4.779  0.4419 -0.1482 -0.8064
 1280TIP3    H125331   2.544   1.126   4.811  0.9464 -3.0981 -0.0953
 1280TIP3    H225332   2.688   1.099   4.847  2.0728 -0.3180 -2.1456
 1281TIP3   OH225333   3.976   5.250  12.438 -0.4908  0.0318  0.5427
 1281TIP3    H125334   4.012   5.331  12.403 -1.5671  0.3032  0.0133
 1281TIP3    H225335   4.013   5.242  12.525 -1.2719  1.7218  1.0692
 1282TIP3   OH225336   0.720   2.483  10.387 -0.2954  0.3919 -0.0037
 1282TIP3    H125337   0.780   2.515  10.319  0.9020 -0.1270  0.7824
 1282TIP3    H225338   0.759   2.402  10.418 -1.6830 -0.2369  0.1983
 1283TIP3   OH225339   4.822   5.903  15.729 -0.2474  0.4984 -0.3778
 1283TIP3    H125340   4.882   5.833  15.705  0.7164  1.3213 -0.4223
 1283TIP3    H225341   4.851   5.931  15.816 -0.8681  0.5847 -0.1916
 1284TIP3   OH225342   1.044   1.241   5.326 -0.0052  0.3143 -0.0576
 1284TIP3    H125343   1.138   1.234   5.344  0.1361 -0.3328 -0.9843
 1284TIP3    H225344   1.008   1.158   5.357 -0.2289  0.4352  0.0091
 1285TIP3   OH225345   2.461   3.661   2.831 -0.4359  0.7668 -0.1298
 1285TIP3    H125346   2.412   3.714   2.768 -2.9596 -1.4282 -0.2185
 1285TIP3    H225347   2.485   3.582   2.782  0.7764  0.6116  0.6930
 1286TIP3   OH225348   1.697   1.836  12.025  0.2157 -0.1256  0.3586
 1286TIP3    H125349   1.766   1.846  11.960 -1.6100 -0.1934 -1.7005
 1286TIP3    H225350   1.646   1.917  12.018  0.2715  0.1049  2.1287
 1287TIP3   OH225351   1.753   6.461   3.499 -0.1822 -0.1791 -0.1434
 1287TIP3    H125352   1.730   6.548   3.464 -1.9102 -0.2970  0.6064
 1287TIP3    H225353   1.841   6.473   3.534 -0.4454  1.3341  0.1009
 1288TIP3   OH225354   1.703   3.259  17.002 -0.5904  0.0872  0.2145
 1288TIP3    H125355   1.696   3.170  16.968  1.4900  0.1022 -0.3858
 1288TIP3    H225356   1.793   3.267  17.031  0.1461  2.7875 -2.2664
 1289TIP3   OH225357   3.673   3.389  17.161 -0.5156 -0.5523  0.5736
 1289TIP3    H125358   3.695   3.398  17.253 -2.2106  0.5088  0.9270
 1289TIP3    H225359   3.577   3.394  17.159 -0.4376  1.4417 -1.4267
 1290TIP3   OH225360   2.113   0.709   0.334  0.0284 -0.4365  0.3099
 1290TIP3    H125361   2.049   0.645   0.303  0.4657 -0.3676 -0.7906
 1290TIP3    H225362   2.192   0.690   0.283  1.1947 -1.1068  2.2644
 1291TIP3   OH225363   3.416   3.167   3.174 -0.4183  0.0173  0.2126
 1291TIP3    H125364   3.332   3.181   3.129  0.1584  1.8458 -0.4036
 1291TIP3    H225365   3.468   3.245   3.153  1.3108 -0.8878  0.9001
 1292TIP3   OH225366   0.143   6.371   1.318 -0.1692 -0.6047 -0.5822
 1292TIP3    H125367   0.214   6.375   1.254  0.6992  2.9204  0.3912
 1292TIP3    H225368   0.187   6.356   1.401 -0.8967 -1.2408 -0.3004
 1293TIP3   OH225369   2.588   4.408   5.114  1.0130 -0.1166 -0.0103
 1293TIP3    H125370   2.611   4.482   5.058 -1.4902  0.3837 -0.5010
 1293TIP3    H225371   2.537   4.350   5.057 -0.3544 -0.2986  1.3528
 1294TIP3   OH225372   2.884   1.450   2.729 -0.0199 -0.2384 -0.2545
 1294TIP3    H125373   2.924   1.363   2.731 -0.0061 -0.2367 -0.4545
 1294TIP3    H225374   2.957   1.510   2.715  0.1091 -0.1022  0.8964
 1295TIP3   OH225375   3.179   1.489  17.176  0.0629  0.5507  0.2040
 1295TIP3    H125376   3.235   1.483  17.254 -2.0250 -0.8378  1.7029
 1295TIP3    H225377   3.156   1.581  17.169  2.3634  1.1557 -0.4085
 1296TIP3   OH225378   2.983   0.592   3.773 -0.2700  0.3005  0.5072
 1296TIP3    H125379   3.031   0.512   3.749  0.5138  0.1362  2.4152
 1296TIP3    H225380   3.039   0.634   3.838 -1.5265  1.4774  0.8583
 1297TIP3   OH225381   2.657   6.452  15.779  0.1795 -0.4391  0.2003
 1297TIP3    H125382   2.674   6.390  15.850 -0.5583 -2.6748 -1.4546
 1297TIP3    H225383   2.594   6.514  15.816  0.2946 -1.1562  1.6785
 1298TIP3   OH225384   1.211   5.854   0.461 -0.4883 -0.6549 -0.3393
 1298TIP3    H125385   1.174   5.830   0.376 -0.4321 -0.5532 -0.3925
 1298TIP3    H225386   1.304   5.868   0.444 -0.4057 -0.9977 -0.1892
 1299TIP3   OH225387   6.040   0.628   3.384 -0.5580  0.4590 -0.2309
 1299TIP3    H125388   5.969   0.571   3.412 -0.5329  0.8897  0.7683
 1299TIP3    H225389   6.002   0.683   3.316 -0.6241 -0.6126 -1.0887
 1300TIP3   OH225390   5.837   0.545   5.357 -0.3806 -0.4452  0.2376
 1300TIP3    H125391   5.798   0.547   5.444 -0.9731  0.6780 -0.0245
 1300TIP3    H225392   5.772   0.500   5.303 -0.4981 -0.2023  0.1723
 1301TIP3   OH225393   2.553   3.436   4.387  0.5199  0.2636 -0.1770
 1301TIP3    H125394   2.459   3.453   4.394  0.4498 -0.0706 -0.3417
 1301TIP3    H225395   2.561   3.366   4.322  0.8677  0.1383 -0.0011
 1302TIP3   OH225396   5.777   1.095  14.490  0.2601  0.4980  0.3467
 1302TIP3    H125397   5.700   1.143  14.459  0.0836  0.1397  0.2241
 1302TIP3    H225398   5.792   1.029  14.423  0.4165  0.2911  0.5846
 1303TIP3   OH225399   1.232   1.033   6.310  0.1172  0.4057 -0.4198
 1303TIP3    H125400   1.217   1.127   6.322  1.2698  0.3537  1.9896
 1303TIP3    H225401   1.327   1.025   6.298  0.1138 -0.5101  0.1317
 1304TIP3   OH225402   4.826   4.895  16.216  0.6090 -0.6662 -0.4610
 1304TIP3    H125403   4.917   4.916  16.198  0.4555  1.8969  1.1091
 1304TIP3    H225404   4.776   4.955  16.160 -0.0511 -0.7517  0.0230
 1305TIP3   OH225405   6.414   6.762   3.282 -0.3091  0.2398  0.2304
 1305TIP3    H125406   6.411   6.686   3.340  0.8888  0.3683  0.4881
 1305TIP3    H225407   6.417   6.725   3.194  0.5393 -0.0296  0.3654
 1306TIP3   OH225408   4.758   1.530  11.270 -0.0675 -0.5646  0.0977
 1306TIP3    H125409   4.825   1.582  11.226  0.7004 -0.7012  1.0617
 1306TIP3    H225410   4.736   1.461  11.207 -0.9155  0.7281 -1.0955
 1307TIP3   OH225411   3.415   3.365   5.631  0.4457 -0.3251  0.1029
 1307TIP3    H125412   3.446   3.307   5.562 -0.2164  0.3699 -0.8023
 1307TIP3    H225413   3.334   3.325   5.661  1.1192 -1.0336  1.0276
 1308TIP3   OH225414   2.792   2.559   2.216  0.0282 -0.2852  0.0320
 1308TIP3    H125415   2.834   2.521   2.139  0.3164  2.3696 -1.2264
 1308TIP3    H225416   2.859   2.615   2.256 -0.9899  0.6777  0.4661
 1309TIP3   OH225417   4.405   0.521  13.118 -0.2874  0.4211 -0.4887
 1309TIP3    H125418   4.357   0.586  13.170  0.4277  1.8477 -1.5179
 1309TIP3    H225419   4.351   0.443  13.120 -1.8223  1.4566 -0.2409
 1310TIP3   OH225420   0.682   4.624  14.613 -0.5848  0.3778  0.4955
 1310TIP3    H125421   0.665   4.711  14.650 -1.3089 -0.4453  2.2017
 1310TIP3    H225422   0.601   4.575  14.630  0.8346 -1.4972  2.3113
 1311TIP3   OH225423   5.979   2.553   5.001  0.5228 -0.0056 -0.1008
 1311TIP3    H125424   6.032   2.621   4.959  0.8285 -0.2957 -0.1890
 1311TIP3    H225425   5.993   2.476   4.947 -0.2890  0.0116 -0.3344
 1312TIP3   OH225426   4.116   2.131  17.038 -0.2780  0.1635  0.3948
 1312TIP3    H125427   4.124   2.154  16.945 -2.0498  0.5916  0.3102
 1312TIP3    H225428   4.107   2.215  17.082  0.6785 -0.0347  0.9913
 1313TIP3   OH225429   1.362   4.343   2.692 -0.1379 -0.0719  0.1705
 1313TIP3    H125430   1.287   4.329   2.634  0.3498 -0.1045 -0.4634
 1313TIP3    H225431   1.368   4.261   2.742 -1.0217  0.2421  0.8246
 1314TIP3   OH225432   2.813   0.240   2.836  0.3926 -0.1285  0.5705
 1314TIP3    H125433   2.851   0.326   2.819  1.5439 -0.5762  0.7843
 1314TIP3    H225434   2.884   0.179   2.816 -0.8071 -1.1300 -0.8891
 1315TIP3   OH225435   1.752   6.274  16.391 -0.7871  0.4612  0.5846
 1315TIP3    H125436   1.829   6.261  16.335  0.3675  0.3166  2.1546
 1315TIP3    H225437   1.678   6.266  16.331  0.2782 -2.0291 -0.5490
 1316TIP3   OH225438   3.507   5.286  13.296  0.6117  0.0316 -0.7673
 1316TIP3    H125439   3.515   5.381  13.303  0.0681  0.2205 -2.2137
 1316TIP3    H225440   3.415   5.269  13.316  0.6208 -0.1392 -0.8684
 1317TIP3   OH225441   3.513   1.250  16.548  0.3042 -0.5745 -0.2584
 1317TIP3    H125442   3.471   1.333  16.570  0.2062 -0.1045 -2.0032
 1317TIP3    H225443   3.602   1.259  16.580  0.2968  0.2328 -0.4307
 1318TIP3   OH225444   4.771   2.646  16.875 -0.6031  0.0989 -0.0752
 1318TIP3    H125445   4.820   2.713  16.923 -0.3698  0.1544 -0.3830
 1318TIP3    H225446   4.776   2.568  16.930  0.4703 -0.1082 -0.4266
 1319TIP3   OH225447   4.742   4.438   3.980  0.7628 -0.2041 -0.6722
 1319TIP3    H125448   4.818   4.472   4.027  1.2169 -1.4077 -0.4915
 1319TIP3    H225449   4.775   4.359   3.936 -0.8954 -2.2329  1.4446
 1320TIP3   OH225450   4.060   6.437   0.902  0.1436  0.4482 -0.2062
 1320TIP3    H125451   4.006   6.404   0.974  1.2290 -0.1650  0.3491
 1320TIP3    H225452   3.998   6.478   0.842 -0.9253 -0.1813  0.4489
 1321TIP3   OH225453   2.554   0.307   0.287 -0.0745  0.0611 -0.2659
 1321TIP3    H125454   2.634   0.357   0.272 -0.6730  1.2295  0.2777
 1321TIP3    H225455   2.571   0.256   0.366  0.3797 -0.2568 -0.5644
 1322TIP3   OH225456   0.990   4.443  15.517 -0.3376  0.2430 -0.0889
 1322TIP3    H125457   1.064   4.388  15.489 -1.2918 -0.3046 -1.6692
 1322TIP3    H225458   1.026   4.498  15.586  1.0234 -1.4046  0.6055
 1323TIP3   OH225459   1.527   4.918   0.912  0.0674  0.0857  0.5186
 1323TIP3    H125460   1.622   4.915   0.898 -0.0525 -0.6175 -0.2012
 1323TIP3    H225461   1.510   4.849   0.977 -0.2190 -1.4640 -1.1196
 1324TIP3   OH225462   5.281   3.612   4.443 -0.0295  0.3117  0.4701
 1324TIP3    H125463   5.339   3.686   4.455 -0.8702  0.8877  1.1158
 1324TIP3    H225464   5.334   3.546   4.398  1.2476  0.6350  1.4604
 1325TIP3   OH225465   2.427   6.779  16.246 -0.0460 -0.3249  0.3407
 1325TIP3    H125466   2.409   6.787  16.339  1.5870  1.8589  0.5615
 1325TIP3    H225467   2.380   6.852  16.205  0.0644 -0.6600 -0.4128
 1326TIP3   OH225468   3.659   4.390  16.865 -0.0804  0.5884  0.2501
 1326TIP3    H125469   3.609   4.454  16.814 -2.3356 -0.6985  0.7245
 1326TIP3    H225470   3.652   4.309  16.815 -0.0487 -0.0461  1.2489
 1327TIP3   OH225471   3.491   1.999  16.080 -0.5203  0.3477  0.0319
 1327TIP3    H125472   3.427   2.024  16.014  0.3579  0.5455 -0.7682
 1327TIP3    H225473   3.489   2.071  16.143 -0.4780  0.7642 -0.4395
 1328TIP3   OH225474   5.330   3.378  10.967  0.1778 -0.0794 -0.5950
 1328TIP3    H125475   5.328   3.473  10.983 -0.3553 -0.1189 -0.3998
 1328TIP3    H225476   5.422   3.354  10.976  0.1687  0.2440  0.4684
 1329TIP3   OH225477   2.675   0.934   4.590  0.7212  0.1914 -0.0753
 1329TIP3    H125478   2.666   0.934   4.495  1.0648 -0.7490 -0.1164
 1329TIP3    H225479   2.642   1.020   4.617 -0.6902 -0.0569 -0.9096
 1330TIP3   OH225480   0.146   5.475  12.797 -0.3164 -0.3065  0.3926
 1330TIP3    H125481   0.226   5.427  12.775 -0.2233 -0.1401  0.3582
 1330TIP3    H225482   0.172   5.567  12.792 -1.2265 -0.1160 -2.5145
 1331TIP3   OH225483   1.017   2.819   2.376  0.3782  0.0855 -0.4394
 1331TIP3    H125484   0.984   2.750   2.319  0.5798 -0.5935  0.2477
 1331TIP3    H225485   0.986   2.901   2.336  0.2647 -0.3868 -1.3424
 1332TIP3   OH225486   5.710   0.530   0.779 -0.1213  0.3831  0.6281
 1332TIP3    H125487   5.726   0.580   0.699 -0.4406  0.2269  0.4668
 1332TIP3    H225488   5.615   0.529   0.788 -0.2786 -2.0312 -0.5613
 1333TIP3   OH225489   6.563   1.293   0.224 -0.3823  0.0863  0.0045
 1333TIP3    H125490   6.513   1.214   0.203 -0.9320  0.3001  0.4865
 1333TIP3    H225491   6.655   1.266   0.214 -0.5431 -0.7685  0.6589
 1334TIP3   OH225492   3.374   3.000  12.882  0.2774  0.5270  0.7411
 1334TIP3    H125493   3.326   3.069  12.929  1.0292  1.0778  0.7213
 1334TIP3    H225494   3.369   3.026  12.790  0.5131  0.5286  0.7278
 1335TIP3   OH225495   4.375   4.358  13.644  0.1796  0.2040  0.1133
 1335TIP3    H125496   4.403   4.274  13.606  1.8986  0.8535 -0.1819
 1335TIP3    H225497   4.342   4.408  13.569  1.0030  0.4808 -0.0830
 1336TIP3   OH225498   6.355   0.503  13.447 -1.2995  0.2011 -0.2449
 1336TIP3    H125499   6.409   0.571  13.486 -0.0136 -1.5497  1.1677
 1336TIP3    H225500   6.376   0.506  13.354  1.3671 -0.4298  0.2462
 1337TIP3   OH225501   0.935   2.395   1.249 -0.2946 -0.5061 -0.1937
 1337TIP3    H125502   1.013   2.450   1.252 -0.5649  0.0201 -1.6051
 1337TIP3    H225503   0.873   2.446   1.197 -1.0130 -1.6003 -0.4426
 1338TIP3   OH225504   4.303   1.969  14.495 -0.0948  0.2411  0.4790
 1338TIP3    H125505   4.263   1.935  14.576 -0.2182 -0.6989  0.0310
 1338TIP3    H225506   4.372   1.906  14.474  0.2973  0.7732  0.1283
 1339TIP3   OH225507   0.726   4.196   1.985 -0.5245 -0.2597 -0.0165
 1339TIP3    H125508   0.776   4.207   2.067 -0.1883  1.2323 -0.3888
 1339TIP3    H225509   0.673   4.117   2.000 -0.1319 -0.2838  1.4660
 1340TIP3   OH225510   1.205   6.392  16.872  0.0993 -0.4752  0.0721
 1340TIP3    H125511   1.244   6.346  16.797  1.1265  0.1839  0.1841
 1340TIP3    H225512   1.270   6.458  16.896 -0.8023  0.1999  0.7138
 1341TIP3   OH225513   5.032   6.172  15.838  0.4618 -0.2849 -0.4245
 1341TIP3    H125514   5.017   6.085  15.875 -1.9174  0.5259  0.7142
 1341TIP3    H225515   5.126   6.186  15.848  0.3534 -1.1013  3.2809
 1342TIP3   OH225516   1.677   2.652  12.640 -0.2649  0.0749  0.0790
 1342TIP3    H125517   1.715   2.564  12.638  0.7475  0.5179 -1.0976
 1342TIP3    H225518   1.587   2.639  12.670 -0.5460 -1.5253 -1.3376
 1343TIP3   OH225519   0.751   5.361   4.156 -0.1308 -0.1685 -0.0295
 1343TIP3    H125520   0.737   5.448   4.193 -1.4612 -0.7241  0.8569
 1343TIP3    H225521   0.833   5.331   4.196 -0.8872 -0.2436  1.5411
 1344TIP3   OH225522   0.939   1.025  16.052 -0.1821  0.2600 -0.3602
 1344TIP3    H125523   0.913   0.943  16.095  0.6095  0.6631  0.9149
 1344TIP3    H225524   0.859   1.078  16.051 -1.5188 -1.4591 -3.6757
 1345TIP3   OH225525   0.314   6.804   1.173  0.2854 -0.1822 -0.4349
 1345TIP3    H125526   0.266   6.759   1.104  1.9335 -1.7332 -0.6592
 1345TIP3    H225527   0.403   6.813   1.138  0.5943  1.0532  0.6010
 1346TIP3   OH225528   2.275   0.817   1.478  0.0004 -0.4489  0.5122
 1346TIP3    H125529   2.347   0.879   1.466  0.3444 -0.7051  1.1957
 1346TIP3    H225530   2.316   0.740   1.518 -0.5498 -0.8359  0.3478
 1347TIP3   OH225531   0.468   0.454  15.516  0.0942  0.3980 -0.1157
 1347TIP3    H125532   0.525   0.518  15.560  0.0815  1.1184 -1.1070
 1347TIP3    H225533   0.475   0.476  15.424  1.4608 -2.1707 -0.7141
 1348TIP3   OH225534   2.944   3.109   4.010 -0.4340 -0.3287 -0.2037
 1348TIP3    H125535   2.919   3.199   3.989  0.3164  0.5952  2.4647
 1348TIP3    H225536   3.031   3.116   4.049  0.8700 -2.5938 -2.3901
 1349TIP3   OH225537   5.636   1.526  15.004  0.2980 -0.6001  0.1355
 1349TIP3    H125538   5.542   1.513  15.017  0.1551 -1.2188 -1.3819
 1349TIP3    H225539   5.642   1.579  14.924  1.2180  0.4097  0.8413
 1350TIP3   OH225540   1.549   2.233   4.312 -0.1209  0.9339 -0.1811
 1350TIP3    H125541   1.642   2.257   4.305  0.1961 -0.1419  0.1839
 1350TIP3    H225542   1.544   2.178   4.390 -0.5233 -1.5294 -1.8599
 1351TIP3   OH225543   3.128   2.954   2.439 -0.6526  0.1152 -0.6982
 1351TIP3    H125544   3.171   3.039   2.447  1.1762 -0.7146 -1.1450
 1351TIP3    H225545   3.126   2.919   2.529  1.4645 -0.6639 -0.9115
 1352TIP3   OH225546   5.170   6.696   1.133 -0.1621 -0.2516  0.3278
 1352TIP3    H125547   5.142   6.783   1.159 -0.5698 -0.1699 -0.3596
 1352TIP3    H225548   5.172   6.698   1.038 -1.1288 -1.2703  0.2549
 1353TIP3   OH225549   0.719   5.933  12.135 -0.0086 -0.3600  0.2139
 1353TIP3    H125550   0.798   5.882  12.155 -0.7563 -1.3680  0.6827
 1353TIP3    H225551   0.728   5.956  12.043 -0.1038 -2.2237 -0.3047
 1354TIP3   OH225552   2.152   3.312   2.402  0.1121 -0.5415  0.1583
 1354TIP3    H125553   2.218   3.288   2.467 -0.3245  3.8883  2.6033
 1354TIP3    H225554   2.077   3.340   2.453 -1.9180 -0.8430 -2.4574
 1355TIP3   OH225555   1.956   0.513  14.378 -0.4356  0.0178  0.5698
 1355TIP3    H125556   1.961   0.421  14.404  1.4259 -0.2495 -0.4897
 1355TIP3    H225557   1.960   0.562  14.460  1.4392 -0.8524  1.0660
 1356TIP3   OH225558   1.174   4.846   1.518 -0.5296  0.3550  0.1261
 1356TIP3    H125559   1.089   4.802   1.528 -2.3409  2.8735 -2.6241
 1356TIP3    H225560   1.156   4.938   1.535  1.9285  0.8478  0.4583
 1357TIP3   OH225561   5.567   5.751   2.930 -0.2212  0.2951  0.0103
 1357TIP3    H125562   5.592   5.770   3.020  1.8738  0.1362 -0.4934
 1357TIP3    H225563   5.574   5.656   2.922 -4.9909 -0.3985  0.8799
 1358TIP3   OH225564   1.634   4.458  17.183 -0.2236 -0.3317 -0.4716
 1358TIP3    H125565   1.718   4.476  17.227 -0.0056 -0.6411 -0.7571
 1358TIP3    H225566   1.574   4.437  17.255  0.1124 -0.7600 -0.3077
 1359TIP3   OH225567   4.301   5.458  12.526  0.2380 -0.1278  0.2794
 1359TIP3    H125568   4.234   5.403  12.565  0.2435  0.6380  1.4232
 1359TIP3    H225569   4.273   5.548  12.545  1.9690  0.2046  1.5164
 1360TIP3   OH225570   6.491   3.970  15.506  0.3329  0.1347  0.2394
 1360TIP3    H125571   6.452   3.910  15.442  1.2732  1.4527 -1.6508
 1360TIP3    H225572   6.531   3.913  15.571  0.8149 -1.3034 -1.2568
 1361TIP3   OH225573   3.919   3.298  15.357 -0.5622 -0.1386  0.7373
 1361TIP3    H125574   3.936   3.388  15.385 -2.8731  0.8985 -0.8585
 1361TIP3    H225575   3.982   3.283  15.286  0.0221  0.0915  1.1961
 1362TIP3   OH225576   0.943   1.115  16.463  0.1618  0.5540  1.2784
 1362TIP3    H125577   0.964   1.198  16.504  2.1748  0.4537  0.5508
 1362TIP3    H225578   1.028   1.077  16.439 -0.7976 -0.6587 -0.4472
 1363TIP3   OH225579   4.910   5.995   3.324  0.4152 -0.0297 -0.1173
 1363TIP3    H125580   4.988   6.047   3.309  1.0453 -0.9281 -0.0172
 1363TIP3    H225581   4.855   6.049   3.381  1.0045  0.5493 -0.0904
 1364TIP3   OH225582   3.140   2.627   5.837 -0.2622  0.1873 -0.4822
 1364TIP3    H125583   3.061   2.613   5.889 -0.4594 -0.1246 -0.8613
 1364TIP3    H225584   3.186   2.543   5.839 -0.4216  0.0767 -1.0537
 1365TIP3   OH225585   1.907   3.189  16.629  0.1182  0.0823  0.5287
 1365TIP3    H125586   1.964   3.114  16.612 -0.5620 -0.2442 -0.3884
 1365TIP3    H225587   1.832   3.177  16.570 -0.3186  1.1381  0.8337
 1366TIP3   OH225588   1.133   1.353   4.571 -0.0995 -0.1915 -0.0163
 1366TIP3    H125589   1.188   1.315   4.502 -0.8069 -0.2803 -0.5389
 1366TIP3    H225590   1.044   1.327   4.548 -0.3646 -0.0988  0.8564
 1367TIP3   OH225591   4.688   4.967   1.230  0.4374 -0.5057 -0.0816
 1367TIP3    H125592   4.726   4.882   1.210 -0.7077 -0.9707 -0.3403
 1367TIP3    H225593   4.754   5.030   1.200  1.2016 -1.2835 -0.0903
 1368TIP3   OH225594   1.504   1.808  16.308  0.2461  0.2910 -0.1386
 1368TIP3    H125595   1.494   1.723  16.351  0.1706 -0.4609 -1.5789
 1368TIP3    H225596   1.441   1.865  16.352 -1.3388 -1.0049 -0.6189
 1369TIP3   OH225597   3.014   3.959  11.920  0.3966  0.3034 -0.6216
 1369TIP3    H125598   3.102   3.989  11.943  0.7521 -0.5706 -0.8021
 1369TIP3    H225599   2.957   4.034  11.939  1.1281  0.7515 -0.1558
 1370TIP3   OH225600   5.535   0.941   0.363  0.0693 -0.2595 -0.6513
 1370TIP3    H125601   5.608   1.002   0.361  0.3270 -0.3691  1.9693
 1370TIP3    H225602   5.511   0.929   0.271  2.6086  0.6135 -1.5078
 1371TIP3   OH225603   6.113   5.194   4.346 -0.0028  0.1924  0.2640
 1371TIP3    H125604   6.113   5.100   4.360 -3.2523  0.1069  0.5354
 1371TIP3    H225605   6.187   5.226   4.397  2.2934 -2.2883 -1.2527
 1372TIP3   OH225606   2.060   0.238   0.276 -0.1584 -0.2869  0.2359
 1372TIP3    H125607   2.122   0.302   0.311  0.6544 -0.6529 -0.4868
 1372TIP3    H225608   2.060   0.167   0.340  0.3355 -0.3758  0.1424
 1373TIP3   OH225609   0.773   3.039   0.396  0.5594  0.0952  0.1212
 1373TIP3    H125610   0.850   3.072   0.441  0.9072  0.4045 -0.6713
 1373TIP3    H225611   0.781   2.944   0.401 -0.7847  0.0437  2.9852
 1374TIP3   OH225612   4.611   3.068  16.687  0.0184  0.2078  0.2963
 1374TIP3    H125613   4.698   3.038  16.711 -0.1154 -0.0834  0.4180
 1374TIP3    H225614   4.616   3.163  16.694  1.6442  0.6716 -3.9519
 1375TIP3   OH225615   5.621   1.436   2.320  0.3638 -0.2941 -0.2550
 1375TIP3    H125616   5.629   1.417   2.227  0.6826 -3.4751  0.3263
 1375TIP3    H225617   5.712   1.440   2.351  0.2784 -2.1490  0.3592
 1376TIP3   OH225618   0.230   1.713  17.125 -0.0944  0.0490 -0.2613
 1376TIP3    H125619   0.177   1.660  17.184  0.8134 -0.0632  0.4695
 1376TIP3    H225620   0.230   1.800  17.165  0.5803 -0.0439 -0.0472
 1377TIP3   OH225621   3.924   3.554   4.806 -0.4486  0.8719 -0.2036
 1377TIP3    H125622   3.915   3.531   4.899  0.3792  0.3015 -0.2516
 1377TIP3    H225623   3.852   3.509   4.763 -1.1218  1.5217  0.2176
 1378TIP3   OH225624   6.799   5.525   4.294 -0.3540  0.4269 -0.4168
 1378TIP3    H125625   6.776   5.614   4.321 -1.9333  0.1859 -0.8664
 1378TIP3    H225626   6.735   5.469   4.337 -0.4367 -0.3228 -1.4659
 1379TIP3   OH225627   5.707   2.958   2.899  0.1697 -0.9682 -0.0492
 1379TIP3    H125628   5.697   2.943   2.993 -2.7754  0.1393 -0.0806
 1379TIP3    H225629   5.698   3.053   2.889  0.0434 -1.1129 -1.4769
 1380TIP3   OH225630   1.523   6.404  11.274 -0.4509 -0.0234  0.3790
 1380TIP3    H125631   1.546   6.362  11.356  0.1405  0.6326  0.5597
 1380TIP3    H225632   1.577   6.361  11.208 -0.1519  0.1613  0.5007
 1381TIP3   OH225633   3.089   6.609   5.587 -0.0316  0.5937 -0.2659
 1381TIP3    H125634   3.025   6.551   5.544 -1.2188  0.8902  1.0139
 1381TIP3    H225635   3.042   6.643   5.663  1.4124  1.4727  0.2618
 1382TIP3   OH225636   2.413   3.543  15.518 -0.4142  0.1645  0.1351
 1382TIP3    H125637   2.339   3.514  15.464 -1.2806  0.6923  1.0047
 1382TIP3    H225638   2.426   3.471  15.580 -0.9389  0.5407  0.6943
 1383TIP3   OH225639   5.456   1.945  13.197 -0.2310 -0.2041  0.1969
 1383TIP3    H125640   5.504   1.871  13.233 -2.0837 -0.2720  2.7371
 1383TIP3    H225641   5.399   1.907  13.131 -0.4865 -0.9080  0.8132
 1384TIP3   OH225642   2.276   0.848  13.255  0.2579  0.1220 -0.5403
 1384TIP3    H125643   2.336   0.793  13.307  0.9457 -0.7994 -2.2392
 1384TIP3    H225644   2.237   0.908  13.319  1.4642 -0.6165  0.9473
 1385TIP3   OH225645   6.433   2.489   4.134 -0.1035 -0.3026  0.2054
 1385TIP3    H125646   6.356   2.465   4.082  1.0889 -0.1973 -1.6667
 1385TIP3    H225647   6.460   2.574   4.100  0.3961  0.0440  1.4067
 1386TIP3   OH225648   0.003   3.919   5.599 -0.6068 -0.4338  0.3776
 1386TIP3    H125649   0.022   3.992   5.659  0.4334 -1.6601  1.6150
 1386TIP3    H225650  -0.078   3.881   5.633 -1.4599  0.4480 -0.6052
 1387TIP3   OH225651   3.773   3.413   4.529  0.4803 -0.0946 -0.4506
 1387TIP3    H125652   3.731   3.488   4.570  2.5929  1.1985 -0.4657
 1387TIP3    H225653   3.706   3.345   4.527 -2.2674  2.4358 -2.4448
 1388TIP3   OH225654   6.715   3.249  13.585  0.2375 -0.5949  0.5139
 1388TIP3    H125655   6.727   3.299  13.504  0.6103 -0.1238  0.8613
 1388TIP3    H225656   6.801   3.250  13.627 -0.1690 -0.0615  1.3609
 1389TIP3   OH225657   2.692   4.358  13.614  0.1600  0.2834  0.1963
 1389TIP3    H125658   2.773   4.306  13.610  1.2148  1.8420  0.2963
 1389TIP3    H225659   2.723   4.449  13.623 -1.5830  1.0429 -0.9834
 1390TIP3   OH225660   3.070   2.752  16.143  0.5328  0.0558  0.4577
 1390TIP3    H125661   3.094   2.659  16.143 -0.0953 -0.1102  0.2086
 1390TIP3    H225662   3.152   2.797  16.163  0.8020 -0.5607  0.7894
 1391TIP3   OH225663   5.591   1.733   3.941 -0.3042  0.3910 -0.4295
 1391TIP3    H125664   5.685   1.748   3.952  0.0987 -0.7040 -2.0375
 1391TIP3    H225665   5.580   1.718   3.847 -1.7897 -1.3237 -0.0325
 1392TIP3   OH225666   3.934   5.304   5.351 -0.1812 -0.2221  0.1604
 1392TIP3    H125667   3.922   5.221   5.397  1.7333 -1.3948 -1.3054
 1392TIP3    H225668   3.965   5.279   5.264  1.9623  2.0430  0.1677
 1393TIP3   OH225669   3.326   5.872  10.662 -0.4520  0.3001  1.0179
 1393TIP3    H125670   3.250   5.834  10.705 -0.7588  0.2055  0.4062
 1393TIP3    H225671   3.359   5.937  10.724 -2.1046  1.6236  0.5643
 1394TIP3   OH225672   5.448   6.516   2.012  0.1327 -0.3542  0.1984
 1394TIP3    H125673   5.426   6.465   2.090  0.3319  0.1530  0.5968
 1394TIP3    H225674   5.495   6.592   2.046  0.6091 -0.3438 -0.4558
 1395TIP3   OH225675   3.323   5.053  11.722  0.0355  0.4425 -0.6638
 1395TIP3    H125676   3.387   5.009  11.778 -1.6471  1.9181  2.6548
 1395TIP3    H225677   3.352   5.144  11.721 -1.5428  0.9800  0.2711
 1396TIP3   OH225678   2.102   5.193   4.558  0.1559 -0.0062  0.0765
 1396TIP3    H125679   2.044   5.122   4.584 -0.7623  0.5226 -0.4524
 1396TIP3    H225680   2.044   5.257   4.517  1.1429  0.4709 -0.6154
 1397TIP3   OH225681   1.473   4.790   3.109  0.4910 -0.1993  0.0756
 1397TIP3    H125682   1.420   4.714   3.133  0.3395 -0.0170  0.3272
 1397TIP3    H225683   1.427   4.829   3.035  0.8475 -0.6456 -0.3867
 1398TIP3   OH225684   0.902   5.726   6.609 -0.1078 -0.2063  0.4597
 1398TIP3    H125685   0.983   5.722   6.559 -1.3278  0.3589 -1.7098
 1398TIP3    H225686   0.870   5.635   6.609 -0.0279 -0.2349  0.3477
 1399TIP3   OH225687   3.638   2.545   0.595  0.0994 -0.7294  0.1803
 1399TIP3    H125688   3.693   2.619   0.622 -0.3110 -0.0405 -0.8249
 1399TIP3    H225689   3.554   2.560   0.638  0.5738 -1.6377  1.4951
 1400TIP3   OH225690   0.144   5.249   4.734  0.3996  0.3046  0.4395
 1400TIP3    H125691   0.095   5.181   4.779 -0.5837  0.3177 -0.5755
 1400TIP3    H225692   0.123   5.329   4.782 -1.5109  0.5023 -0.5975
 1401TIP3   OH225693   0.041   4.607   0.120 -0.0957  0.1845  0.0214
 1401TIP3    H125694   0.014   4.548   0.049 -1.6349  0.5965  0.2272
 1401TIP3    H225695  -0.030   4.670   0.126  0.3329  0.5485  1.5083
 1402TIP3   OH225696   5.826   4.583   2.795  0.5785 -0.0252  0.0772
 1402TIP3    H125697   5.805   4.676   2.787 -1.3427 -0.4718 -0.5609
 1402TIP3    H225698   5.873   4.561   2.715 -2.7711 -0.4790 -1.9676
 1403TIP3   OH225699   2.144   6.632   0.051  0.2993 -0.5845  0.0815
 1403TIP3    H125700   2.107   6.550   0.016  0.7449 -0.9826  0.5158
 1403TIP3    H225701   2.118   6.699  -0.012  3.5611 -1.6889 -2.7370
 1404TIP3   OH225702   2.983   0.199   0.141  0.8981  0.2345 -0.2579
 1404TIP3    H125703   3.023   0.209   0.227  1.9078 -0.1394 -0.6715
 1404TIP3    H225704   3.057   0.188   0.081  0.1630 -1.5581 -0.8992
 1405TIP3   OH225705   2.750   2.082   0.130  0.5816  0.1346  0.2154
 1405TIP3    H125706   2.778   1.992   0.145 -0.6075 -0.5131 -1.1483
 1405TIP3    H225707   2.825   2.136   0.154  1.9477 -1.3371 -0.6358
 1406TIP3   OH225708   0.884   0.336  11.983 -0.2547  0.1029  0.0481
 1406TIP3    H125709   0.838   0.380  12.055  0.5952  0.1107  0.5958
 1406TIP3    H225710   0.969   0.381  11.978  0.5414 -1.2925  0.4581
 1407TIP3   OH225711   2.727   6.753  16.293  0.2991  0.0093  0.6199
 1407TIP3    H125712   2.736   6.672  16.343 -1.8749 -0.8024 -0.2039
 1407TIP3    H225713   2.633   6.761  16.276  0.8722  0.1193 -3.4984
 1408TIP3   OH225714   0.618   0.448  14.685 -0.6931 -0.4920  0.1595
 1408TIP3    H125715   0.536   0.497  14.689 -2.0230 -2.6349  3.8149
 1408TIP3    H225716   0.616   0.391  14.761  4.6280 -0.1163  0.9937
 1409TIP3   OH225717   5.865   5.115   2.202 -0.3195 -0.5781  0.3197
 1409TIP3    H125718   5.941   5.095   2.256  0.8551  0.8426 -0.7058
 1409TIP3    H225719   5.901   5.122   2.113 -1.6678  0.0414 -0.1972
 1410TIP3   OH225720   2.513   5.761   2.093 -0.0394  0.4775 -0.2512
 1410TIP3    H125721   2.501   5.852   2.122 -1.3384  0.1909  0.2167
 1410TIP3    H225722   2.472   5.709   2.162  0.7031 -0.4728 -0.5070
 1411TIP3   OH225723   4.907   6.121   0.936 -0.1753 -0.0805 -0.1170
 1411TIP3    H125724   4.885   6.028   0.945 -0.8462 -0.0003 -0.7988
 1411TIP3    H225725   4.822   6.165   0.934 -0.1285  0.1354 -3.9988
 1412TIP3   OH225726   6.577   6.007   5.217  0.3967  0.4502 -0.5122
 1412TIP3    H125727   6.522   6.070   5.172 -1.1521 -0.3279  0.2175
 1412TIP3    H225728   6.530   5.924   5.210  1.5064 -0.2641  0.0860
 1413TIP3   OH225729   3.079   4.977  12.978 -0.3982 -0.5375 -0.0823
 1413TIP3    H125730   3.026   5.012  13.049  0.1653 -0.1121  0.1397
 1413TIP3    H225731   3.116   4.896  13.013  0.2741 -0.0779  0.3027
 1414TIP3   OH225732   4.775   0.471  11.367 -0.3106 -0.0665  0.2824
 1414TIP3    H125733   4.813   0.384  11.355 -0.1632 -0.0075  0.3275
 1414TIP3    H225734   4.804   0.497  11.455 -0.4636 -0.0269  0.3210
 1415TIP3   OH225735   0.478   0.843  13.208 -0.2868  0.2496  0.5356
 1415TIP3    H125736   0.390   0.816  13.184  0.0871 -2.1586  1.5579
 1415TIP3    H225737   0.522   0.859  13.124 -1.2365 -0.1206 -0.0382
 1416TIP3   OH225738   3.211   5.156  15.553  0.0029  0.8589 -0.9226
 1416TIP3    H125739   3.188   5.218  15.484 -1.9793 -0.2351 -1.3340
 1416TIP3    H225740   3.147   5.173  15.622  0.8278  0.7258 -0.1093
 1417TIP3   OH225741   1.971   3.467   3.638  0.4679  0.2259  0.0319
 1417TIP3    H125742   1.909   3.395   3.645  0.9156 -0.1025  0.7402
 1417TIP3    H225743   1.954   3.505   3.552 -0.4118 -0.1309  0.0397
 1418TIP3   OH225744   0.541   1.289   0.248  0.0797  0.6058  0.3805
 1418TIP3    H125745   0.622   1.273   0.298 -0.2603  0.0279  0.7659
 1418TIP3    H225746   0.552   1.236   0.169 -0.2347 -0.0966  0.7875
 1419TIP3   OH225747   0.577   6.434   3.935 -0.0095 -0.7023 -0.5308
 1419TIP3    H125748   0.544   6.353   3.896 -0.3045 -0.3645 -1.0030
 1419TIP3    H225749   0.671   6.420   3.943  0.0905 -0.7155 -1.5659
 1420TIP3   OH225750   5.951   1.373   3.003 -0.1898  0.2952 -0.3305
 1420TIP3    H125751   5.888   1.349   3.071  0.4278 -1.5866 -0.3711
 1420TIP3    H225752   6.037   1.366   3.046  0.0830  1.3293 -0.6913
 1421TIP3   OH225753   1.747   3.302  14.842  0.0640 -0.0146  0.1553
 1421TIP3    H125754   1.704   3.217  14.833 -0.2219  0.1702 -0.2435
 1421TIP3    H225755   1.676   3.366  14.834  0.0504  0.2316  1.9563
 1422TIP3   OH225756   6.370   1.582  15.506 -0.2695  0.2067 -0.4532
 1422TIP3    H125757   6.336   1.522  15.572 -1.5856  0.3075 -0.9882
 1422TIP3    H225758   6.464   1.586  15.522 -0.2426 -1.5106 -0.0109
 1423TIP3   OH225759   1.499   6.704   3.656  0.0811  0.6352 -0.4788
 1423TIP3    H125760   1.531   6.730   3.742 -1.5204 -1.1847  0.7417
 1423TIP3    H225761   1.577   6.706   3.600  1.0154  2.5784  0.7953
 1424TIP3   OH225762   6.427   5.046  15.985 -0.2353 -0.2595  0.5309
 1424TIP3    H125763   6.516   5.041  16.020  0.3343 -1.1757 -0.9673
 1424TIP3    H225764   6.417   5.138  15.960  0.3630 -0.1888  0.5197
 1425TIP3   OH225765   2.307   5.811   3.700  0.5342  0.2515 -0.5169
 1425TIP3    H125766   2.284   5.856   3.781 -0.1699 -0.8199 -0.1015
 1425TIP3    H225767   2.400   5.830   3.688  0.5331  0.8301  0.2721
 1426TIP3   OH225768   1.603   5.295   2.683  0.0375  0.2181 -0.5428
 1426TIP3    H125769   1.642   5.211   2.659 -0.0116  0.2252 -0.6510
 1426TIP3    H225770   1.510   5.285   2.664  0.4961  1.5138 -4.2607
 1427TIP3   OH225771   2.981   4.145   3.479 -0.1889 -0.0587 -0.2537
 1427TIP3    H125772   2.993   4.083   3.551  1.3408 -0.3537 -0.7299
 1427TIP3    H225773   3.057   4.132   3.424 -0.5374  1.3051 -1.0862
 1428TIP3   OH225774   6.754   4.308  15.562 -0.0720  0.4962  0.3536
 1428TIP3    H125775   6.727   4.257  15.486 -0.6960  0.4555  0.5960
 1428TIP3    H225776   6.789   4.389  15.525 -1.5083  1.0079  0.0516
 1429TIP3   OH225777   0.865   5.635   1.121  0.3588 -0.2890  0.0022
 1429TIP3    H125778   0.889   5.695   1.192 -0.1852 -0.9732  0.7821
 1429TIP3    H225779   0.816   5.689   1.059  1.9918  0.6330 -0.5657
 1430TIP3   OH225780   5.907   1.427  12.574  0.4851 -0.4524  0.6455
 1430TIP3    H125781   5.905   1.333  12.556  0.9974 -0.3863  0.2122
 1430TIP3    H225782   5.963   1.436  12.652  2.0971 -0.3465 -0.4843
 1431TIP3   OH225783   5.945   6.385  13.854  0.3889  0.0942 -0.1415
 1431TIP3    H125784   6.001   6.455  13.822  0.4015  0.7769  1.2944
 1431TIP3    H225785   5.877   6.375  13.787 -0.3831  2.3946  0.2084
 1432TIP3   OH225786   2.474   4.772  13.529 -0.0763 -0.1969  0.1050
 1432TIP3    H125787   2.465   4.867  13.540 -0.3880 -0.1978 -0.1183
 1432TIP3    H225788   2.561   4.760  13.491 -0.4809  0.0908 -0.9401
 1433TIP3   OH225789   0.807   6.000  15.141  0.4296  0.2693 -0.5930
 1433TIP3    H125790   0.733   5.992  15.200 -0.3474  1.2649 -1.3852
 1433TIP3    H225791   0.877   6.037  15.195 -0.0971  0.6420 -0.1519
 1434TIP3   OH225792   6.614   4.371   4.171  0.1239 -0.0148  1.0838
 1434TIP3    H125793   6.659   4.329   4.098 -0.1542 -0.8596  1.3892
 1434TIP3    H225794   6.673   4.360   4.245 -0.1514 -0.2721  1.2672
 1435TIP3   OH225795   3.150   4.564   3.244 -0.2711 -1.0272  0.3934
 1435TIP3    H125796   3.082   4.534   3.304 -0.3442  0.8065  1.3204
 1435TIP3    H225797   3.226   4.579   3.299  0.0122 -0.4146 -0.1415
 1436TIP3   OH225798   4.490   6.705   4.443 -1.2685  0.1276 -0.5081
 1436TIP3    H125799   4.557   6.688   4.377 -0.6299 -0.1149  0.1833
 1436TIP3    H225800   4.497   6.798   4.461 -1.7539  0.2869 -1.0966
 1437TIP3   OH225801   5.364   2.134  14.139  0.0208 -0.5132 -0.1654
 1437TIP3    H125802   5.334   2.065  14.198  0.6751 -1.2767 -0.7073
 1437TIP3    H225803   5.432   2.180  14.188 -0.5572 -0.1166  0.2723
 1438TIP3   OH225804   2.013   2.770   3.026 -0.1437 -0.2649 -0.1947
 1438TIP3    H125805   2.090   2.783   3.081 -0.7557 -1.2399  0.9446
 1438TIP3    H225806   1.947   2.732   3.085 -0.8926 -1.1558 -1.5432
 1439TIP3   OH225807   5.378   2.657   4.023  0.2364 -0.7558  0.1779
 1439TIP3    H125808   5.414   2.744   4.039  0.6574 -0.9220  0.1503
 1439TIP3    H225809   5.424   2.600   4.085 -0.3199 -0.8927  0.4690
 1440TIP3   OH225810   4.631   1.810  16.383 -0.1507  0.1766  0.3304
 1440TIP3    H125811   4.542   1.776  16.395  0.3865 -1.9610 -1.2146
 1440TIP3    H225812   4.643   1.814  16.288  1.7555 -0.6266  0.4927
 1441TIP3   OH225813   6.408   0.475   5.663 -0.1185  0.4640  0.2782
 1441TIP3    H125814   6.480   0.508   5.609  1.0583 -0.6085  1.1082
 1441TIP3    H225815   6.449   0.457   5.748 -1.3848 -0.1781  0.7808
 1442TIP3   OH225816   1.939   3.173  13.335  0.3946  0.3295  0.4824
 1442TIP3    H125817   1.976   3.214  13.413  3.1129  0.1949 -0.6461
 1442TIP3    H225818   1.962   3.080  13.344 -1.1211 -0.0777  0.4739
 1443TIP3   OH225819   5.890   2.247  13.711  0.3085 -0.0698  0.5319
 1443TIP3    H125820   5.941   2.312  13.759 -0.3885  0.6539  0.2985
 1443TIP3    H225821   5.866   2.289  13.629  2.4424 -1.6749 -1.0450
 1444TIP3   OH225822   5.268   0.988  16.507 -0.3919  0.1291  0.2654
 1444TIP3    H125823   5.311   1.008  16.424 -0.2874  0.5573  0.4193
 1444TIP3    H225824   5.299   0.900  16.529 -0.0408  0.2059  0.0887
 1445TIP3   OH225825   3.383   4.457  13.707 -0.3970  0.4854  0.2931
 1445TIP3    H125826   3.298   4.416  13.724 -0.5454  1.1770  1.3719
 1445TIP3    H225827   3.367   4.515  13.633 -0.4842 -0.4830 -0.4635
 1446TIP3   OH225828   5.613   0.203  14.367 -0.3748  0.3958 -0.0050
 1446TIP3    H125829   5.559   0.125  14.379 -1.0675  0.9116  0.2625
 1446TIP3    H225830   5.683   0.193  14.431 -0.0279 -0.3696 -0.4860
 1447TIP3   OH225831   2.172   1.301   5.039  0.0311 -0.0732  0.7190
 1447TIP3    H125832   2.171   1.352   4.958  0.0054 -0.6166  0.3687
 1447TIP3    H225833   2.080   1.277   5.053 -0.0922  0.7720  1.4005
 1448TIP3   OH225834   5.566   1.518   6.631  0.2193 -0.1222  0.5843
 1448TIP3    H125835   5.544   1.579   6.560 -0.5446  0.8814  1.6555
 1448TIP3    H225836   5.482   1.492   6.668  0.5835 -1.1529  0.7139
 1449TIP3   OH225837   3.504   1.342   0.412  0.6969 -0.0193 -0.1799
 1449TIP3    H125838   3.594   1.370   0.431  0.7752 -0.4378  0.0712
 1449TIP3    H225839   3.462   1.337   0.498  0.2873  0.6585 -0.3332
 1450TIP3   OH225840   2.381   4.862   5.061  0.4479 -0.3991  0.4496
 1450TIP3    H125841   2.453   4.850   5.123  1.9621 -0.8558 -1.2859
 1450TIP3    H225842   2.407   4.939   5.010  0.6617 -1.6118 -1.3711
 1451TIP3   OH225843   4.323   3.748  13.971  0.6434 -0.0083  0.7072
 1451TIP3    H125844   4.269   3.783  14.042  1.6578 -1.6933  2.3871
 1451TIP3    H225845   4.412   3.747  14.007  0.9826 -2.1861 -0.0631
 1452TIP3   OH225846   2.695   6.262  15.981 -0.4356 -0.8123  0.1679
 1452TIP3    H125847   2.695   6.279  16.075  1.7150  0.7595 -0.0450
 1452TIP3    H225848   2.775   6.212  15.965 -0.0778  0.0524 -0.9548
 1453TIP3   OH225849   2.735   2.510   3.025 -0.0388  0.6243 -0.8892
 1453TIP3    H125850   2.759   2.429   3.070  1.2754  1.4209 -0.0749
 1453TIP3    H225851   2.799   2.518   2.954  0.5007  1.4387 -0.3339
 1454TIP3   OH225852   5.615   4.356   0.277 -0.5660  0.1658 -0.1551
 1454TIP3    H125853   5.616   4.440   0.321 -1.0011  0.3535 -0.5016
 1454TIP3    H225854   5.618   4.291   0.348 -1.1497  0.4636  0.1465
 1455TIP3   OH225855   4.240   2.423   2.576 -0.2184 -0.2567  0.1898
 1455TIP3    H125856   4.147   2.438   2.588 -0.0682 -0.7644  2.2906
 1455TIP3    H225857   4.247   2.328   2.561 -0.0358 -0.1983 -0.1158
 1456TIP3   OH225858   0.696   3.971   5.247 -0.0151  0.0756 -0.0190
 1456TIP3    H125859   0.647   4.021   5.182 -0.9223  0.7034  1.1350
 1456TIP3    H225860   0.783   4.011   5.247  0.2135 -0.3816 -1.3320
 1457TIP3   OH225861   2.572   0.435   2.126  0.7469 -0.0769 -0.4754
 1457TIP3    H125862   2.512   0.396   2.190  0.6956 -0.7909 -0.9438
 1457TIP3    H225863   2.614   0.360   2.085 -0.7520  0.2395 -2.7541
 1458TIP3   OH225864   2.863   0.125   4.157 -0.4953  0.2463  0.1707
 1458TIP3    H125865   2.952   0.111   4.189 -0.6575 -1.0493  0.1104
 1458TIP3    H225866   2.873   0.189   4.087  0.3754  0.2308  0.2657
 1459TIP3   OH225867   2.716   1.140  15.835  0.1205 -0.4496  0.3784
 1459TIP3    H125868   2.758   1.059  15.806 -1.5249 -0.4680 -2.2800
 1459TIP3    H225869   2.761   1.209  15.785  1.1559  0.2795  2.2274
 1460TIP3   OH225870   2.793   0.436  11.861 -0.5402  0.0477 -0.2549
 1460TIP3    H125871   2.886   0.447  11.844 -0.4692  1.7982  0.9878
 1460TIP3    H225872   2.786   0.352  11.906  0.4465 -0.0977 -0.3633
 1461TIP3   OH225873   6.477   4.458   2.520  0.6081  0.1135 -0.1489
 1461TIP3    H125874   6.482   4.549   2.551 -0.0452 -0.2500  1.0609
 1461TIP3    H225875   6.566   4.437   2.493  1.0591  0.6786  0.8410
 1462TIP3   OH225876   0.519   5.589   1.667 -0.3398 -0.0921  0.2109
 1462TIP3    H125877   0.509   5.615   1.759  2.7971  2.0718  0.0935
 1462TIP3    H225878   0.484   5.664   1.618 -1.3430 -0.9333 -0.3907
 1463TIP3   OH225879   5.260   4.305  16.808 -1.1378 -0.6410  0.5484
 1463TIP3    H125880   5.330   4.317  16.872 -1.4423 -0.2472  0.8090
 1463TIP3    H225881   5.302   4.261  16.734 -0.7884 -1.1304  1.0286
 1464TIP3   OH225882   5.326   4.149  16.554  0.3812  0.2551  0.2368
 1464TIP3    H125883   5.396   4.103  16.600  0.3343  1.6722  1.8067
 1464TIP3    H225884   5.249   4.093  16.564  0.6799 -0.0604  0.7840
 1465TIP3   OH225885   5.505   2.881   1.485  0.1688 -0.0852  0.2622
 1465TIP3    H125886   5.540   2.869   1.574  0.8095  0.2571  0.0687
 1465TIP3    H225887   5.495   2.976   1.477  0.3834 -0.0932 -0.1249
 1466TIP3   OH225888   1.722   5.082   0.468  0.1229 -0.1971  0.4947
 1466TIP3    H125889   1.725   4.992   0.436  1.0975  0.3280 -0.9623
 1466TIP3    H225890   1.771   5.133   0.404 -1.1329  1.5380  0.8287
 1467TIP3   OH225891   5.602   5.464  13.991 -0.5969 -0.4113  0.1037
 1467TIP3    H125892   5.572   5.524  13.922 -1.2303 -2.2646 -1.3280
 1467TIP3    H225893   5.541   5.477  14.063 -0.3859  1.0243  0.0528
 1468TIP3   OH225894   1.591   0.642  11.813 -0.2702 -0.0983 -0.3380
 1468TIP3    H125895   1.635   0.586  11.877 -0.7546  0.0930  0.1722
 1468TIP3    H225896   1.513   0.674  11.859  0.6929  2.0984 -0.1502
 1469TIP3   OH225897   1.056   1.788   2.158  0.4782 -0.4213 -0.8258
 1469TIP3    H125898   1.085   1.795   2.249 -1.3128  0.3937 -0.2653
 1469TIP3    H225899   1.136   1.798   2.106  1.5939 -1.2911  0.6427
 1470TIP3   OH225900   5.878   2.053   1.880  0.3405 -0.3030  0.5167
 1470TIP3    H125901   5.967   2.056   1.846  0.9046 -0.0376  1.9456
 1470TIP3    H225902   5.833   1.989   1.825  1.4168 -0.4675 -0.1977
 1471TIP3   OH225903   4.970   1.461   0.968 -0.2662  0.1788  0.7431
 1471TIP3    H125904   5.031   1.452   0.895 -1.7045 -3.2465 -0.2749
 1471TIP3    H225905   4.913   1.534   0.944  0.5352  0.3823 -0.5856
 1472TIP3   OH225906   2.446   4.007  14.564 -0.2256  0.5121 -0.3699
 1472TIP3    H125907   2.436   4.089  14.515 -0.9764 -1.2234 -3.4430
 1472TIP3    H225908   2.524   3.966  14.527 -0.5408 -0.6820  0.2210
 1473TIP3   OH225909   0.190   1.902  11.064  0.0416 -0.0887  0.2108
 1473TIP3    H125910   0.210   1.890  10.971 -0.2604 -0.1115  0.1457
 1473TIP3    H225911   0.206   1.995  11.080  0.6894 -0.2116  0.2861
 1474TIP3   OH225912   5.392   5.300  14.148 -0.3467 -0.0091 -0.3293
 1474TIP3    H125913   5.425   5.382  14.184  1.0983 -0.2534 -1.0180
 1474TIP3    H225914   5.449   5.232  14.185 -0.2025 -0.4782 -1.3694
 1475TIP3   OH225915   0.258   3.041  12.674 -0.3943 -0.1907  0.2187
 1475TIP3    H125916   0.326   3.053  12.741  1.0453 -2.6873 -0.6442
 1475TIP3    H225917   0.278   3.107  12.607 -0.4092  0.7621  1.1246
 1476TIP3   OH225918   2.799   2.208   4.589  0.0602 -0.6948  0.0641
 1476TIP3    H125919   2.833   2.204   4.500  0.2110  0.4441  0.0574
 1476TIP3    H225920   2.723   2.266   4.584 -0.6598 -1.5674  0.4696
 1477TIP3   OH225921   1.264   2.681  15.347  0.0366 -0.8203  0.4527
 1477TIP3    H125922   1.190   2.735  15.375 -0.0345 -1.6456  1.9413
 1477TIP3    H225923   1.224   2.597  15.324  0.2432 -0.5266 -1.0909
 1478TIP3   OH225924   3.352   1.514  11.281 -0.3909  0.5839 -0.0582
 1478TIP3    H125925   3.372   1.574  11.209  0.0086  2.2159  1.3556
 1478TIP3    H225926   3.437   1.489  11.316 -0.6192  1.2330  0.9748
 1479TIP3   OH225927   0.511   3.938   1.924  0.4952 -0.2050  0.1184
 1479TIP3    H125928   0.486   3.995   1.851 -1.7889  2.0677  2.4621
 1479TIP3    H225929   0.435   3.880   1.937  0.7154 -0.3370  0.9042
 1480TIP3   OH225930   2.780   3.009   3.589  0.0235 -0.0031  0.1514
 1480TIP3    H125931   2.719   3.071   3.547 -0.1903 -0.1935  0.1791
 1480TIP3    H225932   2.742   2.994   3.676  0.1226 -0.1041  0.1773
 1481TIP3   OH225933   3.512   4.211  13.614 -0.2869  0.3334  0.9105
 1481TIP3    H125934   3.604   4.235  13.601 -0.5875  0.8641 -0.3367
 1481TIP3    H225935   3.470   4.291  13.643 -0.2626 -0.0486  2.0392
 1482TIP3   OH225936   0.393   3.366   2.754 -0.1437 -0.1612 -0.2476
 1482TIP3    H125937   0.442   3.416   2.688  0.6856 -0.4310  0.1388
 1482TIP3    H225938   0.400   3.275   2.724  0.4546 -0.3143  0.3314
 1483TIP3   OH225939   5.396   6.323   2.730 -0.0347 -0.2176 -0.1658
 1483TIP3    H125940   5.386   6.281   2.644 -0.7836 -0.2283 -0.0852
 1483TIP3    H225941   5.413   6.250   2.790  1.3193 -0.1274 -0.4207
 1484TIP3   OH225942   3.519   1.868  16.854  0.1111  0.3687 -0.4675
 1484TIP3    H125943   3.587   1.802  16.866 -0.5496 -0.1709  0.4607
 1484TIP3    H225944   3.443   1.832  16.900 -0.0209  2.1319  0.8180
 1485TIP3   OH225945   1.151   4.293   2.545 -0.0764 -0.6441 -0.2489
 1485TIP3    H125946   1.114   4.205   2.535  0.0149 -0.8030  0.6911
 1485TIP3    H225947   1.181   4.317   2.457  0.1802 -1.6836 -0.4578
 1486TIP3   OH225948   6.557   1.467  12.707  0.4982  0.1626  0.3062
 1486TIP3    H125949   6.638   1.515  12.727 -0.0117  0.5511  1.4593
 1486TIP3    H225950   6.554   1.397  12.772  0.5651 -0.6596 -0.5567
 1487TIP3   OH225951   1.352   5.987   0.092  0.1597  0.1970  0.5439
 1487TIP3    H125952   1.343   6.076   0.125 -0.0410  0.4893 -0.2826
 1487TIP3    H225953   1.281   5.939   0.136 -1.3489  1.0115 -0.8791
 1488TIP3   OH225954   3.533   3.065   6.144  0.2860  0.4976  0.3139
 1488TIP3    H125955   3.523   3.035   6.234  0.9104 -1.6989 -0.2849
 1488TIP3    H225956   3.626   3.054   6.125  0.4532  2.4472 -0.1299
 1489TIP3   OH225957   2.303   3.428  13.660 -0.2131 -0.0660 -0.2253
 1489TIP3    H125958   2.312   3.511  13.612  1.3137  0.9066  1.5829
 1489TIP3    H225959   2.382   3.378  13.636 -0.8012 -0.7413 -0.7954
 1490TIP3   OH225960   4.806   1.448  13.882 -0.1769  0.4292  0.2877
 1490TIP3    H125961   4.774   1.389  13.815 -2.1626  0.7071  0.9179
 1490TIP3    H225962   4.813   1.394  13.961 -1.7318  0.9143  0.7970
 1491TIP3   OH225963   0.798   1.905   3.767  0.8645 -0.3669  0.1878
 1491TIP3    H125964   0.854   1.828   3.774 -1.2207 -2.0333 -0.6292
 1491TIP3    H225965   0.710   1.870   3.757 -0.0354  2.1207 -1.3320
 1492TIP3   OH225966   3.495   4.520   1.482 -0.3011  0.1492 -0.2032
 1492TIP3    H125967   3.460   4.443   1.437 -0.0121  0.7778 -1.5785
 1492TIP3    H225968   3.477   4.592   1.421  1.7300  0.7744 -0.1214
 1493TIP3   OH225969   3.334   1.473  12.217  0.0636  0.0287 -0.1616
 1493TIP3    H125970   3.316   1.496  12.308 -0.8815 -0.0548 -0.3207
 1493TIP3    H225971   3.426   1.497  12.204  0.9010 -2.0084  1.4446
 1494TIP3   OH225972   5.700   3.584  12.840 -0.3037  0.0084  0.1734
 1494TIP3    H125973   5.641   3.569  12.765  0.4527 -0.9343 -0.2540
 1494TIP3    H225974   5.782   3.613  12.800  0.7317 -2.3180  0.4524
 1495TIP3   OH225975   2.030   5.708  13.836  0.4015 -0.6577  0.1074
 1495TIP3    H125976   2.087   5.650  13.888  0.7763  0.9494  1.5727
 1495TIP3    H225977   1.946   5.704  13.881  0.5847  0.3491  0.5570
 1496TIP3   OH225978   1.394   2.917   2.539  0.0445  0.0044 -0.2499
 1496TIP3    H125979   1.405   3.001   2.494 -1.3759  0.6284  0.5057
 1496TIP3    H225980   1.459   2.919   2.609 -1.4218  1.4858  1.1475
 1497TIP3   OH225981   0.100   4.037   2.419  0.0669  0.3822  0.3746
 1497TIP3    H125982   0.073   4.004   2.505  0.0665 -0.2243  0.1441
 1497TIP3    H225983   0.025   4.089   2.389 -0.2712 -0.1021  0.3749
 1498TIP3   OH225984   5.709   5.355  14.205  0.4119 -0.6250  0.0762
 1498TIP3    H125985   5.677   5.402  14.282 -1.4621 -3.0087  0.8455
 1498TIP3    H225986   5.677   5.407  14.131  3.8602  2.8103  0.6479
 1499TIP3   OH225987   4.571   5.178   2.276  0.3804 -0.6316  0.2061
 1499TIP3    H125988   4.531   5.251   2.228 -1.0220 -0.8003  1.0494
 1499TIP3    H225989   4.604   5.120   2.208  0.1146  0.0426 -0.5126
 1500TIP3   OH225990   5.150   6.358  10.405  0.6139  0.3622 -0.0984
 1500TIP3    H125991   5.078   6.417  10.425  0.4809 -0.3349  1.6072
 1500TIP3    H225992   5.123   6.314  10.324  0.0168  1.4888 -0.5299
 1501TIP3   OH225993   5.735   2.256   2.167  0.4732  0.5636  0.4031
 1501TIP3    H125994   5.700   2.285   2.251 -0.3374  1.8865 -0.3550
 1501TIP3    H225995   5.659   2.254   2.109  1.3263  1.6847 -0.8141
 1502TIP3   OH225996   1.403   6.412  14.662  0.1095 -0.4531 -0.2238
 1502TIP3    H125997   1.312   6.406  14.691 -0.1660 -1.7269 -1.2562
 1502TIP3    H225998   1.433   6.497  14.695 -2.1258  1.0260 -1.7143
 1503TIP3   OH225999   1.297   4.835  11.540 -0.3864 -0.2877 -0.1330
 1503TIP3    H126000   1.382   4.878  11.553 -0.5574  0.6091 -1.7615
 1503TIP3    H226001   1.314   4.770  11.471 -0.9696 -0.2777 -0.2851
 1504TIP3   OH226002   6.230   2.549  14.051  0.0440 -0.1412  1.1927
 1504TIP3    H126003   6.307   2.507  14.013  0.2709  0.8236  0.5600
 1504TIP3    H226004   6.158   2.487  14.036  0.3967 -0.3687  0.4047
 1505TIP3   OH226005   3.730   4.606   2.687  0.0587  0.2239 -0.1891
 1505TIP3    H126006   3.754   4.532   2.743 -2.5962  1.1204  2.3618
 1505TIP3    H226007   3.773   4.681   2.727 -0.3704  0.6114 -0.4464
 1506TIP3   OH226008   4.714   1.096   6.614  0.1362 -0.6419  0.5098
 1506TIP3    H126009   4.708   1.192   6.612  0.6869 -0.5576  1.8360
 1506TIP3    H226010   4.804   1.078   6.586  0.3800 -0.6901  1.2824
 1507TIP3   OH226011   4.055   2.087   3.636  0.3681 -0.6567 -0.1245
 1507TIP3    H126012   4.005   2.161   3.670  2.2441  1.5088 -1.7187
 1507TIP3    H226013   3.998   2.047   3.571 -0.0016  0.6185 -0.6106
 1508TIP3   OH226014   2.560   0.372  12.938 -0.2743  0.5687 -0.6581
 1508TIP3    H126015   2.653   0.350  12.945 -0.7990 -1.2039  2.1969
 1508TIP3    H226016   2.518   0.289  12.916 -1.4598  0.5741  1.4213
 1509TIP3   OH226017   2.511   5.819   2.881 -0.5654  0.3226  0.2404
 1509TIP3    H126018   2.559   5.901   2.868 -0.6786  0.3985  0.3071
 1509TIP3    H226019   2.470   5.828   2.967  0.9045 -0.5405  1.0725
 1510TIP3   OH226020   6.135   3.229   0.570  0.4463 -0.1354 -0.0525
 1510TIP3    H126021   6.048   3.240   0.533 -0.6233 -0.6566  2.1442
 1510TIP3    H226022   6.161   3.317   0.600  0.6465  0.0036 -0.6305
 1511TIP3   OH226023   4.972   4.366   4.708  0.3764 -0.3101 -0.5191
 1511TIP3    H126024   4.954   4.457   4.732 -0.7830 -0.4706 -0.7140
 1511TIP3    H226025   4.993   4.369   4.615  2.3559 -0.0095 -0.1075
 1512TIP3   OH226026   6.545   5.147   3.236 -0.2554  0.5816 -0.6635
 1512TIP3    H126027   6.640   5.142   3.229 -0.3180 -0.2124 -0.9631
 1512TIP3    H226028   6.524   5.098   3.315 -0.3446  1.6007 -0.0333
 1513TIP3   OH226029   3.498   4.969  10.966  0.4163 -0.5074 -0.6039
 1513TIP3    H126030   3.493   4.879  10.934 -1.4260 -1.6676  2.5121
 1513TIP3    H226031   3.418   5.010  10.934 -1.2443 -1.5626  1.8643
 1514TIP3   OH226032   5.472   2.649   5.677  0.3887  0.5236 -0.8272
 1514TIP3    H126033   5.423   2.722   5.714 -0.1958 -0.9127  1.3712
 1514TIP3    H226034   5.563   2.678   5.679  0.2591  0.9015  0.8311
 1515TIP3   OH226035   6.574   0.824   2.021 -0.1448  0.2279 -0.4274
 1515TIP3    H126036   6.502   0.774   1.984 -0.5979  0.2055  0.4697
 1515TIP3    H226037   6.580   0.795   2.112  0.0470  1.2781 -0.0915
 1516TIP3   OH226038   4.348   0.129  12.949 -0.2208  0.2794 -0.0333
 1516TIP3    H126039   4.354   0.053  12.891 -1.1575 -0.3880  0.7126
 1516TIP3    H226040   4.271   0.177  12.919  0.1194  0.7095 -0.2300
 1517TIP3   OH226041   5.980   0.403  15.066  0.0758 -0.5072  0.4139
 1517TIP3    H126042   6.046   0.402  15.136  0.0073 -0.2121  0.4849
 1517TIP3    H226043   5.897   0.389  15.112 -0.1182  0.9876  0.5668
 1518TIP3   OH226044   0.402   5.643   6.162  0.0219 -0.4363  0.6099
 1518TIP3    H126045   0.375   5.684   6.244 -2.0538 -0.2667 -0.1142
 1518TIP3    H226046   0.373   5.704   6.094 -0.2406 -1.5895 -0.3411
 1519TIP3   OH226047   0.762   6.409   0.595  0.4581 -0.3212  0.5435
 1519TIP3    H126048   0.778   6.316   0.613 -0.6138 -1.0211 -1.7474
 1519TIP3    H226049   0.811   6.426   0.515 -0.4156  0.7231  0.2072
 1520TIP3   OH226050   3.976   4.488  11.678 -0.1062  0.7579  0.1118
 1520TIP3    H126051   3.957   4.400  11.645  1.0181 -0.1882  1.8314
 1520TIP3    H226052   3.937   4.489  11.765  1.0554  1.4746  0.6377
 1521TIP3   OH226053   3.690   0.357  13.979  0.0654  0.4661 -0.0819
 1521TIP3    H126054   3.651   0.333  13.895 -0.8454 -2.4446  1.0306
 1521TIP3    H226055   3.627   0.416  14.020  0.6237  2.0945 -1.4645
 1522TIP3   OH226056   3.663   0.502  16.526  0.0867 -0.1819 -0.5659
 1522TIP3    H126057   3.582   0.493  16.475  0.4950  3.2834 -2.1169
 1522TIP3    H226058   3.729   0.527  16.461  2.3783 -2.4753  0.7259
 1523TIP3   OH226059   3.973   5.894  10.911  0.1938 -0.1575  0.1471
 1523TIP3    H126060   4.006   5.875  10.823  0.4170 -1.4652  0.4924
 1523TIP3    H226061   3.887   5.851  10.914  0.3562 -0.4474  0.6940
 1524TIP3   OH226062   3.361   0.418  16.982  0.1181  0.2841 -0.0932
 1524TIP3    H126063   3.392   0.435  16.893  2.8486 -1.1901  0.4630
 1524TIP3    H226064   3.435   0.377  17.026 -1.4879 -0.0035  2.5927
 1525TIP3   OH226065   5.028   5.052  16.164 -0.1995  0.3551  0.4457
 1525TIP3    H126066   5.045   5.058  16.258  2.9951 -0.4446  0.0287
 1525TIP3    H226067   5.104   5.094  16.123 -1.5075  0.6840 -1.8169
 1526TIP3   OH226068   4.704   3.731   0.141 -0.1160  0.2838  0.2261
 1526TIP3    H126069   4.641   3.663   0.165 -0.8645  0.3580 -1.4223
 1526TIP3    H226070   4.777   3.717   0.201 -1.6832  0.2340  2.2577
 1527TIP3   OH226071   4.047   0.518  13.258  0.1922  0.3621 -0.4066
 1527TIP3    H126072   3.979   0.573  13.298  0.8563 -0.8040  2.5929
 1527TIP3    H226073   4.101   0.490  13.332  1.1587 -2.5615 -2.0862
 1528TIP3   OH226074   0.038   5.141   0.028  0.1427 -0.0374  0.0715
 1528TIP3    H126075  -0.055   5.148   0.047 -0.1826 -2.5023 -0.3028
 1528TIP3    H226076   0.070   5.231   0.027 -1.9722  0.7713  1.4255
 1529TIP3   OH226077   3.431   0.377  15.981 -0.1307 -0.1335  0.6211
 1529TIP3    H126078   3.521   0.355  15.957 -0.2998 -0.0367 -0.1115
 1529TIP3    H226079   3.401   0.437  15.913 -1.0716 -0.9212  0.3024
 1530TIP3   OH226080   6.050   1.957   4.091  0.3364  0.1395 -0.2290
 1530TIP3    H126081   6.097   1.953   4.175  1.0860  0.0860 -0.6360
 1530TIP3    H226082   6.023   2.048   4.082  0.9319  0.3140 -0.2825
 1531TIP3   OH226083   3.621   6.550  14.898  0.2204  0.7871  0.0884
 1531TIP3    H126084   3.595   6.556  14.806  0.0488  0.8949  0.1434
 1531TIP3    H226085   3.595   6.462  14.925  0.5838  0.6316 -0.0602
 1532TIP3   OH226086   4.978   4.938   6.539  0.3411 -0.1243 -0.1268
 1532TIP3    H126087   4.959   4.854   6.499  0.8215  0.3428 -1.3905
 1532TIP3    H226088   5.071   4.953   6.519  0.5352  0.2362  0.9783
 1533TIP3   OH226089   6.233   2.117  12.851 -0.3041 -0.5497  0.4937
 1533TIP3    H126090   6.200   2.173  12.920  1.5831  0.5642  0.5490
 1533TIP3    H226091   6.192   2.032  12.868 -1.2587  0.1484  1.8876
 1534TIP3   OH226092   0.298   5.256   0.803 -0.0897 -0.4132 -0.1997
 1534TIP3    H126093   0.337   5.256   0.716  1.0355  0.1237  0.2823
 1534TIP3    H226094   0.360   5.305   0.857 -1.3832  0.3569  0.6404
 1535TIP3   OH226095   0.935   5.356  11.729 -0.8219  0.6144 -0.6085
 1535TIP3    H126096   0.937   5.410  11.808  0.7333 -0.0564 -0.1573
 1535TIP3    H226097   1.018   5.309  11.730 -1.6960 -1.0330 -1.5255
 1536TIP3   OH226098   1.178   1.851  12.383 -0.6875  0.2247 -0.0905
 1536TIP3    H126099   1.170   1.944  12.360  0.3675 -0.0277 -1.6893
 1536TIP3    H226100   1.217   1.811  12.305  0.1816 -1.3242  1.0803
 1537TIP3   OH226101   2.341   2.815   0.526 -0.0780 -0.1864  0.1415
 1537TIP3    H126102   2.257   2.859   0.536  0.0361 -0.2042  1.2642
 1537TIP3    H226103   2.341   2.784   0.435 -1.2040 -0.0291  0.0753
 1538TIP3   OH226104   3.892   2.169  10.569  0.3239 -0.2571 -0.2618
 1538TIP3    H126105   3.877   2.082  10.532  0.8897 -0.1122 -0.8557
 1538TIP3    H226106   3.899   2.154  10.663 -3.6063 -0.3218  0.1805
 1539TIP3   OH226107   2.407   3.943   5.716 -0.3219  0.8754  0.1203
 1539TIP3    H126108   2.471   3.956   5.786  0.7722  0.3168 -0.7216
 1539TIP3    H226109   2.356   4.024   5.714  2.3908  2.7422 -1.1605
 1540TIP3   OH226110   1.657   5.234   4.427  0.7439  0.4057  0.4006
 1540TIP3    H126111   1.636   5.301   4.493  0.5071  1.8739 -1.1086
 1540TIP3    H226112   1.726   5.273   4.374 -0.7022  0.2703 -1.6801
 1541TIP3   OH226113   6.761   4.642   1.300 -0.0870  0.2925 -0.0334
 1541TIP3    H126114   6.719   4.596   1.228  1.9675 -0.0136 -1.1145
 1541TIP3    H226115   6.826   4.581   1.334  0.0450  1.0133  1.0835
 1542TIP3   OH226116   5.848   5.887  13.293 -0.5960 -0.6064  0.4100
 1542TIP3    H126117   5.931   5.928  13.267 -0.9100  0.6625  1.3452
 1542TIP3    H226118   5.873   5.797  13.315  0.6437 -0.1090  1.1640
 1543TIP3   OH226119   1.821   1.345   3.209  0.1161 -0.8456 -0.4371
 1543TIP3    H126120   1.783   1.424   3.169 -0.8828 -0.1517  1.7302
 1543TIP3    H226121   1.913   1.367   3.222 -0.1958  0.1106  0.3499
 1544TIP3   OH226122   0.685   5.312  12.646 -0.5939 -0.0466 -0.4582
 1544TIP3    H126123   0.708   5.396  12.606  0.2308 -0.5427 -1.0560
 1544TIP3    H226124   0.767   5.278  12.681 -0.9398 -0.5491 -0.1181
 1545TIP3   OH226125   1.100   4.253   6.090 -0.3251  0.4982  0.2376
 1545TIP3    H126126   1.050   4.177   6.121 -0.1378  0.4560  0.4384
 1545TIP3    H226127   1.078   4.323   6.151  0.5242  0.2502  0.8599
 1546TIP3   OH226128   2.057   0.572  14.990  0.3644 -0.4410  0.7863
 1546TIP3    H126129   2.057   0.511  14.917  1.3693  0.8026 -0.3118
 1546TIP3    H226130   2.140   0.556  15.034  0.9173  0.4979  0.1304
 1547TIP3   OH226131   2.008   1.533   2.110 -0.1815 -0.2410  0.0525
 1547TIP3    H126132   1.988   1.627   2.106 -0.7816 -0.3490  0.4174
 1547TIP3    H226133   2.090   1.524   2.061  1.1054  0.8127  1.8850
 1548TIP3   OH226134   0.321   6.538  12.175  0.0706  0.1571  0.2342
 1548TIP3    H126135   0.236   6.570  12.205  0.1232 -0.5496  1.1745
 1548TIP3    H226136   0.329   6.573  12.086 -1.5533 -0.3999 -0.1806
 1549TIP3   OH226137   2.950   2.042   4.733 -0.9971  0.2537  0.6544
 1549TIP3    H126138   2.909   2.107   4.677 -1.8243  0.8544  1.9151
 1549TIP3    H226139   2.983   1.976   4.673  1.2963  2.5628 -0.8215
 1550TIP3   OH226140   1.093   1.753  15.419  0.2075 -0.4246  0.3347
 1550TIP3    H126141   1.179   1.787  15.393  0.1930 -0.1160  0.6879
 1550TIP3    H226142   1.102   1.731  15.512 -0.2394  0.0891  0.5063
 1551TIP3   OH226143   6.281   2.375   6.823  0.0032 -0.6840 -0.4683
 1551TIP3    H126144   6.213   2.346   6.762 -0.2253 -0.7936 -0.1627
 1551TIP3    H226145   6.266   2.324   6.902 -0.6745  0.5454  0.2401
 1552TIP3   OH226146   2.063   5.034   2.502  0.3042  0.1421  0.4405
 1552TIP3    H126147   2.037   5.063   2.415  1.0888  2.1096  0.8053
 1552TIP3    H226148   1.981   5.005   2.543 -0.2008 -0.0413 -0.6653
 1553TIP3   OH226149   4.016   0.913  16.498 -0.3631 -0.0925 -0.1927
 1553TIP3    H126150   3.962   0.844  16.536  2.0424 -3.7745 -2.7924
 1553TIP3    H226151   3.980   0.925  16.409  1.1271 -0.3870 -0.8645
 1554TIP3   OH226152   1.378   1.521   4.214 -0.4258 -0.1601  0.4704
 1554TIP3    H126153   1.472   1.529   4.201 -0.4880 -1.2663 -0.8915
 1554TIP3    H226154   1.348   1.610   4.231  0.5359  0.5782 -1.4965
 1555TIP3   OH226155   1.202   5.573   0.050 -0.1170  0.3636 -0.0341
 1555TIP3    H126156   1.152   5.503   0.090 -2.8012  1.2464 -1.6178
 1555TIP3    H226157   1.239   5.535  -0.029 -1.4545  0.6306 -0.8173
 1556TIP3   OH226158   6.129   4.097  12.992 -0.4784  0.1417  0.1695
 1556TIP3    H126159   6.080   4.129  13.068  0.6401 -2.6074  2.2596
 1556TIP3    H226160   6.221   4.100  13.020  0.1216  0.4024 -1.6874
 1557TIP3   OH226161   1.176   5.700   4.226 -0.1290  0.0368  0.4948
 1557TIP3    H126162   1.267   5.703   4.196 -0.0000  0.6986  0.9346
 1557TIP3    H226163   1.144   5.614   4.197  0.4447  0.0503 -0.2024
 1558TIP3   OH226164   5.040   6.550   4.370  0.7588  0.4966 -0.0161
 1558TIP3    H126165   5.119   6.496   4.368  0.4838  0.0338  0.9184
 1558TIP3    H226166   5.065   6.627   4.422  0.9268  0.9056 -0.6976
 1559TIP3   OH226167   2.952   4.453   1.158  0.2520 -0.5078 -0.6306
 1559TIP3    H126168   3.042   4.420   1.157 -0.4651 -2.8288  1.2012
 1559TIP3    H226169   2.908   4.404   1.089 -0.1194 -1.1285  0.0379
 1560TIP3   OH226170   2.146   2.970  12.179 -0.0696  0.6317 -0.2467
 1560TIP3    H126171   2.216   2.911  12.154  0.2380  0.5681  0.7111
 1560TIP3    H226172   2.188   3.055  12.190  0.4736  0.1133  2.8831
 1561TIP3   OH226173   4.270   1.404   1.914 -0.1626 -0.7697  0.7434
 1561TIP3    H126174   4.230   1.317   1.914 -0.9894 -0.5633 -2.9904
 1561TIP3    H226175   4.318   1.409   1.831  1.0263  1.8655  1.4586
 1562TIP3   OH226176   5.565   0.477   6.173 -0.3977 -0.0936  0.5031
 1562TIP3    H126177   5.535   0.437   6.092 -0.0770  0.7580 -0.0519
 1562TIP3    H226178   5.569   0.571   6.154 -0.0372  0.0891  1.4084
 1563TIP3   OH226179   5.824   5.571  16.597  0.0389  0.2414  0.0690
 1563TIP3    H126180   5.751   5.626  16.567 -0.1574 -0.9370 -1.7549
 1563TIP3    H226181   5.901   5.606  16.552  0.3482  0.4696  0.7461
 1564TIP3   OH226182   0.641   0.062   4.239 -0.2828  0.0414 -0.9689
 1564TIP3    H126183   0.638   0.001   4.313  1.4617  2.1343  0.9777
 1564TIP3    H226184   0.734   0.073   4.221 -0.6332  0.7262 -2.5190
 1565TIP3   OH226185   5.670   1.241  16.498 -0.2541 -0.2488 -0.1287
 1565TIP3    H126186   5.585   1.208  16.528  0.1616 -0.1569  1.1740
 1565TIP3    H226187   5.648   1.317  16.444 -0.9720  0.2414  0.8272
 1566TIP3   OH226188   0.262   6.543  12.647  0.1659  0.1661  0.1271
 1566TIP3    H126189   0.283   6.449  12.650  0.3964  0.2002 -0.2433
 1566TIP3    H226190   0.332   6.584  12.698  0.4790  0.1968 -0.3200
 1567TIP3   OH226191   3.332   1.950   1.288 -0.0684 -0.3100  0.0845
 1567TIP3    H126192   3.419   1.986   1.308  0.0527  0.3127 -1.3852
 1567TIP3    H226193   3.325   1.957   1.193 -2.7468  2.1130  0.3062
 1568TIP3   OH226194   2.463   5.016   3.552 -0.0270  0.2064 -0.1785
 1568TIP3    H126195   2.529   5.075   3.517 -0.2659  0.5880 -0.0037
 1568TIP3    H226196   2.484   5.009   3.645  0.3663 -0.4792 -0.3186
 1569TIP3   OH226197   1.806   3.126  15.275 -0.4501  0.1078  0.2268
 1569TIP3    H126198   1.856   3.044  15.282 -0.4228  0.1182  0.1497
 1569TIP3    H226199   1.737   3.107  15.212 -0.7542 -0.0127  0.5907
 1570TIP3   OH226200   0.008   3.327  17.097 -0.3625  0.2901 -0.6813
 1570TIP3    H126201   0.074   3.266  17.129 -0.8042 -0.4182 -1.0992
 1570TIP3    H226202  -0.068   3.312  17.153 -0.4833  0.4488 -0.8004
 1571TIP3   OH226203   4.514   0.396   4.199 -0.0289 -0.2567  0.2198
 1571TIP3    H126204   4.514   0.307   4.164 -1.1565 -0.3366  0.3630
 1571TIP3    H226205   4.493   0.384   4.292  1.8831  0.0222  0.7211
 1572TIP3   OH226206   4.254   5.748  11.355  0.0174 -0.7687  0.4205
 1572TIP3    H126207   4.301   5.665  11.352 -1.3690 -1.5466 -0.6404
 1572TIP3    H226208   4.200   5.749  11.276  0.9317  1.7196 -0.2773
 1573TIP3   OH226209   6.457   1.222   3.350  0.2777 -0.3054 -0.5274
 1573TIP3    H126210   6.364   1.219   3.371  0.5799 -0.0678  1.0231
 1573TIP3    H226211   6.470   1.151   3.287 -0.9437 -0.3481 -0.7572
 1574TIP3   OH226212   6.758   4.308  12.637  0.6200  0.1057  0.0320
 1574TIP3    H126213   6.802   4.326  12.553  0.8469 -0.9546 -0.0849
 1574TIP3    H226214   6.826   4.323  12.703  1.2033 -1.5395 -0.1497
 1575TIP3   OH226215   1.947   3.295   5.416  0.2965  0.6207  0.5699
 1575TIP3    H126216   1.968   3.208   5.382 -0.8251 -0.0048  1.3784
 1575TIP3    H226217   1.972   3.291   5.509 -1.3364  0.5320  1.0487
 1576TIP3   OH226218   5.642   5.718   4.175  0.1931  0.2640 -0.8386
 1576TIP3    H126219   5.586   5.746   4.102 -1.5132  1.1582  0.7428
 1576TIP3    H226220   5.593   5.740   4.253  2.4853  0.4381  0.6511
 1577TIP3   OH226221   0.655   1.584  13.011 -0.5680  0.3393  0.3068
 1577TIP3    H126222   0.701   1.522  12.955 -2.5648 -0.5122 -0.4898
 1577TIP3    H226223   0.680   1.670  12.977 -1.1079 -0.1447 -1.4098
 1578TIP3   OH226224   3.500   0.051   1.553 -0.1267  0.4315  0.1855
 1578TIP3    H126225   3.526   0.015   1.638 -0.9755  2.4330  1.3643
 1578TIP3    H226226   3.407   0.030   1.545 -0.1044  0.4551 -0.1347
 1579TIP3   OH226227   2.671   3.047  13.663  0.3605  0.1001 -0.1634
 1579TIP3    H126228   2.619   3.104  13.606  0.2702  0.6110  0.4241
 1579TIP3    H226229   2.757   3.043  13.620  0.5757  1.2329  0.1429
 1580TIP3   OH226230   2.852   0.834   4.107  0.3352 -0.3893 -0.4115
 1580TIP3    H126231   2.775   0.797   4.064 -0.1260  0.7984 -0.6549
 1580TIP3    H226232   2.831   0.830   4.200 -0.4684  0.8056 -0.5147
 1581TIP3   OH226233   5.423   4.975   1.776  0.1622  0.0256 -0.1204
 1581TIP3    H126234   5.411   5.036   1.704 -1.2718 -2.3913 -2.1144
 1581TIP3    H226235   5.335   4.941   1.794  0.5334  0.2676  2.5674
 1582TIP3   OH226236   4.953   5.022   7.162  0.6017  0.1374  0.3138
 1582TIP3    H126237   4.928   4.929   7.162  3.5326 -0.7781 -0.0301
 1582TIP3    H226238   4.877   5.068   7.127 -0.9273 -2.1486  0.4291
 1583TIP3   OH226239   5.582   1.672   3.285  0.4544 -0.0724  0.0634
 1583TIP3    H126240   5.562   1.666   3.192 -0.0451 -1.2166  0.2280
 1583TIP3    H226241   5.672   1.704   3.289  0.0502  1.2374 -0.7705
 1584TIP3   OH226242   5.990   5.258  14.921  0.0866 -0.1249  0.4259
 1584TIP3    H126243   6.009   5.176  14.876  0.9785 -0.8041  1.9850
 1584TIP3    H226244   5.990   5.236  15.014  0.7647  1.7032  0.9117
 1585TIP3   OH226245   4.287   4.867   4.341  1.1731  0.0673  0.1456
 1585TIP3    H126246   4.218   4.845   4.278  0.2476 -1.1497  1.5441
 1585TIP3    H226247   4.344   4.790   4.344  1.1664  0.0818  0.8521
 1586TIP3   OH226248   6.219   3.289   3.441 -0.4946  0.0492  0.1004
 1586TIP3    H126249   6.125   3.308   3.439 -0.4527  0.3260  0.6004
 1586TIP3    H226250   6.260   3.375   3.431 -0.2998  0.1739  1.7253
 1587TIP3   OH226251   4.608   2.912  11.987  0.3788 -1.1806 -0.3079
 1587TIP3    H126252   4.603   2.865  11.904  2.0523 -0.2276 -1.0100
 1587TIP3    H226253   4.638   3.000  11.962  0.1823 -0.6469  1.2494
 1588TIP3   OH226254   5.764   0.120   0.521  0.1082 -0.4589 -0.5746
 1588TIP3    H126255   5.827   0.168   0.576  0.3692 -1.5855  0.1429
 1588TIP3    H226256   5.783   0.028   0.539 -1.5822 -0.8193 -0.5390
 1589TIP3   OH226257   5.203   5.702  11.755  0.3276  0.0816 -0.1852
 1589TIP3    H126258   5.202   5.786  11.802 -1.5475 -0.0191  0.0114
 1589TIP3    H226259   5.253   5.720  11.676  0.7129  1.1457  0.2766
 1590TIP3   OH226260   1.053   2.725  16.004  0.2635  0.2148 -0.2105
 1590TIP3    H126261   0.965   2.751  16.030  0.3138 -1.4661  1.8247
 1590TIP3    H226262   1.108   2.798  16.033 -0.3126  0.8012 -0.5524
 1591TIP3   OH226263   6.551   4.823  12.396 -0.2337 -0.1902  0.4615
 1591TIP3    H126264   6.528   4.829  12.303 -0.2762  3.5274  0.5551
 1591TIP3    H226265   6.487   4.879  12.440  0.7644 -0.5676  2.5364
 1592TIP3   OH226266   0.185   6.572  15.844  0.5962  0.1480  0.2898
 1592TIP3    H126267   0.094   6.574  15.874  0.2720  1.5869 -0.6801
 1592TIP3    H226268   0.207   6.664  15.828  2.8677  0.0902  2.3115
 1593TIP3   OH226269   4.499   2.873   1.860  0.1915  0.0798 -0.0241
 1593TIP3    H126270   4.555   2.800   1.834 -0.8128 -0.5123 -0.6098
 1593TIP3    H226271   4.519   2.942   1.797  0.5357  0.0049  0.0040
 1594TIP3   OH226272   5.195   4.526   1.942  0.7877  0.5912  1.1139
 1594TIP3    H126273   5.148   4.457   1.895 -0.3036  0.8153  1.8496
 1594TIP3    H226274   5.279   4.533   1.896 -0.5740  1.4470 -1.4420
 1595TIP3   OH226275   1.898   1.894   1.111 -0.2586  0.0644 -0.0980
 1595TIP3    H126276   1.809   1.861   1.119 -0.2447  0.4570  3.8173
 1595TIP3    H226277   1.893   1.984   1.144  1.5455  0.1593  0.0302
 1596TIP3   OH226278   6.354   1.660  12.378  0.2582  0.0516  0.2187
 1596TIP3    H126279   6.352   1.720  12.453  1.1312 -0.6335  0.8017
 1596TIP3    H226280   6.312   1.580  12.410  1.3347 -0.5151  0.2319
 1597TIP3   OH226281   0.892   6.431   0.355  0.1113  0.7536 -0.2741
 1597TIP3    H126282   0.969   6.487   0.347  1.1407 -0.4553  0.7600
 1597TIP3    H226283   0.899   6.370   0.282  0.3777  0.3711  0.0674
 1598TIP3   OH226284   1.219   6.505   2.025 -0.1694 -0.2173  0.1026
 1598TIP3    H126285   1.285   6.530   1.960 -0.9195  0.1412 -0.5405
 1598TIP3    H226286   1.199   6.414   2.005  1.3949 -0.9100  1.4296
 1599TIP3   OH226287   0.007   3.575   0.511  0.4041  0.2945 -0.0380
 1599TIP3    H126288  -0.030   3.494   0.475  1.9196 -0.5934  0.3121
 1599TIP3    H226289   0.071   3.545   0.575  3.3565  1.5985 -2.1369
 1600TIP3   OH226290   4.549   0.850   3.231  0.2457  0.6439 -0.3971
 1600TIP3    H126291   4.544   0.772   3.176 -0.4899  1.4130 -1.4533
 1600TIP3    H226292   4.458   0.874   3.247  0.4433  0.4867  1.1205
 1601TIP3   OH226293   3.717   5.283   0.228  0.1926 -0.3232 -0.2084
 1601TIP3    H126294   3.627   5.270   0.258  0.1798  0.1302 -0.0381
 1601TIP3    H226295   3.768   5.290   0.309 -0.0204  2.2063 -0.2105
 1602TIP3   OH226296   1.985   4.588  15.513 -0.4857 -0.1515  0.0995
 1602TIP3    H126297   2.071   4.590  15.472  0.2023  0.3305  1.5026
 1602TIP3    H226298   1.978   4.499  15.549  0.2451  0.3689  1.5996
 1603TIP3   OH226299   6.788   1.330   1.977  0.2757 -0.0562 -0.1974
 1603TIP3    H126300   6.859   1.377   1.933 -0.0992 -0.7055 -1.5219
 1603TIP3    H226301   6.830   1.292   2.055  0.3325  3.5043  1.7492
 1604TIP3   OH226302   2.339   4.834   2.737  0.0938 -0.0578  0.2799
 1604TIP3    H126303   2.273   4.771   2.710  0.3129  0.0460 -0.5177
 1604TIP3    H226304   2.296   4.919   2.729  0.0548 -0.0451  0.5901
 1605TIP3   OH226305   5.850   5.075  16.405  0.1845  0.6465 -0.6170
 1605TIP3    H126306   5.838   5.065  16.311 -1.0474 -0.8260 -0.3411
 1605TIP3    H226307   5.944   5.063  16.419  0.5374  1.8410 -1.7308
 1606TIP3   OH226308   0.949   6.585  14.728 -0.0600 -0.1728  0.0541
 1606TIP3    H126309   0.854   6.583  14.735 -0.1963  0.9795 -1.1453
 1606TIP3    H226310   0.975   6.666  14.771  0.6025 -1.4621  2.2120
 1607TIP3   OH226311   4.901   3.756   2.165 -0.2741  0.1342  0.4138
 1607TIP3    H126312   4.863   3.718   2.245  1.8349  0.1282  1.4967
 1607TIP3    H226313   4.892   3.686   2.099 -3.3068  0.6441  0.1586
 1608TIP3   OH226314   6.289   2.547   0.780 -0.1733 -0.2549 -0.1834
 1608TIP3    H126315   6.280   2.458   0.813 -0.4696 -0.5311 -0.9693
 1608TIP3    H226316   6.240   2.601   0.842  0.7549 -0.5139  0.7882
 1609TIP3   OH226317   1.788   0.601   1.139  0.7045 -0.3533  0.3861
 1609TIP3    H126318   1.739   0.537   1.087  0.3827  0.4838 -0.3813
 1609TIP3    H226319   1.863   0.623   1.084  2.0578 -1.7189  1.6105
 1610TIP3   OH226320   6.810   4.399  14.390 -0.3439  0.1646 -0.0367
 1610TIP3    H126321   6.852   4.372  14.309 -2.1944  0.4076 -1.1194
 1610TIP3    H226322   6.766   4.481  14.369  0.8197  1.3475  1.7969
 1611TIP3   OH226323   5.015   0.655  16.984  0.3353 -0.5957 -0.2016
 1611TIP3    H126324   5.099   0.687  16.949  0.6048 -1.4428 -0.3498
 1611TIP3    H226325   4.961   0.734  16.991  1.6995  0.2623  1.5271
 1612TIP3   OH226326   6.019   2.374   2.598 -0.0698  0.5439 -0.4234
 1612TIP3    H126327   6.085   2.311   2.627  1.9709  2.0205 -1.5487
 1612TIP3    H226328   5.958   2.382   2.671 -1.0351 -3.4294 -0.6171
 1613TIP3   OH226329   0.253   4.646   1.811 -0.2272  0.3910  0.2937
 1613TIP3    H126330   0.202   4.615   1.886 -0.8111  2.5461  0.8407
 1613TIP3    H226331   0.338   4.670   1.848 -0.2354  0.6927  0.1171
 1614TIP3   OH226332   5.657   2.744   4.273  0.2141  0.2765  0.3427
 1614TIP3    H126333   5.698   2.738   4.360  0.1148  1.7032  0.5075
 1614TIP3    H226334   5.725   2.782   4.217  0.0097  0.1185 -0.0173
 1615TIP3   OH226335   3.991   0.457   3.743 -0.2942 -0.5667  0.6817
 1615TIP3    H126336   4.023   0.396   3.809  0.3952 -1.0104 -0.0423
 1615TIP3    H226337   3.970   0.537   3.792 -0.3760 -1.0899  1.5138
 1616TIP3   OH226338   5.305   4.479   1.344 -0.0068 -0.0095 -0.3799
 1616TIP3    H126339   5.261   4.560   1.315  2.2708  0.9883 -1.2646
 1616TIP3    H226340   5.347   4.445   1.265  0.2752 -1.2771  0.2926
 1617TIP3   OH226341   6.126   3.512  14.850 -0.5923 -0.0872 -0.1638
 1617TIP3    H126342   6.207   3.524  14.800 -0.0369 -1.7643  0.2657
 1617TIP3    H226343   6.103   3.600  14.880  1.3270  0.3648  0.1023
 1618TIP3   OH226344   2.716   2.381  11.007 -0.1389  0.5952 -0.4488
 1618TIP3    H126345   2.622   2.371  10.995  0.1059 -1.3849 -1.1850
 1618TIP3    H226346   2.728   2.385  11.102 -0.9042 -0.2969 -0.2957
 1619TIP3   OH226347   0.347   0.151  14.756  0.1240  0.5028  0.3786
 1619TIP3    H126348   0.301   0.235  14.757  1.3281  1.1877  0.1159
 1619TIP3    H226349   0.398   0.152  14.675  0.1486 -0.5003  0.3653
 1620TIP3   OH226350   5.569   1.176  14.029 -0.0456 -0.3259 -1.3694
 1620TIP3    H126351   5.600   1.101  13.979  0.7702  0.5092 -2.1514
 1620TIP3    H226352   5.571   1.249  13.967  0.1365  0.5536 -0.3614
 1621TIP3   OH226353   4.563   4.711   3.183  0.2817 -0.0264  0.0840
 1621TIP3    H126354   4.606   4.792   3.212  0.9221 -0.1418 -0.5232
 1621TIP3    H226355   4.482   4.708   3.234  0.6440  0.5704  0.7168
 1622TIP3   OH226356   1.410   2.909  11.516 -0.1920  0.1928  0.1698
 1622TIP3    H126357   1.384   2.960  11.440  0.0063  1.5018  0.9415
 1622TIP3    H226358   1.331   2.861  11.542  0.0365 -1.2173 -1.5168
 1623TIP3   OH226359   0.977   4.433   5.913 -0.1592  0.1146 -0.3193
 1623TIP3    H126360   0.916   4.384   5.968  0.6352 -0.3677  0.1586
 1623TIP3    H226361   1.055   4.377   5.908 -0.4158 -0.1135 -2.4255
 1624TIP3   OH226362   3.794   1.954   4.312 -0.5844  0.3485 -0.1487
 1624TIP3    H126363   3.726   2.008   4.269 -1.1240  0.4128  0.7567
 1624TIP3    H226364   3.826   2.009   4.383 -0.0562  0.0484 -0.1542
 1625TIP3   OH226365   0.872   1.353   6.600 -0.4777 -0.1851  0.2672
 1625TIP3    H126366   0.816   1.427   6.578 -0.1172  0.1362  0.4125
 1625TIP3    H226367   0.858   1.339   6.693  0.6011  0.6919  0.5785
 1626TIP3   OH226368   4.177   4.066   6.261  0.1687  0.8016 -0.7587
 1626TIP3    H126369   4.144   4.151   6.289 -0.0475  1.0189 -1.6334
 1626TIP3    H226370   4.122   4.002   6.307 -0.0518  1.1399 -0.5486
 1627TIP3   OH226371   0.681   0.367  17.097  0.6671  0.3269 -0.2989
 1627TIP3    H126372   0.648   0.306  17.031  0.8840  0.3111 -0.3951
 1627TIP3    H226373   0.626   0.352  17.173  2.2867 -1.7807  0.5575
 1628TIP3   OH226374   0.628   5.493   0.368 -0.1873 -0.7918 -0.2563
 1628TIP3    H126375   0.603   5.571   0.318 -0.0809 -1.8206 -2.0310
 1628TIP3    H226376   0.687   5.445   0.309  2.7301 -0.4984  2.1549
 1629TIP3   OH226377   3.975   5.854   1.011  0.2038  0.0782  0.0916
 1629TIP3    H126378   3.965   5.888   1.100  0.6512  2.0628 -0.5589
 1629TIP3    H226379   3.931   5.919   0.956  0.5482 -0.7474 -1.1983
 1630TIP3   OH226380   2.516   5.601  13.459  0.2575 -1.0039 -0.3313
 1630TIP3    H126381   2.463   5.668  13.502 -1.7070 -2.8954  0.3956
 1630TIP3    H226382   2.477   5.591  13.372  2.0222  0.3544 -1.3451
 1631TIP3   OH226383   5.051   0.043  12.660  0.1030 -0.4266 -0.7622
 1631TIP3    H126384   5.097  -0.040  12.651  0.1078 -0.4079 -0.9078
 1631TIP3    H226385   5.112   0.108  12.624  0.9246 -0.0970  1.0949
 1632TIP3   OH226386   0.587   6.394   3.460  0.4036 -0.1357  0.2344
 1632TIP3    H126387   0.523   6.462   3.485  1.7891  2.5008 -2.7108
 1632TIP3    H226388   0.554   6.358   3.378 -0.0402 -2.8318  1.5011
 1633TIP3   OH226389   0.122   1.619  16.669  0.1105 -0.4805 -0.3589
 1633TIP3    H126390   0.194   1.659  16.621 -0.6160  0.0535 -1.0439
 1633TIP3    H226391   0.043   1.656  16.628 -0.5434 -0.1751  1.1062
 1634TIP3   OH226392   0.755   6.604   2.116 -0.1675 -0.0786 -0.2767
 1634TIP3    H126393   0.842   6.629   2.147 -0.6777  0.4358  0.8070
 1634TIP3    H226394   0.770   6.527   2.061  0.7553 -1.3415  1.6223
 1635TIP3   OH226395   6.550   2.245   2.730 -1.0025 -0.1985  0.0560
 1635TIP3    H126396   6.526   2.200   2.811 -0.7346 -1.5263 -0.5656
 1635TIP3    H226397   6.644   2.231   2.722 -0.7109  1.4006  0.3662
 1636TIP3   OH226398   3.994   5.887  16.149 -0.1751 -0.7309  0.0377
 1636TIP3    H126399   4.072   5.912  16.100 -1.0959  0.1557 -1.0491
 1636TIP3    H226400   4.016   5.804  16.190  0.8733 -1.1788 -1.3711
 1637TIP3   OH226401   2.443   2.963  13.974 -0.0986 -0.4275 -0.2364
 1637TIP3    H126402   2.532   2.959  14.007 -0.2938  0.0995  0.3784
 1637TIP3    H226403   2.445   2.915  13.891  0.6109 -0.9421  0.0768
 1638TIP3   OH226404   5.732   4.904  12.012 -0.1581  0.4029 -0.2411
 1638TIP3    H126405   5.762   4.830  12.064  0.3317 -0.1748 -1.3234
 1638TIP3    H226406   5.637   4.903  12.023 -0.0169  0.8710  1.3724
 1639TIP3   OH226407   4.384   1.172   4.327  0.1038 -0.1612 -0.0025
 1639TIP3    H126408   4.406   1.086   4.364  1.7061 -0.6280 -1.9041
 1639TIP3    H226409   4.431   1.234   4.382  0.2454 -0.6151  0.4001
 1640TIP3   OH226410   1.223   4.017  12.354 -0.5131  0.2197 -0.4862
 1640TIP3    H126411   1.143   3.973  12.384 -0.5966 -0.2764 -1.3966
 1640TIP3    H226412   1.258   4.058  12.433 -3.2658  3.0480 -0.5228
 1641TIP3   OH226413   5.882   2.261   5.914 -0.0079 -0.4779 -0.1780
 1641TIP3    H126414   5.918   2.172   5.912  0.6087 -0.2266 -1.0176
 1641TIP3    H226415   5.797   2.253   5.871  0.2406 -0.5940 -0.6638
 1642TIP3   OH226416   5.594   6.319   3.432  0.3134 -0.5157  0.1490
 1642TIP3    H126417   5.593   6.251   3.500  0.4871 -0.9082 -0.2396
 1642TIP3    H226418   5.686   6.347   3.428  0.3294 -0.5977 -0.0312
 1643TIP3   OH226419   1.683   4.137   2.829 -0.2383 -0.1498  0.1671
 1643TIP3    H126420   1.646   4.055   2.797  0.5170 -0.3055 -0.3308
 1643TIP3    H226421   1.761   4.111   2.877  0.1054  0.2900 -0.1469
 1644TIP3   OH226422   5.773   6.717  11.901  0.4900  0.0083 -0.6829
 1644TIP3    H126423   5.821   6.697  11.981  0.7204 -1.5191 -1.1630
 1644TIP3    H226424   5.686   6.679  11.915 -0.4876  2.3420 -0.0108
 1645TIP3   OH226425   6.634   1.477  15.493 -0.5563 -0.3262 -0.2490
 1645TIP3    H126426   6.707   1.432  15.536 -1.4010  0.7821  2.5985
 1645TIP3    H226427   6.561   1.415  15.497 -0.8922  0.1082  0.9053
 1646TIP3   OH226428   4.791   3.507  16.012  0.8226 -0.0870  0.4106
 1646TIP3    H126429   4.836   3.475  15.934  0.4975 -0.9866  0.5818
 1646TIP3    H226430   4.735   3.578  15.981 -0.6354 -1.5655 -0.5086
 1647TIP3   OH226431   1.285   0.960   5.381 -0.1794 -0.0427  0.1532
 1647TIP3    H126432   1.189   0.956   5.385 -0.3012  0.1114 -1.5832
 1647TIP3    H226433   1.303   1.038   5.328  0.9316  0.1902  0.8503
 1648TIP3   OH226434   2.733   3.145   5.206 -0.4078  0.3957  0.0215
 1648TIP3    H126435   2.797   3.098   5.259 -0.5159 -1.8350 -1.6889
 1648TIP3    H226436   2.785   3.200   5.148 -0.1238 -0.0445 -0.1432
 1649TIP3   OH226437   1.871   6.504  16.485  0.2927 -0.4466 -0.1434
 1649TIP3    H126438   1.820   6.423  16.480 -1.7549  0.7528  0.6597
 1649TIP3    H226439   1.833   6.561  16.419  1.8494 -0.1418 -0.8406
 1650TIP3   OH226440   2.805   4.592  14.854 -0.3307  0.6635  0.4162
 1650TIP3    H126441   2.822   4.549  14.938  0.0374 -0.3833 -0.1710
 1650TIP3    H226442   2.874   4.658  14.847 -0.2181  0.5925  0.8241
 1651TIP3   OH226443   0.941   6.151   1.108 -0.1629  0.7073  0.7211
 1651TIP3    H126444   1.022   6.126   1.153 -0.4400  2.1039  2.0818
 1651TIP3    H226445   0.922   6.077   1.050  1.3153 -0.2715  1.4255
 1652TIP3   OH226446   5.319   5.372  15.516  0.1878  0.0453  0.2255
 1652TIP3    H126447   5.413   5.390  15.520  0.1248  0.2834  0.8123
 1652TIP3    H226448   5.310   5.279  15.537  0.4563 -0.5456 -2.0489
 1653TIP3   OH226449   1.056   5.377   0.178 -0.2366 -0.4404  0.3354
 1653TIP3    H126450   1.075   5.409   0.266 -1.3223 -1.2234  0.8685
 1653TIP3    H226451   1.096   5.291   0.174  2.9716  0.9459 -1.2154
 1654TIP3   OH226452   0.797   3.306  12.946  0.7216 -0.1764  0.1870
 1654TIP3    H126453   0.755   3.346  13.021  1.3499 -0.2624  0.5900
 1654TIP3    H226454   0.784   3.212  12.959  0.1205 -0.1590 -0.2402
 1655TIP3   OH226455   3.967   3.239   5.525  0.5564 -0.1666 -0.2155
 1655TIP3    H126456   3.915   3.317   5.508  1.5141  0.0854 -2.2150
 1655TIP3    H226457   4.049   3.254   5.479  2.2239 -0.8133  2.3361
 1656TIP3   OH226458   3.237   5.300  13.332 -0.0256  0.0160  0.3664
 1656TIP3    H126459   3.216   5.365  13.398  0.9097  0.4388  0.2560
 1656TIP3    H226460   3.198   5.335  13.251  1.7341  1.2354 -0.0237
 1657TIP3   OH226461   1.517   1.591   6.415 -0.5616 -0.2107 -0.4063
 1657TIP3    H126462   1.583   1.558   6.476 -0.5603 -0.0295 -0.3088
 1657TIP3    H226463   1.457   1.641   6.470 -0.6536 -0.1861 -0.5284
 1658TIP3   OH226464   0.879   2.807   0.427 -0.1361  0.2122 -0.4048
 1658TIP3    H126465   0.890   2.823   0.521  1.1369  0.2911 -0.5397
 1658TIP3    H226466   0.912   2.718   0.415 -0.4702  0.1363 -0.7478
 1659TIP3   OH226467   2.001   2.313  16.779 -0.4869  0.0730  0.5766
 1659TIP3    H126468   1.975   2.221  16.779 -2.6188  0.5851  2.8066
 1659TIP3    H226469   1.981   2.343  16.690 -1.4456 -1.2142  0.3264
 1660TIP3   OH226470   1.705   0.452   4.586  0.7065  0.2670  0.0872
 1660TIP3    H126471   1.749   0.397   4.521 -0.4407  0.1779 -0.6390
 1660TIP3    H226472   1.761   0.447   4.663  0.0477 -2.9260  0.4891
 1661TIP3   OH226473   5.903   5.915  14.000  0.4772 -0.1559  0.3041
 1661TIP3    H126474   5.921   5.821  13.995  0.0970 -0.3270  1.6991
 1661TIP3    H226475   5.882   5.940  13.910 -1.6085 -1.8718  0.2194
 1662TIP3   OH226476   0.312   1.448   0.296  0.4267 -0.3065 -0.2471
 1662TIP3    H126477   0.333   1.448   0.389 -0.9151  1.2111  0.0866
 1662TIP3    H226478   0.392   1.416   0.253  1.3138 -0.3113  1.3538
 1663TIP3   OH226479   4.809   0.869  14.019  0.3519 -0.0228 -0.0325
 1663TIP3    H126480   4.751   0.796  13.998 -1.0258  0.9483  0.2679
 1663TIP3    H226481   4.751   0.939  14.048  1.5437  1.4856 -1.0808
 1664TIP3   OH226482   1.487   5.426  13.438 -0.5073 -0.0384 -0.4646
 1664TIP3    H126483   1.538   5.489  13.386  1.7212 -1.0151  0.4246
 1664TIP3    H226484   1.547   5.396  13.505 -2.0610 -1.8517  0.2017
 1665TIP3   OH226485   2.460   2.284  12.388  0.2456 -0.1389 -0.1836
 1665TIP3    H126486   2.486   2.375  12.402  0.3339 -0.2281  0.2390
 1665TIP3    H226487   2.536   2.244  12.345 -0.2600  0.2877 -1.5438
 1666TIP3   OH226488   1.676   2.692  13.096  0.0303 -0.5264  0.5759
 1666TIP3    H126489   1.699   2.777  13.059  2.1410 -1.4946 -0.5283
 1666TIP3    H226490   1.581   2.696  13.109  0.3000  2.6909  2.5501
 1667TIP3   OH226491   3.634   5.754   3.088 -0.0403  0.2622  0.1917
 1667TIP3    H126492   3.638   5.754   2.992 -1.8791 -0.4562  0.0711
 1667TIP3    H226493   3.697   5.687   3.114 -0.5139 -0.5258 -0.6074
 1668TIP3   OH226494   6.824   5.736  11.760  0.1941 -0.1130 -0.6278
 1668TIP3    H126495   6.889   5.774  11.701 -1.1092  3.3104 -0.0901
 1668TIP3    H226496   6.744   5.732  11.708 -0.4110  0.7712  0.2014
 1669TIP3   OH226497   4.305   6.695  11.874  0.0203 -0.0766  0.1956
 1669TIP3    H126498   4.306   6.744  11.956 -0.1956 -2.4940  1.7479
 1669TIP3    H226499   4.397   6.682  11.853  0.1454 -1.5260  1.4561
 1670TIP3   OH226500   3.939   0.396   0.751 -0.0105  0.0616 -0.4020
 1670TIP3    H126501   3.958   0.302   0.747 -0.9005 -0.1338 -0.3412
 1670TIP3    H226502   3.859   0.401   0.804 -0.0944  0.8361 -0.5981
 1671TIP3   OH226503   5.759   2.995  14.825 -0.2519  0.6714 -0.1424
 1671TIP3    H126504   5.743   3.090  14.828  0.1243  0.7375 -0.1437
 1671TIP3    H226505   5.774   2.976  14.733 -0.2119  0.6303 -0.1276
 1672TIP3   OH226506   3.112   5.457   5.375 -0.0521  0.0247  0.0317
 1672TIP3    H126507   3.042   5.433   5.314 -0.5984 -0.4613  0.8277
 1672TIP3    H226508   3.109   5.552   5.379 -0.7723  0.0023  0.1677
 1673TIP3   OH226509   1.439   1.762   0.797  0.8033 -0.2968 -0.0524
 1673TIP3    H126510   1.365   1.822   0.786  0.7982 -0.4458 -0.8625
 1673TIP3    H226511   1.446   1.717   0.713  1.9904 -0.0889 -0.0810
 1674TIP3   OH226512   6.110   2.285   4.562 -0.5739 -0.5273 -0.3972
 1674TIP3    H126513   6.057   2.361   4.539 -0.3919  0.1824  1.3587
 1674TIP3    H226514   6.116   2.235   4.481 -1.2743  0.9700 -1.4292
 1675TIP3   OH226515   3.068   2.950  12.859  0.0414 -0.1993  0.2218
 1675TIP3    H126516   3.112   2.957  12.775  0.4562  2.2193  0.5678
 1675TIP3    H226517   3.103   3.023  12.911 -1.3886 -0.6441  1.9221
 1676TIP3   OH226518   5.171   5.388  12.291  0.3856 -0.2693  0.7065
 1676TIP3    H126519   5.161   5.401  12.385 -2.8948  1.4476  0.2550
 1676TIP3    H226520   5.121   5.308  12.273 -0.6566  0.4539  0.2460
 1677TIP3   OH226521   2.406   2.995  14.296  0.2431 -0.3080 -0.3588
 1677TIP3    H126522   2.422   3.071  14.240 -0.7358  2.2832  2.5926
 1677TIP3    H226523   2.492   2.954  14.305  1.1568  1.3689 -0.8397
 1678TIP3   OH226524   5.911   3.371  15.357  0.1340 -0.8121  0.1848
 1678TIP3    H126525   5.936   3.389  15.267 -0.1138 -0.0545  0.2619
 1678TIP3    H226526   5.993   3.376  15.406 -0.1063  1.9585  0.4864
 1679TIP3   OH226527   0.758   4.495  16.632  0.2191  0.5175 -0.4752
 1679TIP3    H126528   0.714   4.536  16.707  2.2506 -0.4084  1.3276
 1679TIP3    H226529   0.789   4.569  16.579 -0.3992  1.2097  0.0991
 1680TIP3   OH226530   6.430   5.924  13.487 -0.1524 -0.0312 -0.2116
 1680TIP3    H126531   6.475   5.956  13.408 -0.5010  0.0760 -0.3704
 1680TIP3    H226532   6.367   5.993  13.507  1.0062  0.6894  1.0840
 1681TIP3   OH226533   2.547   1.230  14.938  0.1860 -0.0715  0.2872
 1681TIP3    H126534   2.601   1.265  15.009 -0.3882  0.1453  0.6243
 1681TIP3    H226535   2.469   1.284  14.939 -0.3587 -0.8415  0.2756
 1682TIP3   OH226536   2.652   0.647  13.431  0.3724  0.2655 -0.2686
 1682TIP3    H126537   2.672   0.739  13.415  0.2764  0.1189 -1.2711
 1682TIP3    H226538   2.556   0.642  13.430  0.3867 -0.0170 -1.2862
 1683TIP3   OH226539   6.142   1.216  15.262  0.3977  0.3089  0.4167
 1683TIP3    H126540   6.202   1.267  15.316  0.5209  0.3061  0.2808
 1683TIP3    H226541   6.058   1.262  15.268  0.4372  0.3668  0.5251
 1684TIP3   OH226542   0.310   5.473  11.683 -0.0011  0.3375  0.8509
 1684TIP3    H126543   0.322   5.499  11.591 -0.4821 -1.0969  0.3501
 1684TIP3    H226544   0.373   5.527  11.731  1.8230 -0.3693 -0.5888
 1685TIP3   OH226545   3.131   1.355  11.969 -0.0112  0.4687  0.2658
 1685TIP3    H126546   3.135   1.414  12.044 -1.5377  0.1815  0.6157
 1685TIP3    H226547   3.222   1.331  11.951  0.4038  0.7996  1.8223
 1686TIP3   OH226548   2.264   2.793   2.742  0.3001 -0.2019  0.8345
 1686TIP3    H126549   2.256   2.858   2.812  1.4834  0.5673  0.2845
 1686TIP3    H226550   2.345   2.746   2.762 -1.2339 -2.5212  2.0073
 1687TIP3   OH226551   0.887   0.540  11.346 -0.2698  0.5506  0.3334
 1687TIP3    H126552   0.882   0.559  11.440  1.6876  1.8575  0.2235
 1687TIP3    H226553   0.955   0.473  11.339  1.1130  1.9607 -0.2903
 1688TIP3   OH226554   4.742   0.775   0.884  0.5433 -0.3061  0.1164
 1688TIP3    H126555   4.664   0.824   0.907 -0.1061 -1.2103 -0.1312
 1688TIP3    H226556   4.788   0.832   0.822 -0.1307  0.0470 -0.0660
 1689TIP3   OH226557   5.393   2.806  15.666  0.7007  0.3398  0.9115
 1689TIP3    H126558   5.411   2.754  15.744  2.0517  0.8778  0.9775
 1689TIP3    H226559   5.453   2.880  15.671 -0.7553  1.6060  0.5040
 1690TIP3   OH226560   1.466   1.666  15.217 -0.0559  0.1950 -0.1388
 1690TIP3    H126561   1.402   1.710  15.161  0.4617  0.5943 -0.4243
 1690TIP3    H226562   1.474   1.724  15.293  0.3003  0.3715 -0.3117
 1691TIP3   OH226563   4.772   2.312  16.472  0.6340 -0.1611 -0.4561
 1691TIP3    H126564   4.742   2.225  16.445  1.8705 -0.5837 -0.5510
 1691TIP3    H226565   4.692   2.362  16.487 -0.1865 -1.9094  1.5859
 1692TIP3   OH226566   2.636   3.433   6.096  0.1394  0.0844 -0.2916
 1692TIP3    H126567   2.635   3.432   6.191 -0.1769  0.5339 -0.2916
 1692TIP3    H226568   2.683   3.353   6.072  0.8737  0.3426  0.2481
 1693TIP3   OH226569   2.405   0.025   4.707 -0.0231  0.4899 -0.2236
 1693TIP3    H126570   2.356  -0.026   4.771  0.4087  1.7707  1.1899
 1693TIP3    H226571   2.356   0.015   4.625 -0.0186 -2.0334 -0.0083
 1694TIP3   OH226572   0.183   2.192   0.926 -0.5032 -0.2433  0.0361
 1694TIP3    H126573   0.178   2.141   1.008 -0.7022  0.4507  0.4612
 1694TIP3    H226574   0.188   2.125   0.858  0.4246 -0.8404  0.6529
 1695TIP3   OH226575   1.618   1.862   5.346 -0.0677  0.2512 -0.0303
 1695TIP3    H126576   1.666   1.944   5.358 -1.9757  1.3966  0.0641
 1695TIP3    H226577   1.589   1.838   5.434 -0.1329 -0.1632 -0.1598
 1696TIP3   OH226578   0.986   6.744  16.742 -0.1378  0.4617  0.4026
 1696TIP3    H126579   0.896   6.771  16.754 -0.1863  0.6289 -0.3372
 1696TIP3    H226580   0.994   6.722  16.649  0.9372  1.7796  0.1509
 1697TIP3   OH226581   2.384   2.038  17.165  0.0481 -0.6459  0.4795
 1697TIP3    H126582   2.451   2.001  17.107 -0.9017 -0.8431 -0.5287
 1697TIP3    H226583   2.366   1.968  17.228  2.1463  0.0867  2.0075
 1698TIP3   OH226584   4.079   1.706  13.562 -0.0144  0.1965 -0.8113
 1698TIP3    H126585   4.085   1.797  13.591  0.5363  0.1605 -0.8035
 1698TIP3    H226586   4.049   1.711  13.471 -0.7000  0.3510 -0.5868
 1699TIP3   OH226587   3.469   0.871  14.005 -0.1276 -0.3866  0.1894
 1699TIP3    H126588   3.408   0.858  13.932  0.2015  0.4877 -0.2572
 1699TIP3    H226589   3.414   0.875  14.083 -0.5852 -0.2328 -0.1409
 1700TIP3   OH226590   2.347   0.353   3.754  0.1390 -0.4550  0.0797
 1700TIP3    H126591   2.390   0.337   3.838 -0.1350  0.2365  0.3635
 1700TIP3    H226592   2.402   0.419   3.711  1.3471 -2.1614 -1.1367
 1701TIP3   OH226593   2.129   3.379  16.746 -0.2187 -0.1581  0.3038
 1701TIP3    H126594   2.165   3.291  16.737 -0.5355 -0.1444 -1.4131
 1701TIP3    H226595   2.143   3.402  16.838  1.1105 -1.4522  0.4513
 1702TIP3   OH226596   2.736   4.286  15.093 -0.3847  0.0222  0.1118
 1702TIP3    H126597   2.802   4.233  15.050  1.2051  2.2499 -0.4016
 1702TIP3    H226598   2.660   4.229  15.101  0.4978 -1.6317 -2.2819
 1703TIP3   OH226599   4.641   6.237  11.314 -0.9821 -0.1536 -0.0928
 1703TIP3    H126600   4.705   6.173  11.346 -1.8203 -1.6019 -1.1864
 1703TIP3    H226601   4.605   6.276  11.393  0.0405 -0.5281  0.5865
 1704TIP3   OH226602   1.934   2.459  15.917  0.0174 -0.2424 -0.1349
 1704TIP3    H126603   1.882   2.497  15.847  0.5760 -0.7758 -0.8458
 1704TIP3    H226604   1.979   2.533  15.957  1.3987 -0.1534 -1.7512
 1705TIP3   OH226605   2.902   4.965  11.639  0.2396 -0.1205 -0.3312
 1705TIP3    H126606   2.837   5.013  11.587  1.4480  1.0420 -0.8070
 1705TIP3    H226607   2.863   4.878  11.650 -1.6193  0.6757 -0.1888
 1706TIP3   OH226608   3.236   3.991  16.870 -0.4178 -0.5672 -0.0438
 1706TIP3    H126609   3.206   3.912  16.914 -0.6679  0.0196  0.8545
 1706TIP3    H226610   3.167   4.055  16.885  1.5692  1.1236  2.8851
 1707TIP3   OH226611   6.530   0.773  16.917  0.6038  0.2205  0.2490
 1707TIP3    H126612   6.527   0.819  17.001  0.9349  0.1364  0.3103
 1707TIP3    H226613   6.541   0.681  16.941  0.7513  0.2022  0.1131
 1708TIP3   OH226614   6.735   2.274  15.519  0.1215 -0.2710  0.1148
 1708TIP3    H126615   6.691   2.307  15.441  0.4791  1.2986  0.5265
 1708TIP3    H226616   6.771   2.353  15.560  1.3314 -1.2522  0.9979
 1709TIP3   OH226617   2.995   5.746   3.287  0.4560 -0.3170  0.5049
 1709TIP3    H126618   2.971   5.836   3.264 -0.4386 -0.0935  2.1394
 1709TIP3    H226619   3.008   5.702   3.203 -3.0428  0.2960 -0.5034
 1710TIP3   OH226620   1.280   3.393   0.867 -0.7547 -0.1215  0.3341
 1710TIP3    H126621   1.298   3.398   0.961 -1.2777  0.7681  0.3961
 1710TIP3    H226622   1.265   3.484   0.840  1.6501 -0.0446 -1.0846
 1711TIP3   OH226623   4.750   0.634   2.663 -0.1879  0.3314  0.6410
 1711TIP3    H126624   4.819   0.589   2.615  0.0279  0.0482  1.2131
 1711TIP3    H226625   4.679   0.642   2.600  0.0469 -0.1417  0.3076
 1712TIP3   OH226626   6.203   4.817  15.224  0.6774  0.6104 -0.5325
 1712TIP3    H126627   6.186   4.862  15.306  0.1791  0.1330 -0.3646
 1712TIP3    H226628   6.276   4.758  15.243 -0.7065 -0.9700  0.1565
 1713TIP3   OH226629   2.522   1.225  15.298  0.0929 -0.4238  0.6803
 1713TIP3    H126630   2.554   1.308  15.334 -0.3077 -0.3922  0.9710
 1713TIP3    H226631   2.441   1.249  15.252  1.0105 -0.3260 -0.9382
 1714TIP3   OH226632   1.490   4.981  14.699  0.0504 -0.0317  0.1710
 1714TIP3    H126633   1.458   5.012  14.614  1.5343 -0.2786 -0.4990
 1714TIP3    H226634   1.501   5.061  14.751  0.1641  0.2205 -0.2349
 1715TIP3   OH226635   1.396   0.042   1.781  0.3368  0.6846 -0.2068
 1715TIP3    H126636   1.475  -0.001   1.749  0.2679  1.4325 -1.4390
 1715TIP3    H226637   1.414   0.135   1.772 -0.2340  0.8884  0.6567
 1716TIP3   OH226638   2.265   0.791  17.045 -0.1167  0.2209  0.0096
 1716TIP3    H126639   2.203   0.774  16.974  0.6269 -0.3355 -0.5238
 1716TIP3    H226640   2.219   0.764  17.125 -0.5073 -0.2997 -0.3910
 1717TIP3   OH226641   1.022   2.559  14.561  0.1921  0.3057  0.6372
 1717TIP3    H126642   0.955   2.519  14.616  1.2971 -1.7450  0.5677
 1717TIP3    H226643   1.010   2.518  14.475  2.3934 -1.2203  0.9797
 1718TIP3   OH226644   5.204   2.682   2.589  0.0639 -0.3255  0.5304
 1718TIP3    H126645   5.143   2.608   2.596  0.6161 -1.0391 -1.6381
 1718TIP3    H226646   5.156   2.756   2.626 -0.8414 -1.5451  1.9336
 1719TIP3   OH226647   0.758   2.760  11.639 -0.4283 -0.3118 -0.0306
 1719TIP3    H126648   0.698   2.824  11.677  0.4150 -0.2409  1.2500
 1719TIP3    H226649   0.844   2.784  11.673  0.2273 -0.8583 -1.2271
 1720TIP3   OH226650   3.595   1.486  12.145 -0.2610 -0.0745 -0.6851
 1720TIP3    H126651   3.633   1.549  12.207  0.5396 -1.9003  0.7964
 1720TIP3    H226652   3.648   1.407  12.156 -1.0953 -0.9703 -2.6227
 1721TIP3   OH226653   0.509   1.408  15.907  0.3104  0.3473  0.1414
 1721TIP3    H126654   0.439   1.344  15.894 -1.8505  2.5813  0.1293
 1721TIP3    H226655   0.491   1.446  15.993  1.5788  0.9186  0.1729
 1722TIP3   OH226656   2.227   0.643   4.302 -0.3561  0.0499 -0.3921
 1722TIP3    H126657   2.245   0.647   4.208 -1.1325  0.6146 -0.5258
 1722TIP3    H226658   2.304   0.684   4.342  1.3118 -2.6591 -0.5705
 1723TIP3   OH226659   4.944   1.066  11.560  0.1099  0.9069  0.7551
 1723TIP3    H126660   4.955   1.153  11.522 -0.1139  0.3191 -0.7244
 1723TIP3    H226661   4.902   1.015  11.490  1.3753 -0.7253  1.1437
 1724TIP3   OH226662   2.726   5.779   3.823  0.3988 -0.1755  0.3628
 1724TIP3    H126663   2.750   5.826   3.903  1.0022  0.5596 -0.2305
 1724TIP3    H226664   2.800   5.720   3.807  0.7613  0.4118 -0.1938
 1725TIP3   OH226665   3.676   6.315   5.696  0.0136  0.7923 -0.0281
 1725TIP3    H126666   3.583   6.304   5.716 -0.0417  0.5368 -0.4124
 1725TIP3    H226667   3.715   6.230   5.718 -0.3147 -0.0736 -2.4651
 1726TIP3   OH226668   2.773   4.499  12.232 -0.1511 -0.3097  0.1753
 1726TIP3    H126669   2.819   4.540  12.305 -0.0085  0.7491 -0.5021
 1726TIP3    H226670   2.737   4.571  12.181  0.5650 -0.9712 -1.3463
 1727TIP3   OH226671   3.979   2.515  11.319 -0.1624  0.7367 -0.2155
 1727TIP3    H126672   3.956   2.442  11.376 -1.4541  1.0116 -0.3491
 1727TIP3    H226673   3.935   2.495  11.236  0.4994  1.0599 -0.6537
 1728TIP3   OH226674   3.413   0.479   3.127 -0.2447  0.1484 -0.2877
 1728TIP3    H126675   3.446   0.538   3.195 -0.1913  0.9215 -0.9677
 1728TIP3    H226676   3.490   0.429   3.100 -0.5544 -1.2172  1.2260
 1729TIP3   OH226677   3.760   3.380   0.171 -0.2053 -0.1837 -0.0347
 1729TIP3    H126678   3.694   3.442   0.203  1.2448  0.4769  1.8578
 1729TIP3    H226679   3.734   3.296   0.210  0.0511  0.0732  0.7065
 1730TIP3   OH226680   0.612   5.594   3.308 -0.2522 -0.0991 -0.7339
 1730TIP3    H126681   0.638   5.652   3.236  0.7930 -0.5223 -0.7260
 1730TIP3    H226682   0.695   5.571   3.350 -0.8216 -0.1262  0.4032
 1731TIP3   OH226683   0.196   4.062   3.891 -0.7650  0.2462  0.5820
 1731TIP3    H126684   0.199   4.036   3.983  1.2981 -2.1377 -0.0357
 1731TIP3    H226685   0.140   3.997   3.849  0.5124 -0.3750 -0.2364
 1732TIP3   OH226686   0.039   2.426   2.348  0.6231 -0.2567 -0.4368
 1732TIP3    H126687  -0.055   2.443   2.357  0.3048 -2.2765  0.4957
 1732TIP3    H226688   0.080   2.478   2.417  0.0192 -0.5941  0.1897
 1733TIP3   OH226689   5.590   6.293   1.787  0.4168  0.8636 -0.2185
 1733TIP3    H126690   5.615   6.363   1.726  0.3186  0.5950 -0.5710
 1733TIP3    H226691   5.577   6.338   1.871  0.6693  1.2203 -0.3645
 1734TIP3   OH226692   4.319   5.163  14.620  0.2266 -0.4105 -0.0681
 1734TIP3    H126693   4.298   5.234  14.680 -0.4644 -1.0795  0.4913
 1734TIP3    H226694   4.389   5.115  14.664 -0.4160 -1.0169  0.3039
 1735TIP3   OH226695   6.151   1.564  16.664  0.1215 -0.3047 -0.4519
 1735TIP3    H126696   6.088   1.551  16.593 -0.4541  0.8539 -0.1719
 1735TIP3    H226697   6.104   1.539  16.744 -0.5202  1.9317 -0.0693
 1736TIP3   OH226698   6.695   3.398  13.327 -0.3230  0.2836  0.3200
 1736TIP3    H126699   6.637   3.395  13.251  1.6450  1.8019 -1.3520
 1736TIP3    H226700   6.658   3.465  13.384 -1.1434  0.0071  0.1215
 1737TIP3   OH226701   0.297   4.810  13.726 -0.2182  0.6573  0.0872
 1737TIP3    H126702   0.347   4.829  13.646  0.3041  0.7796  0.4397
 1737TIP3    H226703   0.232   4.880  13.731  0.8303  1.6205  0.6591
 1738TIP3   OH226704   0.763   6.633   3.407  0.2711  0.4351 -0.9048
 1738TIP3    H126705   0.740   6.541   3.422  2.5263  0.0779  0.8313
 1738TIP3    H226706   0.819   6.630   3.329  1.3869  0.1352 -0.1079
 1739TIP3   OH226707   4.279   3.975   2.102  0.1516  0.2203  0.1795
 1739TIP3    H126708   4.354   3.992   2.159 -0.2838  1.5410  0.3823
 1739TIP3    H226709   4.209   4.030   2.137 -1.3617 -1.9462  0.8245
 1740TIP3   OH226710   0.664   2.472  11.910  0.5446  0.3097 -0.7298
 1740TIP3    H126711   0.729   2.462  11.840 -0.1774  0.0093 -1.3788
 1740TIP3    H226712   0.593   2.521  11.869  0.2001  0.3001 -0.1468
 1741TIP3   OH226713   5.463   5.860   0.016 -0.1104 -0.1944  0.1985
 1741TIP3    H126714   5.495   5.924   0.079  0.9719  0.1899 -0.7160
 1741TIP3    H226715   5.439   5.912  -0.061 -0.5617 -0.7433 -0.0392
 1742TIP3   OH226716   5.535   1.948   1.583 -0.3517  0.5284  0.1152
 1742TIP3    H126717   5.478   1.871   1.587 -0.5867  0.6540 -0.6017
 1742TIP3    H226718   5.516   1.987   1.498  2.9080 -1.0746 -1.5422
 1743TIP3   OH226719   5.389   6.382   3.190 -0.2062 -0.0573  0.3032
 1743TIP3    H126720   5.476   6.344   3.206  0.1959  0.0058 -1.5403
 1743TIP3    H226721   5.407   6.458   3.134 -1.5900 -1.1644 -1.7501
 1744TIP3   OH226722   6.106   1.851  15.567 -0.3483  0.1649 -0.5062
 1744TIP3    H126723   6.017   1.821  15.551 -0.0597 -1.4823  0.7439
 1744TIP3    H226724   6.103   1.889  15.655  0.5560 -1.6785  0.3658
 1745TIP3   OH226725   4.357   1.800  16.486 -0.3822 -0.6880 -0.2932
 1745TIP3    H126726   4.323   1.736  16.548 -1.1984  0.4633  0.5041
 1745TIP3    H226727   4.368   1.880  16.538  1.3634 -0.3761 -1.0624
 1746TIP3   OH226728   0.614   4.465   4.402 -0.3012 -0.2560  0.9312
 1746TIP3    H126729   0.700   4.422   4.407  0.2878  0.8432  0.5633
 1746TIP3    H226730   0.627   4.549   4.447 -0.7065  0.6493 -0.5750
 1747TIP3   OH226731   6.191   0.296  14.132 -0.8618 -0.3234 -0.0649
 1747TIP3    H126732   6.283   0.270  14.129 -0.5693  0.7164 -0.5274
 1747TIP3    H226733   6.184   0.366  14.067 -1.8359  0.0424  0.4185
 1748TIP3   OH226734   0.034   4.578  12.455  0.0047  0.3202 -0.2258
 1748TIP3    H126735   0.055   4.655  12.403 -0.0651  0.5197  0.0374
 1748TIP3    H226736  -0.046   4.602  12.502  0.2373  0.2622  0.2086
 1749TIP3   OH226737   5.296   3.888   6.124  0.1307  0.3105  0.1990
 1749TIP3    H126738   5.289   3.934   6.208  0.5388 -1.1669  1.0914
 1749TIP3    H226739   5.349   3.811   6.144  0.5152  0.0978 -1.5127
 1750TIP3   OH226740   1.098   2.024   2.727  0.7417 -0.2518 -0.0622
 1750TIP3    H126741   1.180   2.073   2.727  0.3178  0.9626  4.6880
 1750TIP3    H226742   1.118   1.942   2.773 -0.6268  0.1294  1.3176
 1751TIP3   OH226743   2.466   3.972   3.793 -0.6040 -0.8118  0.7087
 1751TIP3    H126744   2.457   4.066   3.784 -1.4748 -1.0170 -0.9674
 1751TIP3    H226745   2.413   3.949   3.869 -1.6813 -0.1292  0.1763
 1752TIP3   OH226746   6.318   1.706   0.403  0.1770  0.6053 -0.3244
 1752TIP3    H126747   6.382   1.660   0.458  0.9353  1.8613 -0.1081
 1752TIP3    H226748   6.291   1.641   0.339  0.7494 -0.3217  0.3363
 1753TIP3   OH226749   3.404   1.986  16.388 -0.2521 -0.2299 -0.8215
 1753TIP3    H126750   3.347   2.062  16.404 -0.0694 -0.5223  1.7351
 1753TIP3    H226751   3.343   1.912  16.383 -0.2547 -0.2787 -0.1870
 1754TIP3   OH226752   1.289   2.475  11.398  0.3624 -0.0884  0.2006
 1754TIP3    H126753   1.234   2.497  11.473  1.4419 -1.1907  1.3663
 1754TIP3    H226754   1.366   2.530  11.408  0.2466  0.1933 -0.4405
 1755TIP3   OH226755   3.728   4.025   0.218 -0.6396  0.2530 -0.5624
 1755TIP3    H126756   3.782   3.976   0.280 -0.8390  1.6417  0.7497
 1755TIP3    H226757   3.785   4.094   0.185 -0.3929 -0.7465 -2.3302
 1756TIP3   OH226758   2.786   1.220   1.053 -0.6010 -0.2929 -0.1716
 1756TIP3    H126759   2.881   1.225   1.041 -0.6741  0.9653 -0.3349
 1756TIP3    H226760   2.767   1.126   1.053  0.5495 -0.5491 -0.8932
 1757TIP3   OH226761   5.736   6.730  14.967  0.0732 -0.7756 -0.6131
 1757TIP3    H126762   5.737   6.815  14.923  0.1793 -0.6875 -0.4393
 1757TIP3    H226763   5.748   6.750  15.059  0.7167 -1.0223 -0.6359
 1758TIP3   OH226764   5.245   1.598  16.922  0.2408 -0.1170 -0.1059
 1758TIP3    H126765   5.334   1.562  16.927 -0.7167 -2.5813  1.6394
 1758TIP3    H226766   5.192   1.526  16.886 -1.3114  0.6269  0.5958
 1759TIP3   OH226767   6.387   5.113   1.390  0.5495 -0.0117  0.6077
 1759TIP3    H126768   6.411   5.036   1.441 -0.4577 -0.7496 -0.0180
 1759TIP3    H226769   6.302   5.092   1.352  1.4013  0.3539 -1.6804
 1760TIP3   OH226770   0.358   6.716   3.193  0.2085  0.0515  0.4538
 1760TIP3    H126771   0.397   6.754   3.271 -0.8968 -0.9882  1.5801
 1760TIP3    H226772   0.339   6.625   3.218 -0.8482 -0.0961 -0.7663
 1761TIP3   OH226773   2.489   6.451   5.685 -0.5175  0.0720  0.1038
 1761TIP3    H126774   2.516   6.362   5.708  0.4254  0.3386  0.0890
 1761TIP3    H226775   2.514   6.504   5.762 -0.4743  0.4276 -0.1526
 1762TIP3   OH226776   5.506   3.782   4.506  0.0106  0.1754  0.2940
 1762TIP3    H126777   5.600   3.784   4.489  0.0389  2.7019  0.3911
 1762TIP3    H226778   5.497   3.819   4.593 -1.0966  0.1931  0.1833
 1763TIP3   OH226779   0.320   4.201  12.879  0.1747  0.3308  0.4096
 1763TIP3    H126780   0.398   4.255  12.886  0.9073 -0.3111 -1.9778
 1763TIP3    H226781   0.348   4.123  12.831 -1.3657 -1.1564  1.7301
 1764TIP3   OH226782   3.637   6.728  16.910 -0.3254  0.2246 -0.2887
 1764TIP3    H126783   3.614   6.637  16.927  1.8514 -0.2314  0.4614
 1764TIP3    H226784   3.624   6.772  16.994 -0.0024  0.3143 -0.2879
 1765TIP3   OH226785   2.600   5.375   5.752 -0.2805  0.6507 -0.7103
 1765TIP3    H126786   2.519   5.424   5.741 -0.7647  0.0007 -0.1019
 1765TIP3    H226787   2.662   5.440   5.787 -0.3938  1.2541 -1.5872
 1766TIP3   OH226788   2.437   3.243  13.447  0.1915  0.3006 -0.6346
 1766TIP3    H126789   2.533   3.250  13.448  0.1750  0.6125  0.3260
 1766TIP3    H226790   2.418   3.176  13.382  1.3319 -3.2695  2.3587
 1767TIP3   OH226791   1.260   1.579   3.873  0.2034 -0.4809  0.0960
 1767TIP3    H126792   1.300   1.608   3.792  0.0985 -2.0390 -0.5532
 1767TIP3    H226793   1.224   1.492   3.853  1.5044 -1.5993  2.1810
 1768TIP3   OH226794   1.127   4.805   4.470  0.0002  0.3765  0.6987
 1768TIP3    H126795   1.210   4.793   4.517  0.2212  0.1022  0.2459
 1768TIP3    H226796   1.074   4.859   4.528  0.5231  0.6110  0.9654
 1769TIP3   OH226797   0.040   4.853  13.302  0.1243 -0.8393 -0.7139
 1769TIP3    H126798   0.058   4.786  13.234  0.2291  2.2163 -3.9954
 1769TIP3    H226799   0.127   4.880  13.331  0.1799 -0.3510 -1.3193
 1770TIP3   OH226800   1.790   0.597  16.087  0.6726 -0.0714  0.0961
 1770TIP3    H126801   1.713   0.540  16.083 -0.1581  1.0328 -0.3014
 1770TIP3    H226802   1.861   0.541  16.118 -0.3599 -1.0454  0.7442
 1771TIP3   OH226803   6.428   3.138  14.859  0.7017  0.3002  0.5585
 1771TIP3    H126804   6.460   3.060  14.815  0.5475  0.2655  0.5059
 1771TIP3    H226805   6.368   3.106  14.926 -0.2153  0.4154 -0.1829
 1772TIP3   OH226806   1.866   5.774  15.995 -0.1883 -0.2588  0.3172
 1772TIP3    H126807   1.832   5.684  15.986  1.4131 -0.8857  0.1313
 1772TIP3    H226808   1.923   5.770  16.071  1.7125 -0.0368 -1.0290
 1773TIP3   OH226809   0.926   1.639  17.201  0.2290  0.0279  0.0625
 1773TIP3    H126810   0.866   1.660  17.129 -1.8721 -0.5706  1.5441
 1773TIP3    H226811   0.994   1.707  17.195 -1.4401  1.7367 -0.7531
 1774TIP3   OH226812   6.520   4.779  12.082 -0.4054 -0.3960  0.1258
 1774TIP3    H126813   6.530   4.700  12.030 -2.3241  1.1178 -2.8136
 1774TIP3    H226814   6.608   4.815  12.089  0.3343 -2.1951  0.6408
 1775TIP3   OH226815   3.740   5.533   5.657  0.3785 -0.4293  0.4247
 1775TIP3    H126816   3.720   5.625   5.672  0.8762 -0.1196 -0.6850
 1775TIP3    H226817   3.835   5.529   5.647  0.4994 -1.2701  1.6907
 1776TIP3   OH226818   0.155   1.090   5.024 -0.1120 -0.1044 -0.4898
 1776TIP3    H126819   0.238   1.070   5.068 -0.2414  0.8234  0.2046
 1776TIP3    H226820   0.088   1.068   5.089 -0.3026  1.3537 -0.1551
 1777TIP3   OH226821   2.467   6.541   2.082 -0.4404 -0.4334 -0.3220
 1777TIP3    H126822   2.374   6.534   2.103 -0.0641 -2.1342  1.0153
 1777TIP3    H226823   2.512   6.507   2.159  1.3339  0.8897 -0.7043
 1778TIP3   OH226824   1.673   2.674  10.750  0.0660 -0.1161  0.2238
 1778TIP3    H126825   1.739   2.604  10.750 -1.2692 -1.4385  0.3854
 1778TIP3    H226826   1.604   2.642  10.809 -1.2785  0.6538 -0.8664
 1779TIP3   OH226827   4.273   5.138  15.237  0.6764 -0.4574  0.6609
 1779TIP3    H126828   4.258   5.067  15.299 -3.0207 -0.0108  0.4884
 1779TIP3    H226829   4.208   5.124  15.168  1.1477  1.9754 -0.3974
 1780TIP3   OH226830   4.162   5.078  16.497 -0.4209 -0.0873  0.4415
 1780TIP3    H126831   4.180   4.999  16.445 -0.5643  1.1400 -1.5824
 1780TIP3    H226832   4.223   5.073  16.570  2.5116 -0.0695 -1.8479
 1781TIP3   OH226833   4.614   1.753   5.315 -0.0547 -0.1281  0.2111
 1781TIP3    H126834   4.588   1.680   5.258 -1.0458  0.3824 -0.0021
 1781TIP3    H226835   4.703   1.731   5.342 -0.0622 -1.0443 -0.4599
 1782TIP3   OH226836   5.999   2.003   4.454  0.0811 -0.3900 -0.2702
 1782TIP3    H126837   5.990   1.995   4.549 -0.8853 -1.3040 -0.4283
 1782TIP3    H226838   6.089   1.975   4.436  0.4562  0.3107  0.4123
 1783TIP3   OH226839   0.627   3.909  13.789  0.1142 -0.4237  0.1089
 1783TIP3    H126840   0.632   3.814  13.792 -0.6648 -0.5129 -0.9284
 1783TIP3    H226841   0.533   3.929  13.794  0.2506  0.2821  0.0379
 1784TIP3   OH226842   3.230   3.499   3.898 -0.4424  0.0860  0.5588
 1784TIP3    H126843   3.167   3.551   3.949 -1.2688  0.7317 -1.0255
 1784TIP3    H226844   3.191   3.411   3.895 -1.0300  0.3528  0.0271
 1785TIP3   OH226845   3.970   4.288   6.103  0.0673 -0.0617 -0.1173
 1785TIP3    H126846   3.949   4.197   6.083 -1.9324  0.0118  1.3548
 1785TIP3    H226847   4.001   4.286   6.194  2.9710  0.3954 -0.9911
 1786TIP3   OH226848   2.773   0.817  13.082  0.4202 -0.3829  0.3073
 1786TIP3    H126849   2.731   0.731  13.089  0.1481 -0.2123  0.9118
 1786TIP3    H226850   2.817   0.816  12.998 -0.0363 -0.9174  0.0658
 1787TIP3   OH226851   4.422   5.690   3.260  0.4114  0.0784 -0.3669
 1787TIP3    H126852   4.349   5.750   3.250 -0.6915 -1.2058 -0.2316
 1787TIP3    H226853   4.453   5.704   3.350  0.1567  0.4207 -0.3335
 1788TIP3   OH226854   4.689   6.082  14.259  0.2670  0.2072  0.1718
 1788TIP3    H126855   4.743   6.044  14.190  1.3832  0.7793  0.7054
 1788TIP3    H226856   4.664   6.007  14.314 -0.6234 -0.2472 -0.8267
 1789TIP3   OH226857   0.487   6.227  15.416 -0.2821 -0.3160 -0.3425
 1789TIP3    H126858   0.440   6.161  15.468 -1.3437 -0.0923 -0.9767
 1789TIP3    H226859   0.496   6.187  15.330  2.2922 -1.0579  0.2048
 1790TIP3   OH226860   0.852   2.817  17.212  0.2494  0.2808 -0.9402
 1790TIP3    H126861   0.840   2.900  17.257 -0.5619  0.8184 -2.1208
 1790TIP3    H226862   0.944   2.794  17.229  0.3875  1.2346 -0.3226
 1791TIP3   OH226863   0.726   3.197  13.623 -0.3657 -0.0774  0.3505
 1791TIP3    H126864   0.775   3.279  13.628  0.1672 -0.3442 -0.3079
 1791TIP3    H226865   0.743   3.164  13.535 -1.3374 -0.4267  0.2725
 1792TIP3   OH226866   2.041   5.855  14.879 -0.8451 -0.3215  0.3394
 1792TIP3    H126867   1.950   5.827  14.885 -0.7708 -0.3159  3.3416
 1792TIP3    H226868   2.067   5.870  14.970  2.1316 -0.2219 -0.4126
 1793TIP3   OH226869   3.717   4.015  15.124  0.5410  0.1333  0.3716
 1793TIP3    H126870   3.661   4.084  15.087 -0.1895 -1.0126 -0.7227
 1793TIP3    H226871   3.657   3.942  15.140  1.8319 -1.4862 -1.7189
 1794TIP3   OH226872   3.757   6.595  10.436  0.3608 -0.1588  0.1735
 1794TIP3    H126873   3.811   6.517  10.450  0.0638 -0.3606  0.2038
 1794TIP3    H226874   3.688   6.589  10.502  0.3670  0.1610  0.2147
 1795TIP3   OH226875   0.309   6.752   2.294  0.2821  0.5421  0.6115
 1795TIP3    H126876   0.355   6.808   2.357 -0.0194  1.5456 -0.0297
 1795TIP3    H226877   0.376   6.724   2.232 -0.0477  2.6745 -0.8010
 1796TIP3   OH226878   3.977   3.023   3.645 -0.4082 -0.2923 -0.2516
 1796TIP3    H126879   3.970   2.994   3.736  2.0165  0.2646  0.1773
 1796TIP3    H226880   3.888   3.015   3.611 -1.0275 -2.3878  1.5732
 1797TIP3   OH226881   3.550   5.573  13.280 -0.1888 -0.3533 -0.5271
 1797TIP3    H126882   3.635   5.591  13.322  0.3013 -2.0911 -0.6822
 1797TIP3    H226883   3.489   5.632  13.324  1.1015  1.0026 -0.4659
 1798TIP3   OH226884   2.803   0.924  14.178 -0.4608 -0.2656 -0.0858
 1798TIP3    H126885   2.756   0.924  14.095 -1.9712  0.9850  0.7277
 1798TIP3    H226886   2.887   0.964  14.158 -0.0265 -1.7138 -1.3779
 1799TIP3   OH226887   4.077   3.537   1.387 -0.1254 -0.0514  0.5291
 1799TIP3    H126888   4.038   3.543   1.300  2.6475 -0.1463 -0.8236
 1799TIP3    H226889   4.096   3.627   1.411  2.3510 -0.1823 -0.6406
 1800TIP3   OH226890   3.839   5.027  15.797  0.2245 -0.5820 -0.4454
 1800TIP3    H126891   3.771   5.094  15.789  1.9669  1.4551  0.6030
 1800TIP3    H226892   3.867   5.011  15.708  0.8352  1.3383 -0.6571
 1801TIP3   OH226893   2.380   0.666  13.469  0.4336  0.6156 -0.4881
 1801TIP3    H126894   2.302   0.621  13.435 -1.1258  0.1071  3.2231
 1801TIP3    H226895   2.350   0.705  13.552  3.8315  1.6041  0.4168
 1802TIP3   OH226896   5.224   5.546   4.206 -0.5855 -0.0692 -0.3402
 1802TIP3    H126897   5.172   5.468   4.188 -2.3422  0.8847  0.3873
 1802TIP3    H226898   5.200   5.607   4.137  0.2802  0.0790 -0.5214
 1803TIP3   OH226899   2.424   2.066   4.050  0.1966  0.6098 -0.2128
 1803TIP3    H126900   2.477   2.068   4.130 -0.8368  1.5343  0.4801
 1803TIP3    H226901   2.380   1.981   4.051 -0.2990  0.8710  0.5392
 1804TIP3   OH226902   4.846   4.258   1.702  0.1744  0.0186 -0.3001
 1804TIP3    H126903   4.756   4.270   1.670  0.4475  0.4820 -0.9210
 1804TIP3    H226904   4.850   4.311   1.781 -0.1556 -0.1599 -0.1609
 1805TIP3   OH226905   2.594   5.538   0.163  0.2649 -0.5530  0.3741
 1805TIP3    H126906   2.532   5.497   0.223 -1.2325  1.8857  0.6473
 1805TIP3    H226907   2.540   5.566   0.089  1.0183  1.4853  0.5418
 1806TIP3   OH226908   3.011   1.076  14.098 -0.5197 -0.2067 -0.1112
 1806TIP3    H126909   3.077   1.145  14.101  1.0766 -1.7004  2.3999
 1806TIP3    H226910   3.011   1.047  14.007  1.4353  0.6279 -0.4194
 1807TIP3   OH226911   2.118   0.483  16.530  0.0331  0.3492  0.1039
 1807TIP3    H126912   2.034   0.448  16.500 -0.1965 -0.2575  1.3905
 1807TIP3    H226913   2.141   0.550  16.466 -0.7735 -0.4096 -1.0022
 1808TIP3   OH226914   3.631   4.405   1.856  0.0114 -0.4555 -0.4830
 1808TIP3    H126915   3.611   4.341   1.787  4.1095 -1.9729 -0.5264
 1808TIP3    H226916   3.673   4.477   1.810  0.6558 -0.4232  0.1348
 1809TIP3   OH226917   0.989   5.492  13.808 -0.3356 -0.7292 -0.1404
 1809TIP3    H126918   1.028   5.552  13.745  0.9880 -0.0676  1.2553
 1809TIP3    H226919   0.925   5.545  13.856  1.7693  0.0787  2.0090
 1810TIP3   OH226920   1.163   6.166   1.309  0.1757  0.1158  0.0018
 1810TIP3    H126921   1.209   6.083   1.293  0.2518  0.0565  0.4958
 1810TIP3    H226922   1.194   6.224   1.239 -1.4011 -0.8416 -1.5693
 1811TIP3   OH226923   1.251   5.778  17.115 -0.0722  0.2057  0.2267
 1811TIP3    H126924   1.271   5.860  17.160  0.7050  0.2561 -0.1989
 1811TIP3    H226925   1.210   5.724  17.182  1.1142  0.2645  1.0319
 1812TIP3   OH226926   3.508   4.487   4.404 -0.6116 -0.1201  0.0416
 1812TIP3    H126927   3.439   4.431   4.371 -0.3803 -0.0953 -0.4869
 1812TIP3    H226928   3.589   4.445   4.377 -0.4381  1.1726 -1.5800
 1813TIP3   OH226929   3.032   1.981   3.583 -0.0814  0.1226 -0.3915
 1813TIP3    H126930   2.941   2.008   3.570 -0.1781 -0.6356 -1.3978
 1813TIP3    H226931   3.072   1.990   3.497  0.2682 -1.4488 -0.4128
 1814TIP3   OH226932   5.504   2.483  14.568 -0.0288 -0.3632 -0.1161
 1814TIP3    H126933   5.464   2.550  14.513 -0.2728 -1.1857 -0.9701
 1814TIP3    H226934   5.462   2.402  14.542  1.7999 -1.1974 -0.6795
 1815TIP3   OH226935   5.939   5.326   4.533 -0.1256  0.3844  0.0923
 1815TIP3    H126936   5.895   5.242   4.546 -1.1255  0.3876 -2.7481
 1815TIP3    H226937   5.973   5.322   4.444  1.3273  2.3624  0.4935
 1816TIP3   OH226938   2.409   1.025  17.133 -0.1875 -0.3409  0.0089
 1816TIP3    H126939   2.369   0.945  17.099  0.3190 -1.1926  1.3034
 1816TIP3    H226940   2.393   1.021  17.228  2.5593 -0.5448  0.5504
 1817TIP3   OH226941   5.965   0.617  15.697 -0.1142 -0.7526  0.5552
 1817TIP3    H126942   5.895   0.580  15.750 -2.1190  1.9809  0.0390
 1817TIP3    H226943   6.021   0.663  15.760 -1.8931  1.5825  0.5655
 1818TIP3   OH226944   0.286   3.608   1.629 -0.1207  0.1647  0.5735
 1818TIP3    H126945   0.253   3.554   1.701 -1.7819  0.5801  0.1599
 1818TIP3    H226946   0.381   3.613   1.644 -0.2048 -1.2167  1.7177
 1819TIP3   OH226947   6.792   5.327  15.552  0.5924 -0.5079  0.2612
 1819TIP3    H126948   6.719   5.390  15.555 -0.1280 -1.2560 -0.6868
 1819TIP3    H226949   6.866   5.374  15.590 -0.2269  0.5001  0.6611
 1820TIP3   OH226950   6.690   6.187  16.470 -0.1724  0.5424 -0.4322
 1820TIP3    H126951   6.749   6.215  16.540 -1.0672 -0.1281  0.6217
 1820TIP3    H226952   6.617   6.248  16.475 -0.3262  0.3759 -0.6640
 1821TIP3   OH226953   2.248   1.465  16.394  0.2430  0.1874 -0.1813
 1821TIP3    H126954   2.205   1.539  16.436  0.0605  0.7196 -1.2613
 1821TIP3    H226955   2.191   1.442  16.321  0.4533 -0.8260 -0.0426
 1822TIP3   OH226956   2.099   4.639   1.827 -0.2335  0.6818 -0.5740
 1822TIP3    H126957   2.162   4.566   1.824 -0.2938  0.5954  0.0008
 1822TIP3    H226958   2.047   4.622   1.906  0.5837  2.0126  0.2999
 1823TIP3   OH226959   3.004   5.727   5.090  0.1206 -0.0149 -0.0309
 1823TIP3    H126960   2.980   5.634   5.086 -0.0114  0.0397 -0.5712
 1823TIP3    H226961   2.964   5.759   5.170  0.9874 -0.6552  0.6774
 1824TIP3   OH226962   4.476   2.803   0.712  0.4029  0.1128  0.3903
 1824TIP3    H126963   4.564   2.824   0.742  1.4869  1.2994 -3.1563
 1824TIP3    H226964   4.457   2.718   0.752  2.2509  0.7348  2.8397
 1825TIP3   OH226965   1.930   4.986   3.357 -0.2079  0.1935 -0.7408
 1825TIP3    H126966   1.953   4.946   3.440 -0.7774  1.7512  0.2114
 1825TIP3    H226967   1.880   4.919   3.310 -0.8281 -0.3408  0.6419
 1826TIP3   OH226968   6.644   3.793   3.535  0.6160 -0.1260 -0.6793
 1826TIP3    H126969   6.622   3.885   3.548  1.2870 -0.1427  0.6817
 1826TIP3    H226970   6.729   3.794   3.491  1.2533 -0.0752  0.5108
 1827TIP3   OH226971   3.314   5.060   2.932 -0.0933 -0.1352  0.4954
 1827TIP3    H126972   3.325   4.971   2.900 -0.0005 -0.5593  1.6700
 1827TIP3    H226973   3.331   5.115   2.855  1.5604 -1.0606  0.1651
 1828TIP3   OH226974   4.966   5.693   1.118 -0.1169 -0.0097 -0.4503
 1828TIP3    H126975   5.024   5.641   1.062  1.8647 -0.1150  1.5579
 1828TIP3    H226976   4.957   5.641   1.197 -0.8805  1.1941  0.2867
 1829TIP3   OH226977   3.402   2.258  12.065  0.1676 -0.2213  0.4858
 1829TIP3    H126978   3.333   2.268  12.000  0.7658  0.2799 -0.0855
 1829TIP3    H226979   3.397   2.166  12.092  0.7092 -0.7748 -1.1826
 1830TIP3   OH226980   0.783   3.342  14.234 -0.1772  0.5268 -0.7835
 1830TIP3    H126981   0.773   3.424  14.185 -3.1963  0.6253 -0.2212
 1830TIP3    H226982   0.761   3.365  14.324 -0.2841 -0.7386 -0.4674
 1831TIP3   OH226983   0.943   0.064   4.240  0.1158  0.3604  0.2751
 1831TIP3    H126984   0.903  -0.017   4.271  0.7597 -0.3215 -0.6401
 1831TIP3    H226985   1.036   0.052   4.256  0.0926  1.5241  1.4494
 1832TIP3   OH226986   5.761   4.209  11.372  0.0096 -0.7307  0.4611
 1832TIP3    H126987   5.717   4.185  11.291  2.1333  0.3074 -1.0829
 1832TIP3    H226988   5.703   4.272  11.414 -1.0534 -1.1805 -0.2970
 1833TIP3   OH226989   2.559   1.469  16.158 -0.4059 -0.5125 -0.5171
 1833TIP3    H126990   2.653   1.456  16.173 -0.2193 -0.3575 -1.4532
 1833TIP3    H226991   2.546   1.563  16.172 -0.2734 -0.4070 -1.0504
 1834TIP3   OH226992   2.231   3.741   0.298  0.1583 -0.3638  0.7102
 1834TIP3    H126993   2.323   3.754   0.321 -0.2449  1.2027  1.5498
 1834TIP3    H226994   2.226   3.761   0.205  0.7456 -0.8966  0.5630
 1835TIP3   OH226995   3.223   2.514   2.710 -0.2566  0.3598 -0.5606
 1835TIP3    H126996   3.195   2.520   2.802 -1.7963 -1.7563 -0.8033
 1835TIP3    H226997   3.318   2.499   2.715 -0.6136 -2.0493  0.8749
 1836TIP3   OH226998   2.015   4.052   4.171  0.3984  0.1041  0.3811
 1836TIP3    H126999   2.009   4.135   4.123 -2.0236  0.0573  0.4963
 1836TIP3    H227000   2.037   3.987   4.105  1.3118  0.6637  0.1174
 1837TIP3   OH227001   5.017   3.605  11.338  0.4361 -0.2602 -0.1236
 1837TIP3    H127002   5.056   3.537  11.283 -0.4685 -0.0224 -1.0950
 1837TIP3    H227003   5.090   3.642  11.387  2.0651  2.1958 -3.9552
 1838TIP3   OH227004   0.509   3.582   4.611 -0.1259 -0.6199  0.3698
 1838TIP3    H127005   0.474   3.535   4.686 -0.0143 -0.2620  0.6495
 1838TIP3    H227006   0.535   3.667   4.646 -0.5040 -0.2765 -0.1635
 1839TIP3   OH227007   2.589   3.577   1.325 -0.1274  0.0316 -0.2218
 1839TIP3    H127008   2.668   3.629   1.317 -1.1962  1.8393  0.2657
 1839TIP3    H227009   2.616   3.499   1.373  1.1530  1.1238  0.9208
 1840TIP3   OH227010   6.414   1.004  12.585  0.0197  0.3051  0.1845
 1840TIP3    H127011   6.345   1.000  12.518 -0.5365 -1.1220  0.8056
 1840TIP3    H227012   6.494   1.018  12.535 -0.5826  0.8565 -0.6488
 1841TIP3   OH227013   0.445   4.510  13.938  0.5647  0.3665  0.2986
 1841TIP3    H127014   0.442   4.583  14.000 -0.3456  1.1307 -0.6265
 1841TIP3    H227015   0.490   4.544  13.862  0.4027 -0.1314 -0.0269
 1842TIP3   OH227016   1.140   2.792   0.728 -0.0714 -0.3162 -0.1357
 1842TIP3    H127017   1.213   2.815   0.785  0.5357  0.6647 -1.2813
 1842TIP3    H227018   1.179   2.777   0.642 -1.0437 -1.2195 -0.4520
 1843TIP3   OH227019   5.385   2.796   2.787  0.5211 -0.4925  0.3927
 1843TIP3    H127020   5.438   2.834   2.718  0.7184 -0.3760  0.6068
 1843TIP3    H227021   5.334   2.728   2.743  0.6313 -0.4080  0.1307
 1844TIP3   OH227022   6.821   2.813  15.594  0.4350  0.7376 -0.5980
 1844TIP3    H127023   6.786   2.724  15.592  0.3116  0.6979  1.1916
 1844TIP3    H227024   6.768   2.858  15.660  2.2277  1.3265  0.5396
 1845TIP3   OH227025   5.417   1.373  16.566  0.2730 -0.1283 -0.3062
 1845TIP3    H127026   5.345   1.435  16.561 -0.2265 -0.4318  2.0689
 1845TIP3    H227027   5.412   1.336  16.654  2.0964 -1.6801 -0.7651
 1846TIP3   OH227028   2.021   5.151   2.259  0.6040  0.4266  0.3613
 1846TIP3    H127029   2.068   5.099   2.194 -0.5294  0.5967 -0.6400
 1846TIP3    H227030   1.987   5.226   2.209 -0.2292  0.5953  1.1546
 1847TIP3   OH227031   2.070   2.361  16.399 -0.4378  0.5146  0.1088
 1847TIP3    H127032   2.008   2.366  16.327  0.0980  0.6503 -0.3540
 1847TIP3    H227033   2.124   2.440  16.390  0.6595 -0.2559 -0.3142
 1848TIP3   OH227034   3.598   6.154  16.024  0.1966 -0.1469  0.0846
 1848TIP3    H127035   3.616   6.171  16.117 -2.7622 -0.5381  0.8096
 1848TIP3    H227036   3.628   6.065  16.009  1.3656  0.1697  0.4322
 1849TIP3   OH227037   3.913   6.079   0.065  0.3283 -0.3367 -0.0124
 1849TIP3    H127038   3.932   6.165   0.102 -1.1949 -0.5925  1.4699
 1849TIP3    H227039   3.999   6.036   0.059  0.7940  0.2485  1.9032
 1850TIP3   OH227040   1.559   0.262   1.762  0.0151  0.1459 -0.4491
 1850TIP3    H127041   1.592   0.278   1.673 -2.7498  1.9325 -1.2959
 1850TIP3    H227042   1.555   0.349   1.802 -2.8294  0.0116 -0.2230
 1851TIP3   OH227043   2.690   6.545  15.007 -0.3316  0.5233 -0.2673
 1851TIP3    H127044   2.696   6.453  15.032  0.1684  0.6989  0.2818
 1851TIP3    H227045   2.603   6.572  15.035 -0.1107  0.4774  0.4933
 1852TIP3   OH227046   3.850   3.545   1.904 -0.1309  0.0358 -0.7111
 1852TIP3    H127047   3.856   3.532   1.809  1.7098 -1.3465 -0.4803
 1852TIP3    H227048   3.804   3.628   1.914 -2.7216 -0.9979 -2.7397
 1853TIP3   OH227049   4.470   4.051   0.789 -0.3862  0.1645  0.2015
 1853TIP3    H127050   4.527   3.980   0.759 -0.7899 -0.7949  1.5974
 1853TIP3    H227051   4.418   4.012   0.860  0.5914  2.3005  2.2378
 1854TIP3   OH227052   5.108   0.520  13.744 -0.3303 -0.8701  0.0897
 1854TIP3    H127053   5.014   0.536  13.752 -0.3324 -0.9868  0.2982
 1854TIP3    H227054   5.149   0.598  13.780 -0.3438  0.0718 -1.8018
 1855TIP3   OH227055   5.939   1.062   4.131  0.1731 -0.6784 -0.1465
 1855TIP3    H127056   5.928   0.980   4.083  0.5050 -2.0786  2.0314
 1855TIP3    H227057   6.004   1.042   4.198  0.4931  1.4862  0.2616
 1856TIP3   OH227058   5.169   2.644  11.635  0.3739  0.0519 -0.1289
 1856TIP3    H127059   5.143   2.702  11.563 -2.3893 -0.9505 -0.0454
 1856TIP3    H227060   5.219   2.701  11.694  0.7828  1.4335 -1.7212
 1857TIP3   OH227061   5.971   4.604   1.662 -0.3254  0.6878  0.1083
 1857TIP3    H127062   5.942   4.516   1.636  0.7128  0.2725  0.3130
 1857TIP3    H227063   5.980   4.652   1.579  0.8471  0.0363 -0.1686
 1858TIP3   OH227064   3.568   5.025  15.746 -0.0456  0.4027  0.1694
 1858TIP3    H127065   3.496   5.016  15.684 -1.1261  0.9272  1.3092
 1858TIP3    H227066   3.616   4.942  15.740 -0.3297  0.3101 -1.0804
 1859TIP3   OH227067   4.665   0.222   3.687 -0.2936  0.0542  0.0569
 1859TIP3    H127068   4.582   0.196   3.725 -0.0578  1.4298  1.6272
 1859TIP3    H227069   4.691   0.300   3.737  1.8686 -0.2652 -0.4634
 1860TIP3   OH227070   4.729   5.995  16.190 -0.7351 -0.6187  0.5009
 1860TIP3    H127071   4.744   6.088  16.204 -0.1353 -0.0495 -2.9574
 1860TIP3    H227072   4.635   5.987  16.175 -0.4642 -0.0103 -1.9143
 1861TIP3   OH227073   3.127   4.237  15.191  0.2482 -0.3745 -0.2904
 1861TIP3    H127074   3.066   4.179  15.236  2.0332 -1.4307  0.8517
 1861TIP3    H227075   3.140   4.310  15.252  1.3664 -0.9726  0.2122
 1862TIP3   OH227076   1.935   3.853   2.452 -0.1574  0.5279 -0.7231
 1862TIP3    H127077   1.954   3.902   2.533 -2.5084  0.7020 -0.2036
 1862TIP3    H227078   1.955   3.762   2.474 -2.1193  0.3511  0.6152
 1863TIP3   OH227079   6.423   1.134  12.819 -0.2278  0.3326  0.3952
 1863TIP3    H127080   6.416   1.079  12.741  0.6582  0.3142  0.3099
 1863TIP3    H227081   6.393   1.078  12.890 -1.6899  0.5734 -0.0087
 1864TIP3   OH227082   0.869   6.515  10.569  0.4918  0.1309 -0.0471
 1864TIP3    H127083   0.955   6.479  10.549  0.8871  0.0720  1.6625
 1864TIP3    H227084   0.886   6.605  10.596  0.2470 -0.3567  1.8793
 1865TIP3   OH227085   1.065   4.624  13.047  0.0523  0.6720  0.7883
 1865TIP3    H127086   1.024   4.663  13.125 -0.6679 -1.3925  1.4995
 1865TIP3    H227087   1.068   4.530  13.065  1.2584  0.2907 -1.0667
 1866TIP3   OH227088   3.150   0.609   2.212 -0.3164 -0.0396  0.1353
 1866TIP3    H127089   3.244   0.609   2.231 -0.6195 -0.0289  1.8225
 1866TIP3    H227090   3.117   0.686   2.258 -1.2050 -0.2520 -0.1280
 1867TIP3   OH227091   0.050   5.752  12.436  0.1570  0.0129 -0.0468
 1867TIP3    H127092  -0.006   5.784  12.365 -1.9645 -2.3710  0.4144
 1867TIP3    H227093   0.120   5.704  12.391  0.3551  0.7652 -0.5647
 1868TIP3   OH227094   2.117   3.452   1.649 -0.2500  0.0605  0.1330
 1868TIP3    H127095   2.166   3.526   1.685  0.4835  0.4431 -1.5218
 1868TIP3    H227096   2.134   3.456   1.554  0.1702 -2.4659  0.0156
 1869TIP3   OH227097   1.140   5.979   4.992 -0.3436 -0.2781  0.2269
 1869TIP3    H127098   1.176   5.985   5.080  0.6961 -1.0990 -0.1276
 1869TIP3    H227099   1.047   5.960   5.005 -0.2028 -0.3835  1.1371
 1870TIP3   OH227100   1.749   2.592  15.026 -0.4340 -0.1399 -0.4156
 1870TIP3    H127101   1.707   2.650  15.089  1.8066  1.4751 -0.3026
 1870TIP3    H227102   1.701   2.510  15.034 -1.2505  0.4876  2.2190
 1871TIP3   OH227103   3.008   5.937   0.814 -0.1879  0.1208 -0.2962
 1871TIP3    H127104   3.024   5.907   0.904 -0.0178  0.8200 -0.0922
 1871TIP3    H227105   2.961   6.019   0.824 -0.8119 -0.1651 -0.8634
 1872TIP3   OH227106   6.648   2.309   3.787  0.5580 -0.3170  0.3650
 1872TIP3    H127107   6.626   2.229   3.739 -0.9975  0.3299 -0.1021
 1872TIP3    H227108   6.625   2.290   3.878  0.3619 -0.4785  0.2833
 1873TIP3   OH227109   6.159   3.947   0.619 -0.1649 -0.0190  0.0070
 1873TIP3    H127110   6.226   4.014   0.602  0.7639 -1.1863 -1.1486
 1873TIP3    H227111   6.092   3.963   0.553 -0.2621  0.1796  0.1540
 1874TIP3   OH227112   2.770   5.927  11.100  0.4937 -0.0570 -0.3364
 1874TIP3    H127113   2.854   5.970  11.113 -0.0220  1.2524 -1.1184
 1874TIP3    H227114   2.727   5.979  11.032 -1.3350 -0.0907  0.7241
 1875TIP3   OH227115   0.981   1.200   1.280 -0.4440  0.1141  0.1304
 1875TIP3    H127116   0.991   1.183   1.187 -2.1650 -2.5185  0.3274
 1875TIP3    H227117   1.070   1.214   1.312  0.3079 -0.4551 -1.6443
 1876TIP3   OH227118   2.782   0.459  10.993  0.1233 -0.2962 -0.4624
 1876TIP3    H127119   2.690   0.484  11.004  0.1220 -1.1457  2.0993
 1876TIP3    H227120   2.790   0.441  10.899 -2.4250 -0.5985 -0.7181
 1877TIP3   OH227121   6.405   1.037   6.690 -0.3785  0.3437  0.2855
 1877TIP3    H127122   6.431   1.125   6.719  1.9521 -0.3650  0.5708
 1877TIP3    H227123   6.432   1.034   6.598 -0.8980  0.0682  0.1393
 1878TIP3   OH227124   6.669   1.785  11.989 -0.0729 -0.2565 -0.3641
 1878TIP3    H127125   6.656   1.869  12.033  2.5619  0.5526 -0.9477
 1878TIP3    H227126   6.646   1.720  12.056 -0.6696  0.9258  0.6200
 1879TIP3   OH227127   1.669   0.970   5.235 -0.1525 -0.4285 -0.3755
 1879TIP3    H127128   1.649   1.012   5.319 -2.8742  0.2554 -1.2752
 1879TIP3    H227129   1.631   0.882   5.243 -0.3442 -0.3913 -0.8576
 1880TIP3   OH227130   2.526   2.517  10.203 -0.2137 -0.2784 -0.4389
 1880TIP3    H127131   2.516   2.611  10.192  0.7294  0.1905  2.0993
 1880TIP3    H227132   2.613   2.498  10.168 -0.2488 -0.1555 -0.5953
 1881TIP3   OH227133   6.715   1.981  13.842 -0.0536 -0.3414  0.2159
 1881TIP3    H127134   6.641   2.024  13.799  0.2282 -0.9815 -0.9488
 1881TIP3    H227135   6.765   2.052  13.882  1.9960  0.9658 -4.0351
 1882TIP3   OH227136   6.702   1.332  17.021 -0.2547  0.2794  0.3452
 1882TIP3    H127137   6.609   1.329  17.043 -0.5307  1.2391 -0.5752
 1882TIP3    H227138   6.739   1.254  17.060 -2.0079 -1.7551 -1.7693
 1883TIP3   OH227139   4.767   3.239   2.890  0.2420  0.1878  0.4554
 1883TIP3    H127140   4.817   3.288   2.955  2.1732  0.9050 -1.4681
 1883TIP3    H227141   4.675   3.261   2.909  0.8349  1.5748  1.9513
 1884TIP3   OH227142   4.967   0.336  10.383 -0.5643 -0.1771  0.1600
 1884TIP3    H127143   4.914   0.365  10.309 -0.9693 -1.6908 -0.1821
 1884TIP3    H227144   5.035   0.280  10.344  1.4642  1.8351  0.5658
 1885TIP3   OH227145   3.083   2.604   4.562  0.4404  0.1754 -0.3215
 1885TIP3    H127146   3.123   2.527   4.521  0.0926  0.5698 -1.4326
 1885TIP3    H227147   2.991   2.582   4.570  0.8620 -1.1187  3.1116
 1886TIP3   OH227148   3.960   0.061   1.263  0.0722 -0.3918 -0.5668
 1886TIP3    H127149   3.871   0.061   1.298  0.1998 -0.3811 -0.2310
 1886TIP3    H227150   3.983  -0.032   1.255  0.1315 -0.3953 -0.3788
 1887TIP3   OH227151   2.245   1.174  10.359  0.2168 -0.5576 -0.9005
 1887TIP3    H127152   2.179   1.154  10.426  0.9630 -0.6771 -0.1804
 1887TIP3    H227153   2.291   1.092  10.345 -0.0896 -0.5908 -1.7533
 1888TIP3   OH227154   6.096   4.350   4.882  0.1356  0.1388  0.0219
 1888TIP3    H127155   6.026   4.288   4.898  1.5502 -1.9783 -1.3403
 1888TIP3    H227156   6.090   4.369   4.788  0.6048  0.9284  0.1408
 1889TIP3   OH227157   3.085   0.836   2.313 -0.4836 -0.2339  0.2475
 1889TIP3    H127158   3.059   0.832   2.404  0.5613 -0.4955  0.5492
 1889TIP3    H227159   3.125   0.923   2.303 -2.8830  0.8506 -0.6292
 1890TIP3   OH227160   3.350   4.134   3.040 -0.5956  0.2291  0.2679
 1890TIP3    H127161   3.393   4.215   3.068 -2.0739  0.8652  0.7635
 1890TIP3    H227162   3.365   4.131   2.945 -3.9679  3.3257 -0.5959
 1891TIP3   OH227163   1.997   5.523  12.148  0.3616  0.0591 -0.0771
 1891TIP3    H127164   2.062   5.579  12.107  0.7259  1.2934  2.0654
 1891TIP3    H227165   1.947   5.486  12.074  1.3368  1.6730 -1.6160
 1892TIP3   OH227166   5.393   6.628   1.611 -0.1346  0.0404  0.7495
 1892TIP3    H127167   5.372   6.676   1.691  0.0428 -1.6027  1.8284
 1892TIP3    H227168   5.477   6.586   1.630 -1.2901 -2.4406  0.7186
 1893TIP3   OH227169   2.614   3.988   3.232 -0.9095  0.1481 -0.1241
 1893TIP3    H127170   2.626   4.066   3.178  0.0775  0.9783  1.2339
 1893TIP3    H227171   2.701   3.969   3.266 -1.6556  0.3656  2.0724
 1894TIP3   OH227172   5.212   0.260   1.812  0.1350 -0.1186 -0.1098
 1894TIP3    H127173   5.180   0.252   1.723  2.0407 -0.7623 -0.7974
 1894TIP3    H227174   5.285   0.198   1.817 -0.7008 -1.0487  2.3045
 1895TIP3   OH227175   2.956   2.388   5.958  0.3304  0.4054  0.9660
 1895TIP3    H127176   2.962   2.448   6.032 -0.1011 -0.5159  1.7608
 1895TIP3    H227177   3.041   2.345   5.956  0.3219  0.3897  0.9466
 1896TIP3   OH227178   3.722   2.780  13.297 -0.3278  0.2890  0.4071
 1896TIP3    H127179   3.721   2.736  13.383 -0.6423 -0.4411  0.0396
 1896TIP3    H227180   3.809   2.820  13.292 -0.6123  1.0809  1.4249
 1897TIP3   OH227181   4.639   5.195  12.724 -0.0169 -0.3690 -0.3597
 1897TIP3    H127182   4.561   5.139  12.723  0.6865 -1.4207  1.1471
 1897TIP3    H227183   4.621   5.261  12.657 -1.9183 -0.9630 -0.4957
 1898TIP3   OH227184   4.210   6.599  13.659  0.1257  0.6341  0.1721
 1898TIP3    H127185   4.236   6.538  13.590  1.1633  0.7982  0.4048
 1898TIP3    H227186   4.153   6.548  13.715 -0.7904  0.5151 -0.8315
 1899TIP3   OH227187   6.627   0.121  12.829  0.1115 -0.7534  0.2239
 1899TIP3    H127188   6.678   0.160  12.899 -0.0093  0.3836 -0.3011
 1899TIP3    H227189   6.595   0.038  12.865  1.7316 -1.1592  0.7968
 1900TIP3   OH227190   0.388   1.153  16.724 -0.2274 -0.2780  0.0904
 1900TIP3    H127191   0.423   1.082  16.777  0.0504  0.0867  0.4060
 1900TIP3    H227192   0.462   1.214  16.714  0.3896 -1.3204 -2.4961
 1901TIP3   OH227193   2.896   3.001  13.079  0.7125  0.0060  0.0572
 1901TIP3    H127194   2.937   2.984  12.994  2.5080  1.1824  0.6343
 1901TIP3    H227195   2.872   2.914  13.111 -0.7321 -0.4146 -1.9614
 1902TIP3   OH227196   1.321   6.434  15.663  0.3654 -0.5188  0.3278
 1902TIP3    H127197   1.282   6.487  15.593 -1.2441  0.9548  2.2324
 1902TIP3    H227198   1.280   6.349  15.654  0.9257 -0.6755 -1.0879
 1903TIP3   OH227199   4.078   3.801   4.596 -0.4661 -0.5136 -0.3729
 1903TIP3    H127200   4.102   3.778   4.686 -2.3867 -0.2640  0.2390
 1903TIP3    H227201   4.112   3.728   4.543  0.4355 -0.8008  0.5688
 1904TIP3   OH227202   0.620   1.879  15.383 -0.2735  0.1013  0.4542
 1904TIP3    H127203   0.670   1.959  15.363 -0.9869  0.3264 -0.5409
 1904TIP3    H227204   0.630   1.824  15.305 -2.5734  0.6996 -0.3644
 1905TIP3   OH227205   1.350   0.007  14.906  0.0018  0.4059 -0.5943
 1905TIP3    H127206   1.381   0.068  14.839  1.9128 -1.1928 -1.2921
 1905TIP3    H227207   1.387   0.040  14.988  0.9481  0.2857 -0.9542
 1906TIP3   OH227208   0.916   0.695   0.030  0.2404 -0.3778  0.2444
 1906TIP3    H127209   0.885   0.783   0.052 -2.1981 -1.1456  0.1386
 1906TIP3    H227210   0.941   0.657   0.114 -0.5690 -0.2433  0.5523
 1907TIP3   OH227211   0.905   5.794  12.971  0.2466 -0.2659  0.3841
 1907TIP3    H127212   0.863   5.741  12.904  0.7848 -0.3925  0.1421
 1907TIP3    H227213   0.925   5.732  13.041 -0.6194 -0.0733  0.8160
 1908TIP3   OH227214   6.809   1.093   1.481  0.1266  0.2320 -0.1896
 1908TIP3    H127215   6.841   1.030   1.417 -1.1782  1.0092 -1.6789
 1908TIP3    H227216   6.733   1.050   1.522 -1.4848  1.1756 -2.0241
 1909TIP3   OH227217   6.699   1.685  11.694  0.2755  0.3703 -0.8179
 1909TIP3    H127218   6.671   1.599  11.727  0.5104 -0.4313 -2.5715
 1909TIP3    H227219   6.734   1.730  11.770  1.0619 -1.4802 -0.0290
 1910TIP3   OH227220   6.287   0.622  10.793 -0.2350 -0.5181 -0.7938
 1910TIP3    H127221   6.201   0.592  10.823  0.8962 -1.3940  1.7684
 1910TIP3    H227222   6.268   0.668  10.711 -3.0462 -1.2642 -0.6727
 1911TIP3   OH227223   2.036   6.146   4.768 -0.2552 -0.4698  0.0157
 1911TIP3    H127224   2.081   6.204   4.829 -1.1199 -1.0962  1.2883
 1911TIP3    H227225   1.981   6.205   4.716  1.8268  0.2775 -1.4501
 1912TIP3   OH227226   1.200   3.279   0.623  0.4917 -0.5274  0.4421
 1912TIP3    H127227   1.283   3.237   0.601  1.1887  0.2355  1.5177
 1912TIP3    H227228   1.218   3.328   0.704 -1.2943 -1.2415  1.3253
 1913TIP3   OH227229   2.719   4.504  13.282  0.0261  0.0282 -0.5688
 1913TIP3    H127230   2.633   4.463  13.268 -1.1421  0.7594  3.2111
 1913TIP3    H227231   2.702   4.598  13.275  0.6321  0.1586 -0.3750
 1914TIP3   OH227232   3.300   2.253   1.177 -0.0609  0.5292  0.6091
 1914TIP3    H127233   3.292   2.164   1.142 -1.4124  1.1035 -0.6658
 1914TIP3    H227234   3.338   2.241   1.264  1.6693 -1.1357 -0.2906
 1915TIP3   OH227235   3.184   3.145  12.997  0.6271  0.5916  0.0472
 1915TIP3    H127236   3.243   3.158  13.071  0.6193 -0.9429  0.3462
 1915TIP3    H227237   3.108   3.200  13.017 -0.2814 -1.3200  2.2289
 1916TIP3   OH227238   1.637   1.232   2.204 -0.3396 -0.1502  0.1377
 1916TIP3    H127239   1.573   1.260   2.138  0.5339 -0.3981 -0.8293
 1916TIP3    H227240   1.603   1.148   2.235  0.5475 -1.3167 -1.8737
 1917TIP3   OH227241   3.290   1.482   3.235  0.4154 -0.6323 -0.5449
 1917TIP3    H127242   3.339   1.565   3.232 -0.4100 -0.1228 -0.1521
 1917TIP3    H227243   3.351   1.418   3.198  1.0009  0.1809 -1.0414
 1918TIP3   OH227244   5.617   4.893   5.347  0.2316 -0.2093  0.3229
 1918TIP3    H127245   5.523   4.879   5.349 -0.1225  1.6366 -0.6273
 1918TIP3    H227246   5.645   4.860   5.261  0.0410  1.1225 -0.2908
 1919TIP3   OH227247   0.641   2.652   5.354  0.3630  0.0715  0.3433
 1919TIP3    H127248   0.608   2.653   5.444 -1.0774 -1.3485 -0.1316
 1919TIP3    H227249   0.731   2.683   5.362 -0.7612  3.4037  1.7916
 1920TIP3   OH227250   1.881   6.537  13.252  0.3134  0.1586  0.1989
 1920TIP3    H127251   1.865   6.629  13.272 -2.5672 -0.0597 -0.5548
 1920TIP3    H227252   1.884   6.495  13.338 -0.5300  0.7104  0.5232
 1921TIP3   OH227253   5.034   1.566  14.140 -0.1318 -0.1431 -0.5341
 1921TIP3    H127254   4.973   1.554  14.212  1.6575  1.3657  1.3540
 1921TIP3    H227255   5.079   1.482  14.132 -1.0796 -0.6591 -0.6854
 1922TIP3   OH227256   0.326   0.307  13.483  0.3907  0.0126  0.2557
 1922TIP3    H127257   0.246   0.309  13.536  0.1807 -0.2563 -0.0487
 1922TIP3    H227258   0.366   0.393  13.496 -0.4715  0.5246 -0.3902
 1923TIP3   OH227259   1.696   2.995  14.537  0.3253  0.3111 -0.2102
 1923TIP3    H127260   1.772   2.985  14.595  1.3399 -0.3661 -1.5845
 1923TIP3    H227261   1.710   2.929  14.468 -1.0998  0.7236 -0.9298
 1924TIP3   OH227262   6.482   5.988  14.375 -0.6107  0.2313  0.2055
 1924TIP3    H127263   6.550   5.948  14.320  0.5640  0.1009  1.6637
 1924TIP3    H227264   6.411   5.924  14.375  0.0450 -0.5250  0.1441
 1925TIP3   OH227265   0.716   5.192  14.155 -0.1237 -0.3280  0.2501
 1925TIP3    H127266   0.739   5.105  14.187  1.7920  0.8980  2.4462
 1925TIP3    H227267   0.642   5.220  14.209 -0.1391 -0.2200  0.1746
 1926TIP3   OH227268   0.026   2.580  13.955  0.5348 -0.2150 -0.3782
 1926TIP3    H127269   0.007   2.524  14.030 -0.0554 -1.3208 -1.3165
 1926TIP3    H227270   0.080   2.525  13.898 -0.3133  0.0493 -1.4625
 1927TIP3   OH227271   3.319   5.008   2.326 -0.2407  0.7565 -0.1219
 1927TIP3    H127272   3.342   4.990   2.235 -0.3191 -0.7951  0.1355
 1927TIP3    H227273   3.376   4.951   2.377 -0.0006  1.8107  0.8308
 1928TIP3   OH227274   0.361   2.328  12.626  0.1461  0.1926 -0.1430
 1928TIP3    H127275   0.444   2.375  12.635  0.4969 -0.1733 -1.3366
 1928TIP3    H227276   0.304   2.390  12.580  0.1394  0.0048 -0.3884
 1929TIP3   OH227277   0.887   2.670   4.163  0.2975  0.0454  0.0819
 1929TIP3    H127278   0.928   2.683   4.078  1.4546  0.7671  0.7284
 1929TIP3    H227279   0.815   2.733   4.164  3.0578  3.4710  1.3627
 1930TIP3   OH227280   2.682   6.397   1.275  0.2638  0.1728 -0.2064
 1930TIP3    H127281   2.704   6.356   1.358 -0.9346 -1.1130 -0.4885
 1930TIP3    H227282   2.587   6.398   1.273  0.2741  1.1527 -1.1124
 1931TIP3   OH227283   5.992   6.783   1.067 -0.1094  0.0916 -0.8267
 1931TIP3    H127284   5.897   6.788   1.074 -0.0900 -0.3311 -0.1367
 1931TIP3    H227285   6.020   6.874   1.052 -0.6305  0.1925 -1.2009
 1932TIP3   OH227286   2.453   2.428  17.219  0.3338 -0.3040  0.2842
 1932TIP3    H127287   2.532   2.384  17.252  0.8920 -0.3337 -1.0243
 1932TIP3    H227288   2.451   2.407  17.125  1.1072  3.0664 -0.6481
 1933TIP3   OH227289   5.617   4.576  15.885  0.5426 -0.2367  0.2487
 1933TIP3    H127290   5.628   4.482  15.875  0.6585 -0.2549  0.5207
 1933TIP3    H227291   5.535   4.596  15.841  0.4457 -0.4851  0.3161
 1934TIP3   OH227292   4.736   5.239  15.803 -0.2318  0.0711 -0.0863
 1934TIP3    H127293   4.788   5.320  15.805 -0.9738  0.5540 -0.0534
 1934TIP3    H227294   4.654   5.262  15.846 -0.4071 -0.7416  0.0315
 1935TIP3   OH227295   2.754   2.034   4.148 -0.3007  0.2358  0.2557
 1935TIP3    H127296   2.799   2.044   4.232 -0.2432 -0.2522  0.2880
 1935TIP3    H227297   2.813   2.074   4.084  0.2546 -0.5232  0.2800
 1936TIP3   OH227298   3.765   5.257  16.297  0.0544 -0.2481  0.4469
 1936TIP3    H127299   3.682   5.270  16.250  2.0548 -0.4825 -3.6790
 1936TIP3    H227300   3.756   5.171  16.336 -1.7585 -0.1271  0.4229
 1937TIP3   OH227301   0.825   3.754  10.445  0.1509 -0.1532 -0.0004
 1937TIP3    H127302   0.875   3.727  10.368 -0.3240  1.6287 -0.9746
 1937TIP3    H227303   0.737   3.719  10.429  0.8180 -2.7146  1.4025
 1938TIP3   OH227304   2.485   5.920  13.246  0.2127  0.7633 -0.0854
 1938TIP3    H127305   2.506   6.011  13.264  1.2121  1.0004 -2.0989
 1938TIP3    H227306   2.390   5.914  13.254  0.1746  1.8723  0.4370
 1939TIP3   OH227307   0.462   2.990   1.744  0.5084 -0.0767 -0.8944
 1939TIP3    H127308   0.466   2.899   1.716  0.3105 -0.2578 -0.3552
 1939TIP3    H227309   0.494   2.989   1.834  0.0748  0.3171 -0.7315
 1940TIP3   OH227310   1.234   5.904   4.407 -0.1827  0.8191 -0.7872
 1940TIP3    H127311   1.230   5.832   4.345 -0.0263 -1.0514  1.2770
 1940TIP3    H227312   1.190   5.871   4.485  1.6964  2.1799  0.9498
 1941TIP3   OH227313   2.069   2.678  16.020  0.0829 -0.6363 -0.2270
 1941TIP3    H127314   2.160   2.668  16.048 -0.2792  0.6310  1.5217
 1941TIP3    H227315   2.075   2.725  15.937  1.0161 -0.7882 -0.2628
 1942TIP3   OH227316   1.899   1.201  12.701 -0.3532 -0.2752 -0.5319
 1942TIP3    H127317   1.953   1.262  12.653  0.2462  1.1047  1.7590
 1942TIP3    H227318   1.817   1.198  12.652  0.6332  0.0801 -2.2776
 1943TIP3   OH227319   4.820   4.618   2.029  0.7547  0.1231  0.0608
 1943TIP3    H127320   4.860   4.533   2.049  0.2215  0.3284  2.3067
 1943TIP3    H227321   4.831   4.669   2.109 -0.1832  1.6985 -0.7577
 1944TIP3   OH227322   5.877   3.125  11.078  0.2790 -1.0160 -0.6243
 1944TIP3    H127323   5.809   3.069  11.116 -0.4695 -0.6664 -1.4124
 1944TIP3    H227324   5.910   3.075  11.004 -0.3468 -0.4513 -1.2916
 1945TIP3   OH227325   4.285   0.742  15.131 -0.2981  0.4077  0.1293
 1945TIP3    H127326   4.221   0.712  15.066  0.8767  1.2567 -1.4660
 1945TIP3    H227327   4.348   0.793  15.082  2.7304 -1.9055  1.2864
 1946TIP3   OH227328   2.894   4.588  16.593 -0.3447  0.0648 -0.1769
 1946TIP3    H127329   2.811   4.562  16.635 -0.7038 -0.9049 -1.4462
 1946TIP3    H227330   2.961   4.565  16.657 -0.9408 -0.6135  0.2163
 1947TIP3   OH227331   4.308   1.003  10.336 -0.4344 -0.0587 -0.1903
 1947TIP3    H127332   4.254   1.079  10.313 -0.7780  0.1338  1.1821
 1947TIP3    H227333   4.398   1.034  10.325 -0.5603 -0.1521 -1.7712
 1948TIP3   OH227334   4.457   5.807   2.032  0.8791  0.1978 -0.2182
 1948TIP3    H127335   4.529   5.863   2.002  1.5565 -1.0607 -1.0170
 1948TIP3    H227336   4.471   5.724   1.987 -0.3471 -0.4908  0.6191
 1949TIP3   OH227337   0.678   6.270  11.236  0.4358  0.2031  0.1604
 1949TIP3    H127338   0.677   6.207  11.308  0.0904 -0.5506 -0.4940
 1949TIP3    H227339   0.760   6.319  11.248 -0.1657  0.9023  1.7469
 1950TIP3   OH227340   2.498   6.313   2.856  0.1812  0.1679  0.1301
 1950TIP3    H127341   2.495   6.218   2.841  1.0133  0.4987 -2.7826
 1950TIP3    H227342   2.410   6.343   2.833 -0.2347  0.1038  1.5286
 1951TIP3   OH227343   3.998   2.539   0.286 -0.1273  0.1652 -0.3795
 1951TIP3    H127344   4.031   2.462   0.333  0.1199  0.7211  0.3693
 1951TIP3    H227345   3.995   2.511   0.195 -1.8348 -1.3610  0.0887
 1952TIP3   OH227346   0.357   4.808   3.213 -0.5620  0.6839 -0.3529
 1952TIP3    H127347   0.274   4.770   3.181 -0.1498 -0.4591 -0.1349
 1952TIP3    H227348   0.370   4.886   3.160 -0.2136 -0.8141 -2.6201
 1953TIP3   OH227349   1.480   6.336  14.404 -0.1813  0.1521  0.8982
 1953TIP3    H127350   1.438   6.397  14.463 -0.4042  0.7434  0.1442
 1953TIP3    H227351   1.574   6.350  14.418 -0.2174  1.1619  0.2598
 1954TIP3   OH227352   0.581   3.035  15.428 -0.1565  0.2166 -0.4664
 1954TIP3    H127353   0.486   3.019  15.431 -0.2429  0.8022  1.4990
 1954TIP3    H227354   0.589   3.122  15.389 -0.6425  1.1803  1.4494
 1955TIP3   OH227355   4.506   4.415  11.982  0.3593  0.0463 -0.1764
 1955TIP3    H127356   4.497   4.345  12.046 -1.0652 -0.1734 -0.5792
 1955TIP3    H227357   4.478   4.375  11.899  0.7450  0.7386 -0.6506
 1956TIP3   OH227358   1.150   5.934  13.807  0.1088  0.2402  0.6528
 1956TIP3    H127359   1.116   5.950  13.895 -1.6491  1.8925 -0.2617
 1956TIP3    H227360   1.238   5.974  13.808  0.1929  0.0530  1.7058
 1957TIP3   OH227361   3.014   3.841  17.015  0.1617  0.4638  0.4497
 1957TIP3    H127362   3.045   3.857  17.104 -2.5176  0.6278  1.4512
 1957TIP3    H227363   2.970   3.756  17.020 -2.0506  1.5084 -0.0564
 1958TIP3   OH227364   0.558   0.954  14.694 -0.1443 -0.2656  0.6271
 1958TIP3    H127365   0.582   1.027  14.750  0.4990  0.1971 -0.2216
 1958TIP3    H227366   0.463   0.956  14.690 -0.2448 -0.7136  2.2075
 1959TIP3   OH227367   4.672   5.103   0.541  0.4298 -0.5574  0.3320
 1959TIP3    H127368   4.738   5.136   0.603  0.3082  0.6322 -0.1512
 1959TIP3    H227369   4.722   5.084   0.461  0.3368 -0.5956  0.2837
 1960TIP3   OH227370   1.011   4.617   0.599 -0.1099 -0.2052  0.5348
 1960TIP3    H127371   1.004   4.526   0.628  1.5272 -0.3288  0.6046
 1960TIP3    H227372   1.089   4.618   0.543  0.3961  1.3423  1.2400
 1961TIP3   OH227373   5.270   3.270   2.072 -0.1591 -0.4559  0.1586
 1961TIP3    H127374   5.232   3.301   2.154  0.5564  1.0235 -0.0411
 1961TIP3    H227375   5.362   3.298   2.076  0.1014 -1.1102 -0.7871
 1962TIP3   OH227376   1.997   4.237  14.048  0.1128  0.2330  0.0801
 1962TIP3    H127377   2.071   4.198  14.002 -0.6276  0.6998 -1.5577
 1962TIP3    H227378   1.960   4.166  14.100  1.6067 -0.0335  0.8250
 1963TIP3   OH227379   1.981   0.906  13.980  0.1261  0.0359  0.0302
 1963TIP3    H127380   2.064   0.897  14.027  0.9974 -0.0628 -1.4398
 1963TIP3    H227381   1.925   0.836  14.014  0.8297 -0.2141  0.6911
 1964TIP3   OH227382   1.627   4.116  11.976  0.5912  0.3549  0.3264
 1964TIP3    H127383   1.589   4.201  11.998 -1.3750 -0.6087  0.9771
 1964TIP3    H227384   1.552   4.064  11.946  1.7526 -1.1151 -0.1576
 1965TIP3   OH227385   0.763   0.094  16.812  0.3187  0.2296 -0.0110
 1965TIP3    H127386   0.813   0.173  16.832  0.4609  0.3698 -0.8516
 1965TIP3    H227387   0.680   0.105  16.859 -0.6203  1.9926 -1.8957
 1966TIP3   OH227388   3.624   2.271   1.621  0.0960  0.1990 -0.4273
 1966TIP3    H127389   3.660   2.337   1.680  0.3596 -0.9661  0.7489
 1966TIP3    H227390   3.684   2.270   1.547  1.0398  0.1119  0.3169
 1967TIP3   OH227391   5.580   2.761   0.755  0.0081  0.5329 -0.1845
 1967TIP3    H127392   5.504   2.781   0.700 -1.8294 -3.7072  0.4024
 1967TIP3    H227393   5.640   2.714   0.696 -0.3949 -0.9468  0.5289
 1968TIP3   OH227394   2.388   4.012  13.038 -1.1467 -0.5368  0.0369
 1968TIP3    H127395   2.436   4.020  13.120 -1.6338 -0.1224  0.2882
 1968TIP3    H227396   2.448   4.045  12.972 -0.7765 -0.8055  0.2361
 1969TIP3   OH227397   6.822   5.571  14.790 -0.0077 -0.0298 -0.0533
 1969TIP3    H127398   6.800   5.661  14.768 -2.5245 -0.1751  1.5159
 1969TIP3    H227399   6.897   5.578  14.849 -0.6700  1.1186  0.6904
 1970TIP3   OH227400   2.095   2.305  14.682  0.0930 -0.5591 -0.0787
 1970TIP3    H127401   2.047   2.328  14.762  0.3135 -0.1741 -0.0550
 1970TIP3    H227402   2.028   2.294  14.616  0.0087  0.5955 -0.1956
 1971TIP3   OH227403   0.313   0.906  11.064 -0.1060  0.0693 -0.5267
 1971TIP3    H127404   0.250   0.976  11.082  0.5515 -0.0808  2.9476
 1971TIP3    H227405   0.391   0.951  11.032  0.7975  1.2586  2.9330
 1972TIP3   OH227406   2.784   4.993   2.160 -0.7028 -0.1459 -0.2077
 1972TIP3    H127407   2.868   4.951   2.140 -1.1942 -0.8553 -0.8302
 1972TIP3    H227408   2.807   5.066   2.218  0.4006 -0.0007 -0.7992
 1973TIP3   OH227409   4.222   2.361  17.140  0.1926  0.0821  0.3785
 1973TIP3    H127410   4.248   2.441  17.185 -1.1218  0.3824  0.6238
 1973TIP3    H227411   4.264   2.367  17.054 -0.9463  1.6626 -0.1020
 1974TIP3   OH227412   3.658   2.343  17.206  0.0123 -0.7406  0.3406
 1974TIP3    H127413   3.565   2.359  17.220  0.0150  0.8604 -1.1416
 1974TIP3    H227414   3.661   2.281  17.133  0.1111 -0.2365 -0.0856
 1975TIP3   OH227415   3.632   5.158  11.374  0.1147 -0.4826  0.3756
 1975TIP3    H127416   3.567   5.102  11.415  0.7760 -0.5360  1.3756
 1975TIP3    H227417   3.716   5.125  11.405  0.4880  2.1358  2.5231
 1976TIP3   OH227418   4.029   1.495  12.730  0.1949  0.5527 -0.2812
 1976TIP3    H127419   4.018   1.480  12.637 -1.1641 -1.1541  0.0927
 1976TIP3    H227420   3.980   1.424  12.772  0.1155  1.7102  1.7402
 1977TIP3   OH227421   6.459   4.068   5.187  0.2486 -0.1800  0.4536
 1977TIP3    H127422   6.534   4.017   5.218  0.4162  0.1581  0.6203
 1977TIP3    H227423   6.383   4.028   5.229  0.4857  0.3613  1.4475
 1978TIP3   OH227424   1.855   6.095   6.322  0.0169  0.1894  0.0351
 1978TIP3    H127425   1.814   6.144   6.393  0.1731 -2.3092  1.9684
 1978TIP3    H227426   1.915   6.034   6.365  1.3531 -0.3326 -2.3645
 1979TIP3   OH227427   1.443   1.432  17.193  0.3747  0.0766  0.3753
 1979TIP3    H127428   1.416   1.341  17.192 -1.4858  0.5105 -2.6800
 1979TIP3    H227429   1.497   1.442  17.114  1.2259  1.4681  1.0868
 1980TIP3   OH227430   1.805   4.623   4.865  0.4446 -0.3212  0.6437
 1980TIP3    H127431   1.773   4.627   4.955 -0.8886 -1.2208  0.2344
 1980TIP3    H227432   1.901   4.627   4.874  0.3552 -0.8306  2.1224
 1981TIP3   OH227433   6.447   4.263  13.329  0.1877  0.6349  0.0457
 1981TIP3    H127434   6.420   4.303  13.411 -0.1152  1.1754 -0.3085
 1981TIP3    H227435   6.428   4.330  13.262  0.6604  0.3047 -0.4322
 1982TIP3   OH227436   6.247   0.602  11.134  0.0724 -0.4687  0.1688
 1982TIP3    H127437   6.173   0.575  11.080 -0.2049  1.6012 -0.5369
 1982TIP3    H227438   6.212   0.602  11.223 -0.0485 -1.8898  0.1471
 1983TIP3   OH227439   1.668   2.235   5.008 -1.0308  0.5315 -0.1871
 1983TIP3    H127440   1.575   2.238   4.988 -1.0006  2.4308 -0.1519
 1983TIP3    H227441   1.678   2.284   5.090 -0.0324  0.0848 -0.0153
 1984TIP3   OH227442   2.435   4.972  16.168  0.2236  0.4814 -1.0868
 1984TIP3    H127443   2.452   4.878  16.159 -0.8209 -0.1588  2.1324
 1984TIP3    H227444   2.513   5.006  16.213 -0.6865  0.4434  0.6068
 1985TIP3   OH227445   2.724   2.140  16.557 -0.7304  0.0518  0.1213
 1985TIP3    H127446   2.710   2.233  16.537  1.8068  0.0228 -2.3216
 1985TIP3    H227447   2.749   2.140  16.649  0.1482  1.9563 -0.0543
 1986TIP3   OH227448   6.804   4.930  13.673 -0.0004  0.2956  0.0810
 1986TIP3    H127449   6.865   4.992  13.633 -1.1809  0.9655 -0.7109
 1986TIP3    H227450   6.763   4.980  13.744  0.0764 -0.0381  0.3641
 1987TIP3   OH227451   3.370   2.066   5.935  0.0801 -0.0912  0.2711
 1987TIP3    H127452   3.377   2.074   6.030  1.2760 -1.2864  0.3076
 1987TIP3    H227453   3.281   2.034   5.920  0.1956 -0.8283  1.0747
 1988TIP3   OH227454   3.053   1.921   4.202 -0.3261  0.0946 -0.2994
 1988TIP3    H127455   3.037   1.827   4.193 -1.9500  0.2922  0.1751
 1988TIP3    H227456   3.122   1.940   4.139 -0.7738 -1.2147 -1.2162
 1989TIP3   OH227457   4.998   2.284   5.691 -0.1149 -0.4161 -0.3161
 1989TIP3    H127458   4.978   2.312   5.781  1.6900  1.3937 -0.3919
 1989TIP3    H227459   5.079   2.233   5.700 -0.4839 -1.0986 -0.8139
 1990TIP3   OH227460   0.837   5.542   4.580  0.3318  0.1467  0.0127
 1990TIP3    H127461   0.855   5.497   4.662 -0.0093  2.2305  1.3124
 1990TIP3    H227462   0.917   5.593   4.563  0.1244  0.2892 -0.5640
 1991TIP3   OH227463   5.885   4.106  15.490  0.3519  0.1941 -0.3607
 1991TIP3    H127464   5.905   4.127  15.581  2.5899  1.6452 -1.0965
 1991TIP3    H227465   5.919   4.180  15.440 -1.3257 -0.2974 -2.3676
 1992TIP3   OH227466   2.054   2.956  16.572  0.4153  0.2946  0.5365
 1992TIP3    H127467   2.038   2.975  16.480  3.6929 -0.4734 -0.3363
 1992TIP3    H227468   2.002   2.878  16.590  0.5586 -0.1951 -1.0097
 1993TIP3   OH227469   1.991   4.915  14.034  0.4352  0.9318  0.3514
 1993TIP3    H127470   1.943   4.938  14.114  0.1567 -3.7778  1.8575
 1993TIP3    H227471   2.084   4.925  14.058  0.3504 -0.3722  1.3378
 1994TIP3   OH227472   6.316   4.659   5.071 -0.8881 -0.3136 -0.4483
 1994TIP3    H127473   6.333   4.750   5.096  0.9546 -0.2108 -1.8732
 1994TIP3    H227474   6.222   4.647   5.087 -0.7999  1.1995  1.6367
 1995TIP3   OH227475   2.343   6.570   0.552  0.6520 -0.4478 -0.2329
 1995TIP3    H127476   2.320   6.487   0.594  0.1131 -0.4515 -0.5235
 1995TIP3    H227477   2.351   6.548   0.459  1.1546 -0.3038 -0.2246
 1996TIP3   OH227478   2.227   0.582   4.973 -0.2166 -0.0539  0.1814
 1996TIP3    H127479   2.235   0.507   5.032  0.1161 -1.5034 -1.6277
 1996TIP3    H227480   2.289   0.564   4.902  0.1986  2.1710 -0.0988
 1997TIP3   OH227481   3.822   4.618  13.098  0.5358 -0.4045  0.0535
 1997TIP3    H127482   3.830   4.575  13.183  0.1667 -0.7774 -0.0910
 1997TIP3    H227483   3.902   4.594  13.051  0.1795 -1.2327 -0.1481
 1998TIP3   OH227484   0.804   1.744   5.694  0.4321 -0.3152 -0.5892
 1998TIP3    H127485   0.852   1.801   5.754  0.6782 -1.1934  0.0678
 1998TIP3    H227486   0.796   1.796   5.614  1.2145  0.3981 -0.2320
 1999TIP3   OH227487   4.827   0.523   2.151  0.3291 -1.3477 -0.2242
 1999TIP3    H127488   4.902   0.579   2.170  0.5545 -0.8719 -2.2673
 1999TIP3    H227489   4.819   0.525   2.056 -2.0870 -1.6424 -0.0964
 2000TIP3   OH227490   6.565   4.628   6.446 -0.1456 -0.4926 -0.3448
 2000TIP3    H127491   6.614   4.709   6.428  0.9830 -0.6155  1.7798
 2000TIP3    H227492   6.633   4.565   6.470 -1.2118 -1.2707  0.6941
 2001TIP3   OH227493   4.758   2.318   3.221 -0.0612 -0.0132 -0.3365
 2001TIP3    H127494   4.808   2.376   3.279 -0.9571 -1.3820  1.9671
 2001TIP3    H227495   4.669   2.322   3.255 -0.6489 -0.8564 -1.7049
 2002TIP3   OH227496   3.535   2.576   3.143  0.4411 -0.6108  0.2540
 2002TIP3    H127497   3.596   2.651   3.146 -0.3434  0.0294  0.8121
 2002TIP3    H227498   3.495   2.575   3.230 -1.0873 -0.3808 -0.4108
 2003TIP3   OH227499   3.757   5.796  11.789 -0.5859  0.4164 -0.1076
 2003TIP3    H127500   3.761   5.870  11.849  0.4909  1.4404 -1.3707
 2003TIP3    H227501   3.787   5.832  11.705  0.4356 -1.5545 -0.6482
 2004TIP3   OH227502   3.465   2.035   2.050 -0.4035 -0.1904 -0.2291
 2004TIP3    H127503   3.506   1.949   2.057 -2.0459 -0.9837  0.0090
 2004TIP3    H227504   3.523   2.084   1.992  1.6371 -0.7707  1.1866
 2005TIP3   OH227505   2.085   2.713  16.899 -0.0739  0.2258  0.0141
 2005TIP3    H127506   2.135   2.646  16.946  1.9717  1.0355 -0.8689
 2005TIP3    H227507   2.086   2.683  16.808 -1.1091  0.3537 -0.0556
 2006TIP3   OH227508   5.262   5.611  10.876  0.0349 -0.4957  0.3002
 2006TIP3    H127509   5.221   5.681  10.826 -1.8364 -1.7134  0.0248
 2006TIP3    H227510   5.344   5.594  10.830 -0.4704  0.1242 -0.8706
 2007TIP3   OH227511   4.329   3.649  11.265  0.5694 -0.4996 -0.7700
 2007TIP3    H127512   4.289   3.714  11.324 -1.8105 -1.5527 -1.0846
 2007TIP3    H227513   4.403   3.694  11.225  1.4326  0.7041  1.9590
 2008TIP3   OH227514   4.386   3.003   0.547 -0.3908 -0.3762 -0.7187
 2008TIP3    H127515   4.451   2.951   0.595 -1.1534  0.4662  1.3488
 2008TIP3    H227516   4.318   2.940   0.522 -2.0072 -0.3428  2.9782
 2009TIP3   OH227517   4.339   6.234  16.265 -0.4518  0.1361 -0.2200
 2009TIP3    H127518   4.300   6.258  16.181 -1.2775  0.3904  0.2143
 2009TIP3    H227519   4.278   6.270  16.330 -1.0836 -2.0194  0.4790
 2010TIP3   OH227520   4.987   5.240  13.496  0.0722 -0.1474 -0.0304
 2010TIP3    H127521   4.899   5.202  13.501 -0.2731  0.4134 -1.4848
 2010TIP3    H227522   5.044   5.168  13.522 -0.8086 -0.4561  1.1677
 2011TIP3   OH227523   1.285   0.710  14.267  0.0275  0.3813  0.0249
 2011TIP3    H127524   1.212   0.692  14.208  0.6961  0.3973 -0.8204
 2011TIP3    H227525   1.318   0.795  14.238  0.1528  0.5434  0.6407
 2012TIP3   OH227526   2.220   4.743  12.951  0.3376 -0.3963  0.1582
 2012TIP3    H127527   2.270   4.707  12.878 -0.6476  0.6843 -1.0819
 2012TIP3    H227528   2.188   4.666  12.998 -1.8458 -1.2485 -2.4927
 2013TIP3   OH227529   6.700   1.263  11.629  0.5746  0.3387 -0.0331
 2013TIP3    H127530   6.662   1.339  11.673 -0.4493 -1.3752  2.2720
 2013TIP3    H227531   6.747   1.217  11.698  2.4100 -0.4278 -1.6894
 2014TIP3   OH227532   6.185   2.808  12.494  0.1570  0.2908  0.4830
 2014TIP3    H127533   6.102   2.844  12.463  0.2750 -0.9477 -1.4300
 2014TIP3    H227534   6.190   2.721  12.454  2.6146  0.5482  0.0903
 2015TIP3   OH227535   1.564   3.827   3.315  0.5195  0.0628  0.1332
 2015TIP3    H127536   1.520   3.899   3.359  1.0634  0.9516 -0.7439
 2015TIP3    H227537   1.525   3.748   3.353 -3.1880  0.7118 -1.8783
 2016TIP3   OH227538   1.996   6.451   1.777  0.2965  0.2013  0.1140
 2016TIP3    H127539   2.076   6.488   1.741 -0.4620  1.9739  0.1404
 2016TIP3    H227540   1.997   6.359   1.751  1.9901  0.3572 -0.4516
 2017TIP3   OH227541   0.245   1.986   6.057  0.0317 -0.2022 -0.0832
 2017TIP3    H127542   0.288   1.993   6.142 -0.1919  1.9608 -0.0916
 2017TIP3    H227543   0.155   1.963   6.077 -0.0289  0.3406  0.2850
 2018TIP3   OH227544   2.737   4.224  12.267 -0.1706 -0.3360 -0.2226
 2018TIP3    H127545   2.747   4.319  12.276  1.6019 -0.4655 -0.4873
 2018TIP3    H227546   2.673   4.213  12.197  1.1302  0.6890 -1.6235
 2019TIP3   OH227547   3.302   3.360  14.151  0.2997  0.5536  0.3149
 2019TIP3    H127548   3.295   3.319  14.237  0.0236 -0.2803 -0.0851
 2019TIP3    H227549   3.344   3.444  14.167  0.9381  0.0919  1.1664
 2020TIP3   OH227550   3.744   4.721  15.421  0.1683  0.2699 -0.2040
 2020TIP3    H127551   3.812   4.684  15.365  0.6808 -0.2442  0.7367
 2020TIP3    H227552   3.741   4.814  15.398  1.5502  0.4033  0.0945
 2021TIP3   OH227553   0.341   5.410   2.076 -0.4153 -0.1299 -0.2921
 2021TIP3    H127554   0.334   5.326   2.121 -2.4146  0.6404  0.9585
 2021TIP3    H227555   0.251   5.437   2.061  0.1770  1.7874 -0.6935
 2022TIP3   OH227556   0.304   1.708  14.949  0.5574 -0.3552 -1.1596
 2022TIP3    H127557   0.234   1.654  14.983 -0.8219  0.4585 -2.5631
 2022TIP3    H227558   0.305   1.690  14.855  1.7499  0.1931 -1.2757
 2023TIP3   OH227559   3.155   6.773  11.531 -0.7902 -0.0357  0.4389
 2023TIP3    H127560   3.213   6.698  11.526 -1.0058 -0.1119 -1.5678
 2023TIP3    H227561   3.208   6.842  11.571  0.6307 -0.1881 -1.0879
 2024TIP3   OH227562   2.905   0.821  15.221  0.0150  0.3011 -0.0266
 2024TIP3    H127563   2.924   0.809  15.128  3.0228  1.1090  0.3763
 2024TIP3    H227564   2.842   0.893  15.224 -1.2922 -0.7044 -1.4300
 2025TIP3   OH227565   0.999   4.275   3.008  0.5135 -0.2412 -0.3725
 2025TIP3    H127566   0.936   4.224   2.956 -1.7352  1.7938  0.1826
 2025TIP3    H227567   1.007   4.358   2.960 -0.8598  1.3117  1.9349
 2026TIP3   OH227568   4.142   6.771   0.277  0.0432 -0.3206  0.2918
 2026TIP3    H127569   4.067   6.777   0.218  0.3601  0.3168 -0.0527
 2026TIP3    H227570   4.135   6.848   0.333  1.7889  1.1813 -1.3846
 2027TIP3   OH227571   5.073   3.241   5.864 -0.1174 -0.3590  0.0813
 2027TIP3    H127572   5.069   3.226   5.770  0.3906  0.8740 -0.1611
 2027TIP3    H227573   5.158   3.283   5.878 -0.2568 -0.3769  1.0699
 2028TIP3   OH227574   0.949   2.539  11.052 -0.2157  0.1028  0.2245
 2028TIP3    H127575   0.858   2.531  11.024 -0.9072  0.6971  2.1068
 2028TIP3    H227576   1.001   2.522  10.974 -1.9599  0.7075 -1.1118
 2029TIP3   OH227577   1.045   3.254   4.674 -0.1003  0.1817 -0.2493
 2029TIP3    H127578   1.000   3.252   4.758 -0.9311  0.4294 -0.6775
 2029TIP3    H227579   0.975   3.259   4.609  0.3106 -3.3251 -1.1739
 2030TIP3   OH227580   2.885   0.741   4.402  0.8195  0.6823  0.4998
 2030TIP3    H127581   2.812   0.679   4.398 -0.1680  1.8925 -1.6856
 2030TIP3    H227582   2.963   0.686   4.412 -0.0136 -0.9525 -1.4587
 2031TIP3   OH227583   1.293   1.977  14.706 -0.2988  0.1162  0.0391
 2031TIP3    H127584   1.279   1.886  14.731 -0.9894  0.6745  1.8606
 2031TIP3    H227585   1.253   1.985  14.620 -0.2986 -1.2749 -0.1097
 2032TIP3   OH227586   6.292   4.289  10.805 -0.0441  0.0533 -0.4814
 2032TIP3    H127587   6.281   4.197  10.831  2.3946 -0.0809  0.3354
 2032TIP3    H227588   6.322   4.285  10.714  2.6233 -0.2162  0.3127
 2033TIP3   OH227589   5.626   3.828  11.213  0.2376  0.4396 -0.0781
 2033TIP3    H127590   5.597   3.770  11.143 -0.9847  0.3608  0.4701
 2033TIP3    H227591   5.721   3.815  11.218 -0.0635 -1.9191  0.3759
 2034TIP3   OH227592   2.896   6.624   0.333 -0.2955  0.5800 -0.4300
 2034TIP3    H127593   2.932   6.684   0.399 -0.5996 -0.4883  0.7612
 2034TIP3    H227594   2.861   6.680   0.264 -0.3841  1.7567  0.5526
 2035TIP3   OH227595   2.228   6.629   5.767 -0.2809  0.1998  0.2146
 2035TIP3    H127596   2.173   6.653   5.692 -0.2550  1.9911  0.7427
 2035TIP3    H227597   2.194   6.680   5.840 -1.9975 -3.3501  2.1775
 2036TIP3   OH227598   3.427   5.781  12.969  0.0553 -0.0131 -0.0783
 2036TIP3    H127599   3.351   5.735  13.005  0.3882 -0.4170  0.1160
 2036TIP3    H227600   3.459   5.835  13.041  1.2214 -1.4439  0.5342
 2037TIP3   OH227601   1.362   2.219  15.518  0.3627 -0.2629 -0.0476
 2037TIP3    H127602   1.433   2.182  15.571  0.0474 -0.3913  0.2891
 2037TIP3    H227603   1.323   2.286  15.573  0.9385  0.5943 -0.6586
 2038TIP3   OH227604   3.892   1.038  17.226  0.5238 -0.3215  0.5604
 2038TIP3    H127605   3.837   0.962  17.211  1.0634 -0.3733 -1.4878
 2038TIP3    H227606   3.956   1.010  17.291 -0.7714 -0.8063  1.6493
 2039TIP3   OH227607   0.787   0.424  11.066 -0.4495 -0.0434 -0.2809
 2039TIP3    H127608   0.828   0.507  11.087 -0.5047  0.2059 -1.1561
 2039TIP3    H227609   0.693   0.442  11.071 -0.4601 -0.1542 -0.0765
 2040TIP3   OH227610   5.401   0.991  15.581 -1.0020 -0.7915  0.0364
 2040TIP3    H127611   5.416   0.934  15.506 -2.1144  0.2969 -1.0687
 2040TIP3    H227612   5.325   1.043  15.556  0.5387  1.8770  0.5721
 2041TIP3   OH227613   0.520   5.722  12.249  0.3145  0.6478  0.1993
 2041TIP3    H127614   0.465   5.743  12.173  1.3011  0.2239 -0.6459
 2041TIP3    H227615   0.589   5.788  12.247  1.0528 -0.1178 -0.0134
 2042TIP3   OH227616   1.563   2.969   3.278 -0.0049  0.2734  0.4483
 2042TIP3    H127617   1.637   2.946   3.221 -1.0726  2.0392 -1.7983
 2042TIP3    H227618   1.553   3.063   3.267 -2.2327  0.1717  1.1477
 2043TIP3   OH227619   5.075   1.690   5.068  0.2465  0.3337 -0.1801
 2043TIP3    H127620   5.070   1.755   5.139  1.6514 -0.0158  0.2712
 2043TIP3    H227621   5.168   1.678   5.053  0.1269 -2.5735  0.6906
 2044TIP3   OH227622   0.490   2.708   2.879  0.6203 -0.5403  0.3939
 2044TIP3    H127623   0.568   2.763   2.864 -0.1449  0.3630 -0.3787
 2044TIP3    H227624   0.524   2.631   2.926  2.2425 -0.9121 -1.2643
 2045TIP3   OH227625   4.140   1.485   4.268  0.6126 -0.3620  0.5175
 2045TIP3    H127626   4.196   1.555   4.233  0.1599  0.0201  0.5544
 2045TIP3    H227627   4.153   1.490   4.363  1.4017 -1.0301  0.4626
 2046TIP3   OH227628   1.348   6.216  13.124  0.0874 -0.1059 -0.7471
 2046TIP3    H127629   1.420   6.188  13.181 -1.4987  0.5389  1.7547
 2046TIP3    H227630   1.383   6.291  13.076  0.2745  2.3197  2.8100
 2047TIP3   OH227631   3.026   1.223  10.750 -0.0714  0.2704 -0.2766
 2047TIP3    H127632   3.088   1.231  10.678 -1.0281 -0.0630 -1.1693
 2047TIP3    H227633   3.074   1.254  10.827  0.9285  0.7690 -1.0734
 2048TIP3   OH227634   1.033   0.637   3.146 -0.3159  0.0329 -0.4851
 2048TIP3    H127635   1.075   0.564   3.100 -0.5614 -0.7306  0.4591
 2048TIP3    H227636   1.092   0.655   3.220 -0.1537  0.9336 -0.8258
 2049TIP3   OH227637   5.956   6.571  17.024 -0.0920  0.3825 -0.0917
 2049TIP3    H127638   5.936   6.589  17.116  1.6491  0.1526  0.3691
 2049TIP3    H227639   5.871   6.576  16.980 -1.1163 -0.3606  1.6573
 2050TIP3   OH227640   1.324   3.408  17.000  0.1039 -0.4989 -0.1587
 2050TIP3    H127641   1.258   3.439  16.938 -0.2487  0.5846  0.7149
 2050TIP3    H227642   1.277   3.349  17.059 -0.2682  0.6992  0.8042
 2051TIP3   OH227643   1.232   3.381  15.095 -0.5358  0.0070  0.0148
 2051TIP3    H127644   1.313   3.357  15.141 -0.6639 -0.8638 -0.2084
 2051TIP3    H227645   1.241   3.475  15.079 -1.2349  0.7702  3.3563
 2052TIP3   OH227646   1.867   1.151   2.529  0.0626 -0.2020 -0.1698
 2052TIP3    H127647   1.786   1.100   2.534  0.4105 -0.7388  0.1511
 2052TIP3    H227648   1.865   1.192   2.443 -0.4898 -0.3083 -0.2117
 2053TIP3   OH227649   6.352   6.357   5.987  0.1381  0.1086  0.0589
 2053TIP3    H127650   6.306   6.388   6.065  0.5886  0.3117  0.2472
 2053TIP3    H227651   6.417   6.425   5.969 -0.7464  0.6618 -1.2082
 2054TIP3   OH227652   2.563   1.858   3.514 -0.4200  0.2016 -0.3149
 2054TIP3    H127653   2.582   1.827   3.603  0.5669 -0.3824 -0.7134
 2054TIP3    H227654   2.576   1.953   3.520  1.9474 -0.0456 -0.3255
 2055TIP3   OH227655   2.056   5.643   0.043 -0.4459  0.0194  0.2497
 2055TIP3    H127656   2.137   5.615  -0.001  0.8686  1.6466  1.5065
 2055TIP3    H227657   2.068   5.737   0.058 -2.5317  0.2837  0.6326
 2056TIP3   OH227658   5.426   2.622   6.038 -0.2293 -0.5989 -0.1320
 2056TIP3    H127659   5.342   2.647   6.077 -0.3350 -0.7297 -0.2773
 2056TIP3    H227660   5.463   2.705   6.006 -0.4948 -0.6011 -0.4444
 2057TIP3   OH227661   2.298   2.540   6.144 -0.0999 -0.6455  0.7216
 2057TIP3    H127662   2.315   2.625   6.184 -0.4078 -0.0663 -0.3199
 2057TIP3    H227663   2.282   2.481   6.217  0.2937  0.1540  1.4673
 2058TIP3   OH227664   4.802   4.617   0.817  0.2989 -0.0737 -0.6781
 2058TIP3    H127665   4.789   4.712   0.820  0.2835 -0.0581 -1.1829
 2058TIP3    H227666   4.720   4.583   0.780 -0.1215 -0.3818  0.4799
 2059TIP3   OH227667   6.748   6.647  11.333 -0.1352  0.2036  0.1394
 2059TIP3    H127668   6.838   6.628  11.360  0.2235  2.2021  0.5627
 2059TIP3    H227669   6.755   6.665  11.239  0.1774  1.5220  0.3829
 2060TIP3   OH227670   3.923   0.928  13.754 -0.2089 -0.4216 -0.4972
 2060TIP3    H127671   3.872   0.970  13.823  0.8971 -0.2523  0.2548
 2060TIP3    H227672   3.952   1.001  13.699 -0.2239 -0.4455 -0.5365
 2061TIP3   OH227673   0.038   0.314   0.747 -0.2210 -0.1621  0.6789
 2061TIP3    H127674  -0.043   0.308   0.696  0.4858 -1.9761 -0.3172
 2061TIP3    H227675   0.108   0.303   0.683  0.7987  0.3563  1.6630
 2062TIP3   OH227676   6.167   4.933   3.278  0.2970 -0.7475 -0.3475
 2062TIP3    H127677   6.231   4.867   3.303  0.8809 -0.1582 -0.2427
 2062TIP3    H227678   6.092   4.916   3.335  1.8902  1.0621  2.6020
 2063TIP3   OH227679   5.012   4.057   6.141 -0.0329  0.0227 -0.6211
 2063TIP3    H127680   5.000   3.971   6.099 -0.2998  0.1725 -0.8599
 2063TIP3    H227681   4.927   4.076   6.181  0.1794 -0.0517 -0.1343
 2064TIP3   OH227682   1.747   1.411  15.770 -0.3759 -0.1721 -0.4960
 2064TIP3    H127683   1.799   1.491  15.760 -0.4027 -0.3240 -2.2229
 2064TIP3    H227684   1.808   1.340  15.749 -0.7039 -0.5075 -0.3206
 2065TIP3   OH227685   2.803   5.280  16.681 -0.2256  0.0307 -0.4078
 2065TIP3    H127686   2.866   5.218  16.642  0.4128  0.1777  0.3569
 2065TIP3    H227687   2.834   5.366  16.653  0.6572  0.1890  0.9522
 2066TIP3   OH227688   1.741   4.791   3.194 -0.1821  0.7639 -0.7545
 2066TIP3    H127689   1.761   4.719   3.253 -0.0209  1.7078  0.3845
 2066TIP3    H227690   1.663   4.763   3.146  0.5840 -0.6607 -1.2266
 2067TIP3   OH227691   2.718   1.110  11.845  0.0781  0.0423  0.2999
 2067TIP3    H127692   2.757   1.051  11.781  1.6233  0.4022  0.8874
 2067TIP3    H227693   2.672   1.052  11.906  2.2123 -0.6754  1.3184
 2068TIP3   OH227694   3.860   6.076   0.895 -0.4479 -0.2470 -0.2175
 2068TIP3    H127695   3.880   6.158   0.940 -1.0085  1.3887 -2.7210
 2068TIP3    H227696   3.768   6.086   0.868 -0.1442 -1.1256 -1.6599
 2069TIP3   OH227697   4.461   4.957  12.944 -0.9329  0.0578 -0.3050
 2069TIP3    H127698   4.480   5.000  13.028 -0.5619  0.3820 -0.5554
 2069TIP3    H227699   4.547   4.938  12.907 -0.9220 -3.6374  1.1644
 2070TIP3   OH227700   5.352   6.321   3.783 -0.2033 -0.1930 -0.2906
 2070TIP3    H127701   5.340   6.338   3.877  0.0467 -3.0776  0.3492
 2070TIP3    H227702   5.424   6.379   3.758 -1.2885  1.7750  0.8804
 2071TIP3   OH227703   4.861   0.195  11.014  0.6438  0.2847 -0.5916
 2071TIP3    H127704   4.823   0.218  10.929 -0.0611 -0.0516 -0.3739
 2071TIP3    H227705   4.906   0.112  10.999 -0.2760 -0.2545 -0.4241
 2072TIP3   OH227706   3.160   6.118   4.181  0.1505  0.2248  0.2532
 2072TIP3    H127707   3.182   6.094   4.091 -0.7808 -0.3169  0.1653
 2072TIP3    H227708   3.150   6.214   4.178 -0.4258  0.1507 -0.3439
 2073TIP3   OH227709   3.772   2.815   3.092 -0.5309 -0.3764 -0.5036
 2073TIP3    H127710   3.804   2.776   3.011  0.3826  0.8351 -0.7563
 2073TIP3    H227711   3.735   2.899   3.066  1.6085  0.9641  0.5292
 2074TIP3   OH227712   1.445   0.983  13.339  0.6053  0.5000 -0.0306
 2074TIP3    H127713   1.368   1.040  13.335  0.1075 -0.1623 -0.2169
 2074TIP3    H227714   1.460   0.958  13.248  0.8109  0.3324  0.0486
 2075TIP3   OH227715   4.262   3.659  15.066 -0.0706 -0.0396 -0.8099
 2075TIP3    H127716   4.177   3.626  15.037 -0.5568  0.3376  0.1499
 2075TIP3    H227717   4.243   3.709  15.145  0.8643  1.2028 -1.3331
 2076TIP3   OH227718   1.322   6.797  14.358  0.2368 -0.3599 -0.4415
 2076TIP3    H127719   1.380   6.808  14.434  0.9635 -0.3533 -0.9905
 2076TIP3    H227720   1.257   6.733  14.388 -0.3587  0.7306  0.6715
 2077TIP3   OH227721   3.306   4.871   1.808  0.7573 -0.3079 -0.1207
 2077TIP3    H127722   3.363   4.799   1.782  0.9775 -0.1343 -0.1121
 2077TIP3    H227723   3.310   4.933   1.736 -1.2111 -1.3327 -1.2007
 2078TIP3   OH227724   1.314   0.340   1.482  0.1104  0.0039  0.3648
 2078TIP3    H127725   1.323   0.356   1.388  1.5867  1.1417  0.6555
 2078TIP3    H227726   1.302   0.246   1.490  0.1816 -0.1321 -0.9567
 2079TIP3   OH227727   4.067   1.032   0.222  0.1706  0.0212  0.0603
 2079TIP3    H127728   3.991   1.038   0.281 -0.2009 -1.2299 -0.2510
 2079TIP3    H227729   4.101   1.121   0.217 -2.4935  1.0807 -1.3706
 2080TIP3   OH227730   5.920   2.914  16.006  0.2066  0.2988  0.8450
 2080TIP3    H127731   6.004   2.960  16.003 -0.2906  1.1935 -0.9734
 2080TIP3    H227732   5.857   2.976  15.969 -0.7409 -1.3417 -0.4549
 2081TIP3   OH227733   1.701   6.540  13.528 -0.5222 -0.6060  0.4136
 2081TIP3    H127734   1.628   6.498  13.482 -0.3474  0.4215 -0.8707
 2081TIP3    H227735   1.774   6.480  13.518 -0.0654  0.2247 -2.0547
 2082TIP3   OH227736   2.226   0.726  15.228  0.2170  0.3530  0.0440
 2082TIP3    H127737   2.270   0.804  15.260  0.6445  0.5178 -0.8938
 2082TIP3    H227738   2.134   0.750  15.224  0.2363  0.5174  0.5787
 2083TIP3   OH227739   0.964   2.315  15.042  0.3160  0.1208  0.8247
 2083TIP3    H127740   1.060   2.320  15.033  0.1616  0.2165 -1.1238
 2083TIP3    H227741   0.938   2.401  15.074  0.8748  0.1140  1.3121
 2084TIP3   OH227742   0.329   6.786   5.653 -0.0905  0.1680  0.6010
 2084TIP3    H127743   0.271   6.858   5.679 -0.3705 -0.8116  2.8993
 2084TIP3    H227744   0.386   6.773   5.728  1.1898 -0.8337 -0.4935
 2085TIP3   OH227745   4.288   2.423   6.433  0.7594  0.0916  0.1062
 2085TIP3    H127746   4.310   2.513   6.457 -0.4623 -0.1693  2.4669
 2085TIP3    H227747   4.304   2.419   6.339 -1.1827  3.4318 -0.5356
 2086TIP3   OH227748   4.454   3.603  17.009  0.1655  0.3088 -0.3224
 2086TIP3    H127749   4.382   3.643  17.058  0.6211  0.0673  0.5781
 2086TIP3    H227750   4.473   3.665  16.939 -0.8170  0.4419 -0.4817
 2087TIP3   OH227751   6.551   4.008  17.181 -0.5819 -0.0337 -0.6810
 2087TIP3    H127752   6.538   3.917  17.155  1.7728 -0.6088 -0.1196
 2087TIP3    H227753   6.583   4.052  17.102 -1.2463  0.2087 -0.8242
 2088TIP3   OH227754   2.652   5.003  17.080 -0.0429 -0.3367 -0.1897
 2088TIP3    H127755   2.661   4.960  17.164 -0.4347  0.8665  0.4993
 2088TIP3    H227756   2.726   5.064  17.076  1.2130 -1.8358 -1.6767
 2089TIP3   OH227757   1.124   3.333  13.578 -0.4814 -0.1097  0.8109
 2089TIP3    H127758   1.119   3.252  13.527 -1.0208  1.0518 -1.0946
 2089TIP3    H227759   1.192   3.316  13.643  0.6807 -1.5028 -0.6763
 2090TIP3   OH227760   4.094   4.089   0.046 -0.1260 -0.3624 -0.4633
 2090TIP3    H127761   4.084   4.002   0.083 -3.1329 -0.3980 -1.0979
 2090TIP3    H227762   4.036   4.090  -0.030  1.7489  1.4290 -2.0150
 2091TIP3   OH227763   1.115   3.175   1.182 -0.5316 -0.6979 -0.1227
 2091TIP3    H127764   1.191   3.116   1.184 -1.1795 -1.5762 -0.5899
 2091TIP3    H227765   1.077   3.168   1.269 -1.4653 -2.1709 -0.6027
 2092TIP3   OH227766   0.177   1.297   3.470  0.2377  0.2119 -0.3170
 2092TIP3    H127767   0.164   1.202   3.466  0.7339  0.1263  0.0576
 2092TIP3    H227768   0.099   1.334   3.427 -0.0847 -0.3566 -0.2252
 2093TIP3   OH227769   5.990   2.042   1.122 -0.2770 -0.0240 -0.0313
 2093TIP3    H127770   6.061   2.090   1.079  1.7272 -3.3770 -0.8817
 2093TIP3    H227771   6.030   2.004   1.200 -1.8864  0.0171  0.8554
 2094TIP3   OH227772   5.080   2.844  15.221 -0.5155 -0.4251 -0.2984
 2094TIP3    H127773   5.088   2.919  15.164 -1.6634 -0.2242 -0.2175
 2094TIP3    H227774   4.990   2.813  15.208 -0.2126 -1.4822  0.0266
 2095TIP3   OH227775   4.236   0.934   3.323 -0.1645  0.2489 -0.0199
 2095TIP3    H127776   4.194   0.848   3.318 -0.2884  0.3005  0.1528
 2095TIP3    H227777   4.218   0.974   3.238  0.2899 -0.0802 -0.2783
 2096TIP3   OH227778   3.445   1.171   5.369 -0.4248  0.1313 -0.3903
 2096TIP3    H127779   3.431   1.126   5.452 -0.1712  0.3419 -0.2324
 2096TIP3    H227780   3.533   1.207   5.375 -0.1189 -0.4829 -1.0462
 2097TIP3   OH227781   6.246   2.780  14.826 -0.4746  0.7492  0.4375
 2097TIP3    H127782   6.189   2.857  14.825 -0.2721  0.9345 -1.6365
 2097TIP3    H227783   6.187   2.707  14.809 -0.1143  1.0070 -2.3540
 2098TIP3   OH227784   5.890   0.359  15.438  0.4380  0.1222  0.1349
 2098TIP3    H127785   5.835   0.425  15.480  2.9524  1.6786  1.2317
 2098TIP3    H227786   5.855   0.275  15.467 -1.9902  0.9627 -0.1629
 2099TIP3   OH227787   0.997   5.129   0.470  0.0281  0.1521 -0.3437
 2099TIP3    H127788   1.015   5.177   0.551 -0.8813  1.6264 -0.9700
 2099TIP3    H227789   1.078   5.082   0.451 -0.6751 -2.9285  3.1253
 2100TIP3   OH227790   3.616   5.880   5.180 -0.7060  0.3889 -0.4383
 2100TIP3    H127791   3.619   5.816   5.251 -0.4055  1.2486  0.3454
 2100TIP3    H227792   3.703   5.878   5.142 -0.5044  0.7604 -0.0100
 2101TIP3   OH227793   5.377   6.543  13.653 -0.1382  0.4008 -0.2682
 2101TIP3    H127794   5.416   6.623  13.618 -0.1618  0.7225  0.4412
 2101TIP3    H227795   5.408   6.538  13.743 -0.0987 -0.4175 -0.3192
 2102TIP3   OH227796   5.166   5.458   5.989  0.6276  0.0797 -0.3962
 2102TIP3    H127797   5.232   5.395   6.016  0.2806 -0.1504 -0.0732
 2102TIP3    H227798   5.213   5.521   5.935  1.4048  0.7254  0.9894
 2103TIP3   OH227799   2.879   6.182   4.415 -0.4860  0.3781 -0.2212
 2103TIP3    H127800   2.831   6.182   4.332 -0.6530  1.2100 -0.1306
 2103TIP3    H227801   2.813   6.164   4.482 -0.2831 -0.6961 -0.2960
 2104TIP3   OH227802   2.803   0.228  15.470  0.5303 -0.1053 -0.1467
 2104TIP3    H127803   2.710   0.248  15.480 -0.0430 -2.5198 -0.0355
 2104TIP3    H227804   2.809   0.133  15.484  3.3559  0.2729  2.1854
 2105TIP3   OH227805   1.266   6.548   1.373 -0.0980  0.0889 -0.6790
 2105TIP3    H127806   1.269   6.561   1.278 -1.2937  0.5449 -0.6693
 2105TIP3    H227807   1.190   6.599   1.402  1.9407  2.4712  0.9273
 2106TIP3   OH227808   2.184   1.326  11.450 -0.4358  0.0826 -0.3216
 2106TIP3    H127809   2.266   1.280  11.468  0.2387  2.3857  3.4368
 2106TIP3    H227810   2.124   1.257  11.423  1.8935 -2.1467 -0.1883
 2107TIP3   OH227811   1.165   5.482  14.392  0.0832 -0.5208 -0.0242
 2107TIP3    H127812   1.134   5.509  14.305  0.4812 -1.8192 -0.5917
 2107TIP3    H227813   1.230   5.414  14.374  0.8408 -0.1682  1.2671
 2108TIP3   OH227814   3.776   6.440  17.042  0.1975 -0.1220  0.7929
 2108TIP3    H127815   3.801   6.475  17.127  0.3870  2.6347 -0.2891
 2108TIP3    H227816   3.681   6.433  17.045  0.0475  1.4463  0.7945
 2109TIP3   OH227817   5.520   1.919   1.870  0.1011 -0.3821 -0.3220
 2109TIP3    H127818   5.432   1.893   1.895  0.2530 -1.3593 -0.7382
 2109TIP3    H227819   5.522   1.910   1.775 -0.5750  3.6129 -0.8899
 2110TIP3   OH227820   5.399   3.218   4.179 -0.1786 -0.4629 -0.1495
 2110TIP3    H127821   5.431   3.194   4.092 -0.4476 -0.1446 -0.3361
 2110TIP3    H227822   5.423   3.143   4.234  2.7158  0.5533  0.1801
 2111TIP3   OH227823   4.666   4.331  15.289 -0.1022  0.2870  0.5362
 2111TIP3    H127824   4.715   4.336  15.371 -0.4626 -0.6228  0.8217
 2111TIP3    H227825   4.606   4.258  15.302 -1.4664  1.3034  0.1609
 2112TIP3   OH227826   4.065   1.891   3.261 -0.3855 -0.4219 -0.0511
 2112TIP3    H127827   4.120   1.812   3.257 -0.4516 -0.4898  0.3767
 2112TIP3    H227828   4.080   1.934   3.176 -0.7442 -1.1526 -0.4985
 2113TIP3   OH227829   4.441   1.457   1.311  0.5707  0.3480 -0.4930
 2113TIP3    H127830   4.528   1.498   1.316  0.4152  0.6105  0.0734
 2113TIP3    H227831   4.385   1.512   1.365 -0.1173  0.5885 -1.4130
 2114TIP3   OH227832   5.157   1.060  12.532  0.0470 -0.0835  0.0480
 2114TIP3    H127833   5.200   1.138  12.567 -1.3236  0.0825  1.4546
 2114TIP3    H227834   5.074   1.054  12.580  0.6183 -3.0691  0.8472
 2115TIP3   OH227835   5.928   5.152  13.812 -0.0129  0.5606 -0.3191
 2115TIP3    H127836   5.951   5.114  13.897 -1.5870  0.1302 -0.0539
 2115TIP3    H227837   5.958   5.087  13.748 -0.2622  0.1201  0.0028
 2116TIP3   OH227838   3.321   6.734  13.746 -0.0557  0.5933 -0.2575
 2116TIP3    H127839   3.252   6.795  13.772 -0.9799  0.8783 -3.0611
 2116TIP3    H227840   3.275   6.652  13.727  0.4027  0.6490 -1.7087
 2117TIP3   OH227841   4.363   6.251  17.081 -0.2688 -0.0751 -0.5794
 2117TIP3    H127842   4.332   6.304  17.154 -0.4677 -3.3051  1.8618
 2117TIP3    H227843   4.454   6.279  17.067 -0.5072  1.1846  0.2610
 2118TIP3   OH227844   0.382   2.020   1.259 -0.1629 -0.1591 -0.7920
 2118TIP3    H127845   0.459   1.964   1.251 -0.2864 -0.7271  1.4444
 2118TIP3    H227846   0.408   2.089   1.321 -1.6899 -0.8861  0.7372
 2119TIP3   OH227847   3.572   5.996  13.159 -0.3254 -0.0832 -0.1099
 2119TIP3    H127848   3.478   6.012  13.150 -0.4642 -1.3508 -1.1998
 2119TIP3    H227849   3.612   6.061  13.100 -0.4795  0.6300  0.5485
 2120TIP3   OH227850   6.743   2.088   0.959  0.3428  0.3991 -0.2360
 2120TIP3    H127851   6.826   2.063   0.999  0.6077  0.9740 -0.4224
 2120TIP3    H227852   6.696   2.134   1.029  0.4597  0.6628 -0.3292
 2121TIP3   OH227853   2.480   5.792  17.173  0.4846 -0.2103 -0.0386
 2121TIP3    H127854   2.399   5.830  17.139 -0.8882 -2.3926  0.5786
 2121TIP3    H227855   2.488   5.828  17.261  0.2076  0.0358 -0.1119
 2122TIP3   OH227856   1.393   3.081  16.722 -0.0261 -0.1663  0.3353
 2122TIP3    H127857   1.331   3.127  16.779  0.2702 -0.3465  0.8121
 2122TIP3    H227858   1.347   3.001  16.698 -0.3960  0.1964 -0.1902
 2123TIP3   OH227859   4.717   6.127  12.592 -0.8925  0.0451 -0.0988
 2123TIP3    H127860   4.750   6.069  12.660 -3.8010 -3.1760 -1.1063
 2123TIP3    H227861   4.786   6.130  12.526 -0.1456 -1.1814  0.6040
 2124TIP3   OH227862   2.218   4.068  11.234 -0.3292  0.5132  0.4294
 2124TIP3    H127863   2.186   4.038  11.320 -0.6096 -0.0963  0.1229
 2124TIP3    H227864   2.176   4.008  11.172 -0.2619  1.0611 -0.1451
 2125TIP3   OH227865   3.060   1.351  12.433 -0.1468 -0.1308  0.0517
 2125TIP3    H127866   3.031   1.442  12.432 -0.0914 -0.1157 -0.6111
 2125TIP3    H227867   3.081   1.331  12.342 -0.0151 -0.7625  0.2127
 2126TIP3   OH227868   2.768   1.807  11.916  0.1896  0.1851 -0.1456
 2126TIP3    H127869   2.742   1.763  11.835 -1.7983 -0.2951  0.6990
 2126TIP3    H227870   2.686   1.836  11.955  0.9779 -0.5488  2.2307
 2127TIP3   OH227871   5.352   5.099  17.086  0.3848  0.0360 -1.1507
 2127TIP3    H127872   5.304   5.034  17.034 -1.6067 -1.1430  1.8923
 2127TIP3    H227873   5.325   5.183  17.049 -0.7564 -0.7573 -2.2096
 2128TIP3   OH227874   2.293   4.471  12.551  0.5752  0.4066  0.0548
 2128TIP3    H127875   2.261   4.419  12.624  1.2424  0.3520  0.3099
 2128TIP3    H227876   2.215   4.517  12.519 -0.0660 -0.8764 -0.2951
 2129TIP3   OH227877   0.631   3.556   5.642 -0.2303  0.4104  0.5062
 2129TIP3    H127878   0.552   3.575   5.592 -1.1477 -4.7844 -0.5896
 2129TIP3    H227879   0.602   3.547   5.733 -0.4019  0.7999  0.4897
 2130TIP3   OH227880   5.703   1.743  10.609 -0.3406  0.2410  0.3566
 2130TIP3    H127881   5.791   1.718  10.583 -0.1130 -0.6239  1.8165
 2130TIP3    H227882   5.714   1.829  10.650 -0.0943 -0.0443  0.9031
 2131TIP3   OH227883   5.959   5.820  12.813 -0.7202 -0.0571 -0.5329
 2131TIP3    H127884   6.031   5.776  12.859 -0.9417  0.2534  0.1309
 2131TIP3    H227885   5.895   5.839  12.882  0.1929  3.0248 -0.3708
 2132TIP3   OH227886   0.738   1.003   3.840  0.4636  0.0321  1.1955
 2132TIP3    H127887   0.771   0.921   3.805 -0.3384 -0.0396  0.5936
 2132TIP3    H227888   0.644   0.999   3.827  0.4730  1.2997  0.5924
 2133TIP3   OH227889   4.781   3.082  13.674 -0.1272 -0.4737 -0.1855
 2133TIP3    H127890   4.825   3.006  13.636 -0.8567 -0.0485 -1.9963
 2133TIP3    H227891   4.750   3.132  13.598 -1.8241  0.3407  0.9818
 2134TIP3   OH227892   6.658   1.935  13.070 -0.0439  0.6986 -0.5677
 2134TIP3    H127893   6.633   1.937  12.978  0.8772  0.7286 -0.8273
 2134TIP3    H227894   6.713   2.012  13.082  1.2376 -0.2052 -0.4242
 2135TIP3   OH227895   6.167   1.170   3.396  0.1447 -0.2598 -0.4257
 2135TIP3    H127896   6.134   1.095   3.447  0.5221  0.1350  0.4160
 2135TIP3    H227897   6.141   1.247   3.446  2.0967  0.0817  0.1419
 2136TIP3   OH227898   2.089   0.056   0.470  0.2130 -0.0404  0.1243
 2136TIP3    H127899   2.180   0.050   0.498  0.2493  0.4318  0.1080
 2136TIP3    H227900   2.070  -0.030   0.432  0.1116 -0.7582  1.7216
 2137TIP3   OH227901   0.026   0.943  16.942 -0.3628 -0.0662 -0.0603
 2137TIP3    H127902   0.028   1.034  16.911 -2.5646 -0.0391 -0.3190
 2137TIP3    H227903  -0.012   0.894  16.869  0.6923 -1.1963  0.1225
 2138TIP3   OH227904   2.833   4.197  11.960 -0.5036 -0.1575  0.1205
 2138TIP3    H127905   2.810   4.232  12.046  0.2007 -1.1482  0.7215
 2138TIP3    H227906   2.767   4.234  11.901 -0.8667  0.6966  1.0424
 2139TIP3   OH227907   2.813   3.948   0.413  0.0828 -0.2386 -0.3539
 2139TIP3    H127908   2.896   3.987   0.384  0.3914 -0.4814  0.1804
 2139TIP3    H227909   2.806   3.867   0.363 -0.6353  0.5618 -1.5779
 2140TIP3   OH227910   2.368   4.670  11.281 -0.0475 -0.2989 -0.2571
 2140TIP3    H127911   2.312   4.748  11.287 -0.2405 -0.3689 -1.0217
 2140TIP3    H227912   2.391   4.650  11.371 -0.7304  0.1196  0.0163
 2141TIP3   OH227913   6.290   2.662   0.512  0.6164  0.0061  0.4876
 2141TIP3    H127914   6.274   2.646   0.605  1.0228  0.2634  0.6048
 2141TIP3    H227915   6.380   2.633   0.498  0.0665 -1.4492 -0.1666
 2142TIP3   OH227916   0.592   3.135   5.685 -0.4826  0.0229 -0.5330
 2142TIP3    H127917   0.565   3.050   5.649 -0.3833 -0.0544 -0.4238
 2142TIP3    H227918   0.686   3.126   5.701 -0.9267 -0.9031  2.2821
 2143TIP3   OH227919   4.173   4.317  16.532 -0.4798  0.9458 -0.0310
 2143TIP3    H127920   4.088   4.298  16.571 -0.1047  0.5226  0.6084
 2143TIP3    H227921   4.236   4.287  16.597  0.1641  2.3229  0.0129
 2144TIP3   OH227922   0.219   3.094  14.463  0.0606  0.0944  0.3830
 2144TIP3    H127923   0.239   3.003  14.484 -0.2539  0.0005  0.2753
 2144TIP3    H227924   0.196   3.093  14.370 -0.8385  0.1354  0.5975
 2145TIP3   OH227925   3.569   5.195  14.401  0.6922  0.3143 -0.5272
 2145TIP3    H127926   3.492   5.223  14.351 -1.0376 -0.6607  1.4397
 2145TIP3    H227927   3.588   5.270  14.458 -2.4811 -1.2602  3.0459
 2146TIP3   OH227928   0.346   2.474  16.802 -0.4566  0.2811 -0.0927
 2146TIP3    H127929   0.386   2.560  16.816 -0.0550  0.2982 -1.2112
 2146TIP3    H227930   0.399   2.435  16.733 -0.9017 -0.7010  0.1103
 2147TIP3   OH227931   4.876   4.615  15.858 -0.1715 -0.1148  0.3800
 2147TIP3    H127932   4.943   4.664  15.906 -0.2081 -0.9656  1.3359
 2147TIP3    H227933   4.805   4.602  15.921  0.0797 -1.8699  0.3606
 2148TIP3   OH227934   1.552   3.637   6.428  0.2123  0.0308 -0.2118
 2148TIP3    H127935   1.463   3.607   6.410  0.4386 -3.3960  3.0352
 2148TIP3    H227936   1.605   3.558   6.426  2.8119  1.6415  0.0705
 2149TIP3   OH227937   3.512   2.622   1.808 -0.2311  0.1320  0.4258
 2149TIP3    H127938   3.457   2.652   1.881 -2.8613 -0.8579 -1.0133
 2149TIP3    H227939   3.557   2.544   1.843  0.2795  0.9218  1.6132
 2150TIP3   OH227940   1.020   3.188  15.871 -0.5345  0.2116 -0.7096
 2150TIP3    H127941   1.042   3.213  15.782  1.0602 -0.2118 -0.4641
 2150TIP3    H227942   1.037   3.266  15.923 -0.1068  0.0387 -0.5882
 2151TIP3   OH227943   0.165   0.971   4.784  0.2983  0.1463 -0.4356
 2151TIP3    H127944   0.129   1.028   4.852  0.0856 -0.5606  0.0610
 2151TIP3    H227945   0.146   0.882   4.815  1.2313 -0.2135 -0.8550
 2152TIP3   OH227946   0.787   5.504  12.461 -0.3034  0.1509  0.0251
 2152TIP3    H127947   0.803   5.476  12.371  0.0179  0.4473 -0.0097
 2152TIP3    H227948   0.873   5.506  12.502 -0.4368  0.1149  0.3137
 2153TIP3   OH227949   5.726   0.672   2.888  0.1023  0.5332 -0.2239
 2153TIP3    H127950   5.649   0.722   2.915  0.1725  0.9978 -0.8736
 2153TIP3    H227951   5.796   0.703   2.946 -0.0656  0.5186 -0.0108
 2154TIP3   OH227952   0.897   6.585   0.784 -0.0216 -0.2565 -0.2784
 2154TIP3    H127953   0.863   6.522   0.721  3.0685 -0.4375 -1.9622
 2154TIP3    H227954   0.924   6.532   0.859 -0.5392 -0.4899 -0.2533
 2155TIP3   OH227955   3.260   3.298   0.602 -0.1705  0.2336 -0.4602
 2155TIP3    H127956   3.235   3.323   0.691  0.5644  2.2115 -0.7621
 2155TIP3    H227957   3.187   3.326   0.547 -0.6121 -0.9583 -0.5293
 2156TIP3   OH227958   0.992   2.838  11.764  0.3556 -0.3375 -0.0457
 2156TIP3    H127959   0.980   2.775  11.835  0.8325 -1.3182 -0.8168
 2156TIP3    H227960   1.068   2.889  11.790 -0.4685  0.4447  0.9370
 2157TIP3   OH227961   2.541   5.463   4.231  0.6372 -0.3367  0.2458
 2157TIP3    H127962   2.633   5.444   4.252  0.0353 -0.5601  3.1037
 2157TIP3    H227963   2.504   5.378   4.207  1.0411 -0.3235 -0.4622
 2158TIP3   OH227964   0.662   5.030   5.329  0.7369 -0.3901 -0.0691
 2158TIP3    H127965   0.641   4.988   5.412  0.9970  0.6813  0.5613
 2158TIP3    H227966   0.708   4.963   5.279  0.5173 -1.0735  0.6174
 2159TIP3   OH227967   3.822   2.482   1.718 -0.4671  0.0940 -0.5670
 2159TIP3    H127968   3.829   2.451   1.809 -0.9357  0.6251 -0.3455
 2159TIP3    H227969   3.910   2.511   1.696 -0.6534  1.3580  0.2393
 2160TIP3   OH227970   3.593   1.175  15.006 -0.4829 -0.5579  0.6135
 2160TIP3    H127971   3.660   1.117  14.970  1.2223  1.4880  0.2618
 2160TIP3    H227972   3.517   1.162  14.950  0.7594 -0.4806 -1.1924
 2161TIP3   OH227973   2.372   1.247   6.423  0.2908 -0.6886 -0.3850
 2161TIP3    H127974   2.443   1.236   6.487 -0.8420  2.7786  1.7021
 2161TIP3    H227975   2.297   1.203   6.463 -0.1928  0.7335  0.3256
 2162TIP3   OH227976   0.144   1.513  13.725  0.1421 -0.3105 -0.2566
 2162TIP3    H127977   0.101   1.433  13.754  1.9865 -1.7882 -1.3731
 2162TIP3    H227978   0.186   1.548  13.804 -0.5024 -0.5247  0.1902
 2163TIP3   OH227979   6.501   2.200   1.404  0.2477  0.0271 -0.0591
 2163TIP3    H127980   6.589   2.207   1.367 -0.0147 -1.1190 -0.9211
 2163TIP3    H227981   6.492   2.108   1.429 -0.8264  0.0641 -0.2608
 2164TIP3   OH227982   6.619   3.991  15.944  0.1015  0.1399 -0.6982
 2164TIP3    H127983   6.546   3.991  16.005  0.5465 -1.4821 -0.1121
 2164TIP3    H227984   6.586   4.036  15.867 -1.4639 -0.3936 -0.3809
 2165TIP3   OH227985   1.913   0.068   3.851  0.1368 -0.0217  1.2044
 2165TIP3    H127986   1.869   0.008   3.911 -1.3243 -0.3326 -0.1409
 2165TIP3    H227987   1.950   0.135   3.908 -0.2552 -0.8976  2.5376
 2166TIP3   OH227988   4.424   3.746  13.158 -0.5116 -0.0113  0.1158
 2166TIP3    H127989   4.370   3.668  13.152 -1.5242  0.6830 -0.0501
 2166TIP3    H227990   4.362   3.819  13.149  0.5897  0.8061 -1.2720
 2167TIP3   OH227991   2.979   1.240  11.363 -0.2535  1.0742 -0.1001
 2167TIP3    H127992   3.000   1.331  11.345  0.3797  1.0648  0.5222
 2167TIP3    H227993   3.063   1.194  11.355 -0.3788  0.7122  0.5477
 2168TIP3   OH227994   5.641   2.333   3.651  0.4280 -0.4961 -0.1323
 2168TIP3    H127995   5.600   2.413   3.616 -0.5486 -0.3037  1.3843
 2168TIP3    H227996   5.582   2.263   3.623  0.0351 -0.4224  0.5059
 2169TIP3   OH227997   4.097   1.244  13.633  0.3380  0.2153 -0.1601
 2169TIP3    H127998   4.133   1.169  13.586  1.4726 -0.8800  2.2662
 2169TIP3    H227999   4.002   1.233  13.627  0.3966  0.5980 -2.7737
 2170TIP3   OH228000   0.187   2.922  11.014 -0.2079  0.5932  0.2633
 2170TIP3    H128001   0.240   2.954  10.941  1.5289  0.2180  1.2824
 2170TIP3    H228002   0.113   2.877  10.973  0.9649 -0.0285 -1.2719
 2171TIP3   OH228003   3.876   4.180  12.585  0.1242  0.2648 -0.1348
 2171TIP3    H128004   3.833   4.107  12.540  0.9601  0.8114 -1.8679
 2171TIP3    H228005   3.825   4.257  12.561  1.5724  0.8128 -1.6030
 2172TIP3   OH228006   2.689   5.439  11.894  0.0303 -0.3875  0.0293
 2172TIP3    H128007   2.745   5.507  11.857  0.2649 -0.9016 -0.5823
 2172TIP3    H228008   2.629   5.486  11.952 -0.9436  0.5754 -1.6796
 2173TIP3   OH228009   1.962   0.135  14.288 -0.4558  0.0377  0.3090
 2173TIP3    H128010   1.955   0.039  14.287 -0.6934  0.0552 -0.5216
 2173TIP3    H228011   1.916   0.163  14.209 -0.5568  0.8561  0.6489
 2174TIP3   OH228012   5.427   6.485   4.729 -0.1861 -0.6899 -0.0507
 2174TIP3    H128013   5.335   6.467   4.712 -0.4526 -0.9311  1.4944
 2174TIP3    H228014   5.471   6.467   4.646 -1.6440  0.3873 -1.1002
 2175TIP3   OH228015   0.266   3.190   1.377 -0.0247  0.0050  0.7913
 2175TIP3    H128016   0.192   3.147   1.420 -0.5526 -0.3028 -0.3700
 2175TIP3    H228017   0.231   3.273   1.345 -0.4722 -0.9697 -1.4683
 2176TIP3   OH228018   1.126   4.649  10.395  0.3384 -0.3162  0.6901
 2176TIP3    H128019   1.036   4.617  10.391 -0.2064  1.2411 -1.0540
 2176TIP3    H228020   1.178   4.572  10.418 -1.0857 -1.9610 -1.2552
 2177TIP3   OH228021   0.983   3.663  15.324 -0.9660  0.0647  0.0772
 2177TIP3    H128022   0.950   3.706  15.402 -0.6126  2.3570 -0.9399
 2177TIP3    H228023   1.041   3.728  15.284 -1.0078 -1.0890 -1.9895
 2178TIP3   OH228024   5.601   6.544   2.663 -0.1539  0.2210 -0.1708
 2178TIP3    H128025   5.583   6.480   2.731  1.1579  0.7811  0.7360
 2178TIP3    H228026   5.589   6.496   2.581 -2.9989 -0.1330  0.3638
 2179TIP3   OH228027   3.985   6.338   0.199  0.0627  0.2002  0.3145
 2179TIP3    H128028   3.951   6.402   0.261 -0.2467  0.3841 -0.0439
 2179TIP3    H228029   4.057   6.296   0.246 -0.6432 -0.1917  1.0716
 2180TIP3   OH228030   1.167   0.130  13.351 -0.1433  0.0356 -0.5995
 2180TIP3    H128031   1.072   0.136  13.349 -0.3962 -2.1584  1.1587
 2180TIP3    H228032   1.186   0.036  13.343  1.9272  0.4684 -1.6380
 2181TIP3   OH228033   3.087   4.679  14.893  0.2054 -0.0888 -0.0930
 2181TIP3    H128034   3.110   4.669  14.985 -1.4239 -2.1742  0.1838
 2181TIP3    H228035   3.106   4.770  14.872  0.6224  0.4231  2.3049
 2182TIP3   OH228036   1.777   5.274   5.132  0.6483 -0.0979 -0.0866
 2182TIP3    H128037   1.758   5.231   5.048  1.9749 -0.0449 -0.4318
 2182TIP3    H228038   1.739   5.215   5.197  0.5757 -0.7125 -0.6691
 2183TIP3   OH228039   0.408   0.520   0.179  0.2154 -0.4540 -0.1886
 2183TIP3    H128040   0.391   0.449   0.242 -0.8511  0.0177  0.0792
 2183TIP3    H228041   0.495   0.552   0.202 -0.9151  1.0450  2.4348
 2184TIP3   OH228042   4.404   2.303  16.049 -0.0056 -0.5481  0.5734
 2184TIP3    H128043   4.382   2.237  15.983  0.3991  0.1647 -0.2912
 2184TIP3    H228044   4.482   2.268  16.093 -0.6414 -1.3208  1.1301
 2185TIP3   OH228045   3.956   4.321  12.823  0.6346 -0.6142  0.1585
 2185TIP3    H128046   3.943   4.278  12.907  0.0299 -0.3737  0.1919
 2185TIP3    H228047   3.929   4.257  12.758 -1.4092  0.0863  0.2445
 2186TIP3   OH228048   3.365   5.007  12.310 -0.2553  0.2680  0.0812
 2186TIP3    H128049   3.333   4.920  12.286  2.0992 -1.3923  2.4398
 2186TIP3    H228050   3.442   5.020  12.255 -0.0203  0.4229  0.4510
 2187TIP3   OH228051   6.763   3.649  11.717  0.2307  0.2669 -0.3502
 2187TIP3    H128052   6.720   3.672  11.800 -0.8124 -0.5634 -0.6312
 2187TIP3    H228053   6.837   3.594  11.743 -0.1886 -0.1307  0.0266
 2188TIP3   OH228054   1.161   5.871   6.569  0.0796  0.2579  0.4241
 2188TIP3    H128055   1.255   5.888   6.577  0.0190  0.7135  0.2257
 2188TIP3    H228056   1.154   5.780   6.542  0.3873 -0.5048  2.7402
 2189TIP3   OH228057   5.244   2.910  11.642  0.3955 -0.4084 -0.3217
 2189TIP3    H128058   5.325   2.891  11.690 -0.5792 -0.9922  1.1524
 2189TIP3    H228059   5.242   3.005  11.636  0.1592 -0.2611  1.5438
 2190TIP3   OH228060   4.314   5.715   0.794 -0.0647  0.0733 -0.2846
 2190TIP3    H128061   4.273   5.800   0.809 -0.8397  0.3974 -3.5003
 2190TIP3    H228062   4.246   5.652   0.816 -0.3185  0.3777 -0.1813
 2191TIP3   OH228063   6.288   4.672   2.019  0.2100 -0.1223 -0.1575
 2191TIP3    H128064   6.241   4.700   2.097 -1.6438 -0.7419 -0.9962
 2191TIP3    H228065   6.352   4.741   2.003 -0.2910  0.6711  1.1214
 2192TIP3   OH228066   4.155   5.566  15.999  0.2526  0.2017 -0.4966
 2192TIP3    H128067   4.230   5.507  16.010  3.3451  4.0983  2.4116
 2192TIP3    H228068   4.090   5.535  16.063  1.6497 -0.3379  0.7100
 2193TIP3   OH228069   6.452   5.157   1.112  0.2338  0.1507  0.0881
 2193TIP3    H128070   6.429   5.178   1.203  0.9975  1.4261 -0.0025
 2193TIP3    H228071   6.547   5.166   1.108  0.0185  2.4958 -1.4014
 2194TIP3   OH228072   2.307   0.917   0.213 -0.0542 -0.1552  0.0403
 2194TIP3    H128073   2.258   0.994   0.241  1.5176  1.3239 -1.0520
 2194TIP3    H228074   2.382   0.914   0.273 -1.1820 -2.1661  1.4595
 2195TIP3   OH228075   4.673   3.630   6.271 -0.0954  0.2886 -0.3275
 2195TIP3    H128076   4.622   3.551   6.256  0.2412  0.1098 -0.5406
 2195TIP3    H228077   4.750   3.600   6.320 -0.2116  0.5624  0.0311
 2196TIP3   OH228078   5.604   6.788   6.659  0.3364 -0.1293  0.0490
 2196TIP3    H128079   5.533   6.736   6.696  0.5839 -1.2637 -0.9917
 2196TIP3    H228080   5.588   6.877   6.691 -0.1221 -0.8085  1.8505
 2197TIP3   OH228081   4.095   6.420  11.666  0.3027 -0.1839  0.3741
 2197TIP3    H128082   4.114   6.350  11.727 -0.7086 -0.3132  0.5709
 2197TIP3    H228083   4.087   6.498  11.720 -0.3291 -0.2506  0.3904
 2198TIP3   OH228084   2.097   5.961  12.474  0.1029 -0.1278  0.6709
 2198TIP3    H128085   2.030   5.933  12.536 -1.1828 -0.6769 -0.8961
 2198TIP3    H228086   2.139   6.037  12.516 -1.5902  0.3127  1.6525
 2199TIP3   OH228087   1.870   3.367   5.134  0.6148  0.2558 -0.5596
 2199TIP3    H128088   1.785   3.406   5.150  1.5823  3.0134 -1.5475
 2199TIP3    H228089   1.921   3.385   5.213  1.4633  2.3480 -1.5052
 2200TIP3   OH228090   1.040   5.481   0.447  0.6363  0.3408  0.0495
 2200TIP3    H128091   0.971   5.416   0.443  1.6551 -0.7247 -0.9106
 2200TIP3    H228092   1.062   5.488   0.540 -1.2782  1.3054  0.4729
 2201TIP3   OH228093   6.431   6.420   2.389  0.8509  0.0201 -0.0830
 2201TIP3    H128094   6.498   6.352   2.394 -0.2540 -1.0443  0.9731
 2201TIP3    H228095   6.355   6.382   2.433 -0.4408  1.2052 -1.1816
 2202TIP3   OH228096   3.891   6.044   2.443  0.3504 -0.5310  0.2649
 2202TIP3    H128097   3.929   6.021   2.358 -0.3088  1.7845 -0.7347
 2202TIP3    H228098   3.897   6.139   2.447 -2.4722 -0.3052  1.4348
 2203TIP3   OH228099   4.955   2.178  17.044  0.1282  0.1475 -0.1137
 2203TIP3    H128100   5.025   2.147  17.102 -1.1988  0.2466  1.6229
 2203TIP3    H228101   4.977   2.269  17.027 -0.5344  0.7499  2.0102
 2204TIP3   OH228102   3.706   2.456  13.351  0.4120 -0.8724  0.4523
 2204TIP3    H128103   3.727   2.539  13.309  0.5525  0.2761  2.6907
 2204TIP3    H228104   3.640   2.417  13.294 -1.2303  1.7671  0.3914
 2205TIP3   OH228105   4.856   3.427  12.721  0.1786  1.0592 -0.3132
 2205TIP3    H128106   4.887   3.386  12.641  0.0155 -1.5040  0.8304
 2205TIP3    H228107   4.761   3.432  12.711 -0.0653 -1.0397  0.3866
 2206TIP3   OH228108   3.609   2.551   4.201  0.2362 -0.2560  0.0049
 2206TIP3    H128109   3.659   2.504   4.134  0.2659 -0.6753  0.3156
 2206TIP3    H228110   3.589   2.636   4.161 -0.3295 -0.7494 -0.7950
 2207TIP3   OH228111   2.841   5.504   2.041  0.6054 -0.0104 -0.0264
 2207TIP3    H128112   2.782   5.458   2.101  1.5504 -0.5092  0.5564
 2207TIP3    H228113   2.863   5.438   1.974 -0.3445  0.5055 -0.8686
 2208TIP3   OH228114   2.833   2.105   1.404 -0.4271 -0.1643 -0.2032
 2208TIP3    H128115   2.771   2.034   1.388  0.7484 -1.4474  0.7735
 2208TIP3    H228116   2.919   2.065   1.391  0.2513  1.6125 -1.6601
 2209TIP3   OH228117   1.405   4.181   0.716 -0.0657 -0.1598 -0.2140
 2209TIP3    H128118   1.357   4.147   0.641 -1.4740 -0.1290  0.6425
 2209TIP3    H228119   1.461   4.250   0.680  0.4299 -1.1750 -1.4549
 2210TIP3   OH228120   6.035   0.989  14.280  0.2007 -0.1670 -0.8812
 2210TIP3    H128121   5.946   0.966  14.253  0.5976 -1.4374 -1.1992
 2210TIP3    H228122   6.091   0.932  14.227  1.1704  0.0803 -0.1493
 2211TIP3   OH228123   2.726   3.539  16.039 -0.3172 -0.0053  0.1121
 2211TIP3    H128124   2.714   3.509  15.949  0.0441 -0.6149  0.2610
 2211TIP3    H228125   2.742   3.633  16.031 -1.2319  0.1229 -0.3837
 2212TIP3   OH228126   3.756   6.708  16.248 -0.0015  0.4025  0.2262
 2212TIP3    H128127   3.784   6.774  16.311 -0.1958  0.1191  0.6162
 2212TIP3    H228128   3.823   6.640  16.253 -0.0639  0.3380  0.1967
 2213TIP3   OH228129   3.185   1.097   1.833  0.4579 -0.7473  0.1241
 2213TIP3    H128130   3.161   1.189   1.836 -2.8785 -1.4198 -1.2824
 2213TIP3    H228131   3.124   1.054   1.892 -0.6265 -2.3982 -2.0500
 2214TIP3   OH228132   5.908   5.882   4.470  0.1217 -0.2486 -1.0756
 2214TIP3    H128133   5.865   5.918   4.392  0.0092 -0.4851 -1.1236
 2214TIP3    H228134   5.889   5.789   4.467 -0.2542 -0.1917 -0.5234
 2215TIP3   OH228135   1.356   5.778   5.005 -0.3909 -0.2256 -0.3094
 2215TIP3    H128136   1.433   5.819   5.045 -0.4433 -1.0407  0.6485
 2215TIP3    H228137   1.297   5.851   4.986  1.1339  0.5919 -2.2974
 2216TIP3   OH228138   0.943   0.781   0.946  0.2632  0.4307 -0.3061
 2216TIP3    H128139   1.021   0.749   0.991 -0.4054  0.5214  0.9655
 2216TIP3    H228140   0.970   0.866   0.911  0.3975  1.0450  1.2049
 2217TIP3   OH228141   6.416   5.123   2.983 -0.4850 -0.0396 -0.0882
 2217TIP3    H128142   6.466   5.155   3.058  0.2121 -1.3750  0.0452
 2217TIP3    H228143   6.449   5.035   2.967 -0.5942  0.2161 -2.0013
 2218TIP3   OH228144   2.370   0.762   1.767 -0.0803  0.0812  0.5969
 2218TIP3    H128145   2.279   0.778   1.794 -0.3454 -1.7393  0.9418
 2218TIP3    H228146   2.406   0.706   1.835  1.2238  0.5276  0.3031
 2219TIP3   OH228147   1.996   1.103   3.092 -0.5230  0.3400 -0.0807
 2219TIP3    H128148   2.038   1.189   3.100 -1.4403  0.6396  2.7514
 2219TIP3    H228149   1.913   1.121   3.047 -0.3650  0.8082 -0.1928
 2220TIP3   OH228150   5.829   4.996  10.898  0.0476 -0.3005  0.2314
 2220TIP3    H128151   5.764   5.044  10.947  0.7445  0.6171  0.2807
 2220TIP3    H228152   5.909   5.049  10.904  0.0616  0.0816 -2.2322
 2221TIP3   OH228153   5.363   1.728  15.563  0.0645 -0.5971  0.0471
 2221TIP3    H128154   5.388   1.818  15.584 -0.2207 -0.7271  1.0340
 2221TIP3    H228155   5.441   1.690  15.524  0.0550  0.1957 -0.7837
 2222TIP3   OH228156   1.371   0.170   2.600 -0.1477  0.6015 -0.3403
 2222TIP3    H128157   1.445   0.137   2.550 -0.9385 -0.5522 -0.7922
 2222TIP3    H228158   1.349   0.253   2.558  1.0739  1.1318  0.0119
 2223TIP3   OH228159   6.440   1.669   5.355  0.8630 -0.5199  0.0619
 2223TIP3    H128160   6.446   1.763   5.338  1.9627 -0.3907  1.1004
 2223TIP3    H228161   6.383   1.662   5.432 -0.7644 -0.8575 -1.1034
 2224TIP3   OH228162   2.334   4.308  14.240 -0.0290  0.2973  0.2444
 2224TIP3    H128163   2.245   4.326  14.271  0.5816  0.5373  2.0049
 2224TIP3    H228164   2.351   4.376  14.175 -0.4540  1.4825  1.3274
 2225TIP3   OH228165   1.011   2.841  13.153 -0.5777 -0.1039 -0.4334
 2225TIP3    H128166   0.982   2.751  13.168  0.1442 -0.2068  0.3992
 2225TIP3    H228167   0.954   2.894  13.209  0.4051 -0.2550  0.7543
 2226TIP3   OH228168   6.393   0.150  14.588  0.3169  0.6089 -0.2527
 2226TIP3    H128169   6.349   0.117  14.509  0.6573 -0.6002  0.0373
 2226TIP3    H228170   6.485   0.131  14.574  0.3626  0.2527  0.4956
 2227TIP3   OH228171   4.066   1.008  13.520  0.0349 -0.3029  0.1829
 2227TIP3    H128172   3.975   1.027  13.496  0.0990 -1.1028 -0.7985
 2227TIP3    H228173   4.066   0.914  13.540  0.6452 -0.3205  0.1242
 2228TIP3   OH228174   6.079   6.212  16.735 -0.3606 -0.5555 -0.3698
 2228TIP3    H128175   6.016   6.247  16.672 -0.6556 -0.6828 -0.1439
 2228TIP3    H228176   6.087   6.120  16.713  0.3973 -0.3631 -0.9474
 2229TIP3   OH228177   0.134   0.962  16.571 -0.1394 -0.6154  0.2421
 2229TIP3    H128178   0.079   1.007  16.635 -1.8248  0.4905 -1.8440
 2229TIP3    H228179   0.222   0.996  16.587 -1.0851  2.4024 -0.2445
 2230TIP3   OH228180   3.102   0.352   1.582 -0.2490  0.2279  0.7971
 2230TIP3    H128181   3.058   0.416   1.526  0.5032 -0.3316 -0.4847
 2230TIP3    H228182   3.196   0.368   1.567 -0.0426 -1.4195  0.1191
 2231TIP3   OH228183   0.536   2.141   1.440  0.5155  0.4430  0.3119
 2231TIP3    H128184   0.620   2.186   1.434  0.7132  0.0501  0.1604
 2231TIP3    H228185   0.555   2.059   1.485  0.1109  0.6118  0.7947
 2232TIP3   OH228186   6.678   5.029  13.887  0.1085 -0.1774 -0.5317
 2232TIP3    H128187   6.681   5.053  13.979  2.1066 -0.7923 -0.3885
 2232TIP3    H228188   6.599   4.976  13.879 -0.7971  0.9651  0.5257
 2233TIP3   OH228189   6.512   6.713   2.728  0.3674 -0.1697  0.4873
 2233TIP3    H128190   6.467   6.629   2.718 -0.1306  0.2581 -1.2514
 2233TIP3    H228191   6.571   6.718   2.652 -0.0985  1.3173  0.1897
 2234TIP3   OH228192   1.929   0.236  14.963  1.4138 -0.6418  0.1980
 2234TIP3    H128193   1.879   0.283  14.896 -0.3393 -0.7301  1.3728
 2234TIP3    H228194   1.989   0.180  14.914 -0.2600 -1.1923 -1.3212
 2235TIP3   OH228195   6.472   5.643   4.814  0.5174  0.1997 -0.0482
 2235TIP3    H128196   6.428   5.697   4.748 -0.7198  0.3612  0.8519
 2235TIP3    H228197   6.412   5.645   4.889  0.6788 -1.9908  0.2100
 2236TIP3   OH228198   5.435   0.629   3.216  0.3293  0.6496  0.5163
 2236TIP3    H128199   5.395   0.588   3.139 -0.5876  1.2826  0.6489
 2236TIP3    H228200   5.421   0.566   3.287 -0.6557  0.9651  0.6128
 2237TIP3   OH228201   3.965   5.023  16.157  0.1666  0.7020 -0.7364
 2237TIP3    H128202   3.873   5.008  16.138  0.2756  2.0626 -2.5493
 2237TIP3    H228203   3.967   5.049  16.249 -1.3499  1.4871 -0.9016
 2238TIP3   OH228204   1.876   6.671   2.374  0.4708 -0.1294 -0.6915
 2238TIP3    H128205   1.970   6.675   2.355  0.3955  1.0817 -0.8850
 2238TIP3    H228206   1.861   6.741   2.436 -0.4884  0.4092 -1.4946
 2239TIP3   OH228207   4.841   1.333  14.670  1.0230  0.0951  0.8778
 2239TIP3    H128208   4.769   1.282  14.633 -0.4823  0.9157  2.5317
 2239TIP3    H228209   4.878   1.277  14.738  4.1243 -1.6256 -1.9694
 2240TIP3   OH228210   6.163   3.052   4.577 -0.8820  0.1719 -0.0135
 2240TIP3    H128211   6.119   3.110   4.515  0.1028 -0.1341 -1.0363
 2240TIP3    H228212   6.118   2.968   4.566 -0.1221 -0.1267 -1.0184
 2241TIP3   OH228213   6.472   5.268  11.955  0.3033 -0.5108  0.3718
 2241TIP3    H128214   6.393   5.223  11.985  0.6985  0.3491  3.0434
 2241TIP3    H228215   6.538   5.245  12.020  1.9358 -0.2561 -1.1415
 2242TIP3   OH228216   1.212   6.190   5.765  0.5033 -0.9236  0.1037
 2242TIP3    H128217   1.143   6.186   5.699  1.3099  0.2757 -0.8495
 2242TIP3    H228218   1.171   6.235   5.839  0.9518  2.3111 -1.4595
 2243TIP3   OH228219   1.259   4.429   3.992 -0.0205 -0.0083  0.4922
 2243TIP3    H128220   1.325   4.404   4.057 -1.8360 -1.9976  1.7063
 2243TIP3    H228221   1.305   4.423   3.908  1.5887 -0.3726  1.3551
 2244TIP3   OH228222   5.249   0.764  11.230 -0.3639 -0.2108  0.3769
 2244TIP3    H128223   5.213   0.819  11.299 -0.6236  1.2722 -0.8934
 2244TIP3    H228224   5.188   0.691  11.223 -0.9469  0.2155  0.9467
 2245TIP3   OH228225   1.876   1.672  14.108 -0.6083  0.7643  0.6738
 2245TIP3    H128226   1.967   1.697  14.091 -0.6033  0.5826  0.4315
 2245TIP3    H228227   1.859   1.602  14.046 -1.5543  2.1443 -0.6956
 2246TIP3   OH228228   5.283   1.760  14.873 -0.0866  0.1748  0.0185
 2246TIP3    H128229   5.285   1.727  14.783 -0.2666 -1.5087  0.6119
 2246TIP3    H228230   5.285   1.682  14.928  0.6989  1.1928  1.5064
 2247TIP3   OH228231   6.246   3.883   5.304 -0.0319  0.1708  0.2192
 2247TIP3    H128232   6.289   3.896   5.389  2.0595  1.6409 -0.9591
 2247TIP3    H228233   6.160   3.924   5.313  0.1207  0.2215  1.6301
 2248TIP3   OH228234   5.893   5.693  11.825  0.4152 -0.4457 -0.1187
 2248TIP3    H128235   5.954   5.761  11.796  0.5549 -1.2483 -1.7962
 2248TIP3    H228236   5.944   5.613  11.827  0.9267 -0.2704  4.2337
 2249TIP3   OH228237   0.592   4.304   6.356 -1.0821  0.4482 -0.2927
 2249TIP3    H128238   0.678   4.343   6.371 -1.2702  0.6743  0.2188
 2249TIP3    H228239   0.610   4.212   6.340 -0.8330  0.2563  0.9780
 2250TIP3   OH228240   6.690   6.718  11.606 -0.2948  0.2355  0.4594
 2250TIP3    H128241   6.686   6.688  11.515  0.7382 -1.1326  0.8294
 2250TIP3    H228242   6.770   6.771  11.610 -0.2167  0.1066  0.6170
 2251TIP3   OH228243   6.373   1.809   2.373 -0.1718  0.9425 -0.3458
 2251TIP3    H128244   6.451   1.756   2.390 -1.4856 -1.3629 -1.0675
 2251TIP3    H228245   6.383   1.838   2.282 -1.6188 -2.2579 -1.6740
 2252TIP3   OH228246   6.744   1.842   3.218 -0.2937  0.0301  0.3087
 2252TIP3    H128247   6.833   1.875   3.204 -0.3924  0.0311 -0.3089
 2252TIP3    H228248   6.750   1.794   3.301  0.7986 -1.7747 -0.7599
 2253TIP3   OH228249   0.760   2.690   2.103  0.0678  0.9812 -0.5708
 2253TIP3    H128250   0.670   2.689   2.071  0.5558  3.9222 -2.3858
 2253TIP3    H228251   0.751   2.688   2.199 -1.7170 -1.7173 -0.6991
 2254TIP3   OH228252   0.181   6.077  16.308  0.3524 -0.2833 -0.0735
 2254TIP3    H128253   0.216   6.030  16.232  1.5886 -1.9667  1.4680
 2254TIP3    H228254   0.113   6.020  16.343  0.3048  0.1420  0.5394
 2255TIP3   OH228255   1.844   5.451  12.869  0.1936  0.6507  0.1878
 2255TIP3    H128256   1.915   5.437  12.932  0.1388 -0.9160 -0.0715
 2255TIP3    H228257   1.798   5.368  12.866  0.6221  0.4258 -2.4496
 2256TIP3   OH228258   3.567   1.778  14.679 -0.1344 -0.0447  0.5847
 2256TIP3    H128259   3.527   1.811  14.760  1.0618  0.7757  0.8694
 2256TIP3    H228260   3.498   1.787  14.613  0.1063  3.2209  0.6120
 2257TIP3   OH228261   4.733   1.317  16.185 -0.1341  0.0002  0.4469
 2257TIP3    H128262   4.694   1.389  16.135 -0.0269  0.4211  0.9592
 2257TIP3    H228263   4.684   1.239  16.157  0.2209  0.1529 -0.6389
 2258TIP3   OH228264   5.723   5.414   5.914 -0.2682  0.3620 -0.0662
 2258TIP3    H128265   5.694   5.483   5.855 -1.9588  0.3249  0.6630
 2258TIP3    H228266   5.720   5.455   6.001 -0.1993 -0.2858  0.2473
 2259TIP3   OH228267   6.286   5.224   4.146 -0.0416  0.0996  0.0601
 2259TIP3    H128268   6.209   5.206   4.200  0.1274 -0.0326  0.2583
 2259TIP3    H228269   6.336   5.142   4.148  1.8728  1.1930  2.8020
 2260TIP3   OH228270   2.859   3.344  14.549  0.3329  0.2107 -0.1457
 2260TIP3    H128271   2.788   3.402  14.523  0.9045  0.7789 -0.4544
 2260TIP3    H228272   2.938   3.382  14.509  1.0138  0.2842  1.2104
 2261TIP3   OH228273   0.513   0.802  11.280 -0.0514 -0.2338 -0.6407
 2261TIP3    H128274   0.474   0.821  11.195  0.3589  0.6106 -0.6404
 2261TIP3    H228275   0.598   0.764  11.259  0.6900  1.3637 -0.6004
 2262TIP3   OH228276   3.689   0.752  13.853  0.1945 -0.1770  0.3677
 2262TIP3    H128277   3.766   0.799  13.821 -1.0993 -0.2530 -3.3827
 2262TIP3    H228278   3.643   0.815  13.908  1.0565  1.1740 -0.4046
 2263TIP3   OH228279   3.972   2.320   4.176  0.4732 -0.0052 -0.8555
 2263TIP3    H128280   3.896   2.377   4.166  0.3035 -0.1816 -0.5741
 2263TIP3    H228281   4.046   2.374   4.148  0.3170  0.3645 -0.5675
 2264TIP3   OH228282   4.971   3.177  14.288  0.0787 -0.0427  0.0394
 2264TIP3    H128283   4.917   3.125  14.229  0.2234  1.0128 -1.0577
 2264TIP3    H228284   5.048   3.122  14.304  0.2472 -0.1680 -1.1290
 2265TIP3   OH228285   2.754   2.869  15.763 -0.0315 -0.4947  0.1595
 2265TIP3    H128286   2.772   2.875  15.856 -0.8794 -0.9919  0.3603
 2265TIP3    H228287   2.823   2.811  15.729  1.0674  0.7187  0.2284
 2266TIP3   OH228288   1.314   0.796   1.602 -0.2647  0.7241  0.1717
 2266TIP3    H128289   1.289   0.845   1.523  0.9531  2.1111  0.6124
 2266TIP3    H228290   1.364   0.858   1.654  1.5830 -1.0660  0.6555
 2267TIP3   OH228291   0.048   3.920  11.720  0.1285 -0.4348 -0.8314
 2267TIP3    H128292   0.100   3.877  11.788  0.7312 -0.7789 -1.5001
 2267TIP3    H228293  -0.018   3.855  11.695  1.2308 -1.1224 -2.0599
 2268TIP3   OH228294   2.325   3.268   5.544 -0.4410  0.5860  0.0937
 2268TIP3    H128295   2.314   3.209   5.618  0.4757  0.0287 -0.2063
 2268TIP3    H228296   2.415   3.254   5.514 -1.0454  0.1844 -1.6513
 2269TIP3   OH228297   5.006   2.415   1.421 -0.0141 -0.4291 -0.1644
 2269TIP3    H128298   4.921   2.376   1.440 -0.0165 -0.8867 -1.0221
 2269TIP3    H228299   5.014   2.409   1.326  0.4744  0.6827 -0.2104
 2270TIP3   OH228300   6.015   4.516  13.026 -0.4347  0.1482  0.0695
 2270TIP3    H128301   5.923   4.497  13.044  0.1949 -1.8170  1.6212
 2270TIP3    H228302   6.026   4.496  12.933 -1.6658  0.9443 -0.2676
 2271TIP3   OH228303   1.395   5.653  16.494 -0.2588  0.2402 -0.0680
 2271TIP3    H128304   1.371   5.679  16.406 -0.1798  0.7231  0.0495
 2271TIP3    H228305   1.315   5.665  16.546 -0.7375 -1.4532 -0.3552
 2272TIP3   OH228306   0.017   5.690  13.471  0.2313 -0.0239  0.1679
 2272TIP3    H128307   0.074   5.630  13.424  1.3081  0.3221  1.0101
 2272TIP3    H228308  -0.050   5.714  13.407  1.2108 -0.1830 -0.9446
 2273TIP3   OH228309   1.680   1.892  12.994  0.3173 -0.3999 -0.0105
 2273TIP3    H128310   1.628   1.941  12.931  1.9538  1.6167  0.1039
 2273TIP3    H228311   1.625   1.889  13.073 -0.6427 -0.5634 -0.6709
 2274TIP3   OH228312   5.423   3.061  11.173 -0.2068 -0.0971 -0.5891
 2274TIP3    H128313   5.368   3.015  11.235  0.3845  2.9217  2.4695
 2274TIP3    H228314   5.511   3.028  11.189 -0.1141  0.3845 -0.0772
 2275TIP3   OH228315   0.248   5.593  13.302 -0.0315  1.0035  0.5892
 2275TIP3    H128316   0.249   5.682  13.266  2.5664  0.2566 -1.4364
 2275TIP3    H228317   0.273   5.537  13.229 -2.5098 -1.6071  1.5480
 2276TIP3   OH228318   2.355   2.500  14.659  0.0658 -0.3310  0.8858
 2276TIP3    H128319   2.259   2.501  14.656  0.0774  0.0899  0.4670
 2276TIP3    H228320   2.378   2.411  14.687 -0.4616 -0.2110  1.7477
 2277TIP3   OH228321   5.425   3.587  15.158  0.4630 -0.0350 -0.2446
 2277TIP3    H128322   5.330   3.587  15.172  0.2732 -2.4117 -1.0161
 2277TIP3    H228323   5.455   3.503  15.194  1.9467 -0.2101 -1.7428
 2278TIP3   OH228324   6.264   5.821   0.231 -0.3592 -0.3119  0.2995
 2278TIP3    H128325   6.354   5.800   0.205  0.0296 -0.2042  1.4900
 2278TIP3    H228326   6.243   5.757   0.299 -0.8717  0.1930  0.6255
 2279TIP3   OH228327   4.993   2.648  13.950 -0.1393  0.8567  0.9306
 2279TIP3    H128328   4.935   2.721  13.969 -0.8576  0.5193  0.1334
 2279TIP3    H228329   4.971   2.582  14.016 -1.5148  0.2925 -0.0155
 2280TIP3   OH228330   6.508   5.954   0.410  0.3885 -0.1228 -0.0668
 2280TIP3    H128331   6.498   5.952   0.505 -1.5334  0.1711 -0.2270
 2280TIP3    H228332   6.430   5.998   0.378 -0.1370 -2.2280 -1.9343
 2281TIP3   OH228333   4.562   4.833  14.944  0.2083 -0.5176  0.1304
 2281TIP3    H128334   4.558   4.909  15.003  0.0594  0.1489 -0.7246
 2281TIP3    H228335   4.630   4.777  14.982  0.1777 -0.0564  0.8876
 2282TIP3   OH228336   2.998   0.536   1.071  0.2530  0.2596 -0.0546
 2282TIP3    H128337   3.028   0.454   1.110  0.7792  0.4135 -0.1421
 2282TIP3    H228338   2.971   0.512   0.982  0.5245  0.2012 -0.1222
 2283TIP3   OH228339   1.298   4.372  10.821  0.1321 -0.4260  0.4431
 2283TIP3    H128340   1.246   4.326  10.755  0.3312  0.7666 -0.5838
 2283TIP3    H228341   1.234   4.426  10.868  0.2293  0.0020  0.0910
 2284TIP3   OH228342   0.678   1.116  16.128 -0.0476 -0.6194  0.1711
 2284TIP3    H128343   0.599   1.098  16.078 -1.1003  0.1149  1.4902
 2284TIP3    H228344   0.722   1.186  16.080 -1.0102  0.0420  0.2323
 2285TIP3   OH228345   2.843   0.775   1.906  0.0146  1.0424  0.5658
 2285TIP3    H128346   2.866   0.729   1.825 -0.1977  0.0660  1.0490
 2285TIP3    H228347   2.804   0.857   1.876 -1.7528 -0.0821 -0.3900
 2286TIP3   OH228348   1.656   3.336   3.398 -0.0238 -0.4514 -0.4026
 2286TIP3    H128349   1.667   3.419   3.351  1.1946 -0.9059 -0.9411
 2286TIP3    H228350   1.595   3.286   3.344  0.0846 -0.3312 -0.6375
 2287TIP3   OH228351   1.332   4.417   5.086 -0.3380  0.3970 -0.5530
 2287TIP3    H128352   1.239   4.407   5.066 -0.1894 -0.2572 -0.9825
 2287TIP3    H228353   1.366   4.471   5.015 -0.5002  1.1522 -0.0643
 2288TIP3   OH228354   0.163   6.209  12.438 -0.2925  0.4840  0.1442
 2288TIP3    H128355   0.162   6.236  12.346  0.9065 -1.7959 -0.6324
 2288TIP3    H228356   0.075   6.174  12.453  0.4578 -2.3295 -1.3025
 2289TIP3   OH228357   3.791   0.537  11.227  0.4026  0.3740 -0.2091
 2289TIP3    H128358   3.758   0.544  11.317  0.9385  0.3944 -0.0123
 2289TIP3    H228359   3.733   0.472  11.186  0.0987  0.4316  0.1200
 2290TIP3   OH228360   5.346   1.798   0.180 -0.2700 -0.2970 -0.0063
 2290TIP3    H128361   5.354   1.730   0.113  0.6112 -0.9766  0.7534
 2290TIP3    H228362   5.255   1.792   0.211 -0.1573 -1.2527  0.1642
 2291TIP3   OH228363   1.153   5.331   3.891  0.1669  0.1552 -0.4187
 2291TIP3    H128364   1.223   5.362   3.948  0.2297 -0.5483 -0.1117
 2291TIP3    H228365   1.117   5.255   3.936 -1.2875  0.9280 -0.2083
 2292TIP3   OH228366   4.089   2.091  13.551 -0.1818 -0.0439 -0.0461
 2292TIP3    H128367   4.167   2.141  13.528 -1.0216  0.4589 -1.9844
 2292TIP3    H228368   4.120   2.028  13.616  2.0678 -0.4946 -1.4321
 2293TIP3   OH228369   5.142   4.945   4.558  0.1955 -0.9391  0.4305
 2293TIP3    H128370   5.155   5.030   4.516  0.8578 -2.2505 -2.2384
 2293TIP3    H228371   5.050   4.944   4.582 -0.1099  0.0905 -0.5882
 2294TIP3   OH228372   1.328   5.115  14.517  0.3780 -0.3360  0.1208
 2294TIP3    H128373   1.293   5.202  14.501  1.8530 -0.0653 -2.0106
 2294TIP3    H228374   1.251   5.058  14.522 -0.8718  1.3296  4.4981
 2295TIP3   OH228375   0.029   6.558  12.499 -0.1779  0.1678 -0.5909
 2295TIP3    H128376   0.110   6.545  12.548 -0.3281  0.1119 -0.3537
 2295TIP3    H228377   0.057   6.572  12.409  0.1356  0.7898 -0.4036
 2296TIP3   OH228378   5.872   4.940  13.490  0.2004 -1.0427 -0.2584
 2296TIP3    H128379   5.798   5.000  13.497  0.8970 -0.1033 -0.7123
 2296TIP3    H228380   5.844   4.861  13.537 -0.2241  0.1362  1.5586
 2297TIP3   OH228381   6.291   1.638  14.685  0.4464 -0.6646 -0.2529
 2297TIP3    H128382   6.267   1.584  14.610  0.4386 -1.3920  0.2626
 2297TIP3    H228383   6.373   1.601  14.717 -0.4033 -1.4324  1.1110
 2298TIP3   OH228384   1.920   1.649   4.032 -0.1618  0.1991  0.2744
 2298TIP3    H128385   1.953   1.575   3.982 -1.7106 -0.2943 -0.0653
 2298TIP3    H228386   1.962   1.640   4.118  0.2290 -0.6538  0.0077
 2299TIP3   OH228387   5.611   3.154   5.375  0.9665 -0.4068 -0.2429
 2299TIP3    H128388   5.547   3.138   5.306  0.5014 -0.2220  0.1358
 2299TIP3    H228389   5.652   3.069   5.390 -1.1656 -1.2328  1.4514
 2300TIP3   OH228390   4.277   4.495  13.973  0.0581 -0.6610 -0.0263
 2300TIP3    H128391   4.299   4.425  13.911 -0.3254 -1.1761  0.4063
 2300TIP3    H228392   4.360   4.518  14.014  0.3232 -0.2816 -0.7650
 2301TIP3   OH228393   2.648   1.789  13.283  0.3457 -0.0460  0.3365
 2301TIP3    H128394   2.614   1.865  13.236  1.2442  0.0933 -0.1094
 2301TIP3    H228395   2.570   1.745  13.318 -0.2039  0.8858  0.3098
 2302TIP3   OH228396   3.673   1.735  15.120 -0.1426 -0.0198 -0.2468
 2302TIP3    H128397   3.716   1.658  15.084  1.4598 -0.1560  1.7665
 2302TIP3    H228398   3.743   1.801  15.128 -0.5655  0.2597  1.7201
 2303TIP3   OH228399   5.746   1.098   0.415 -0.3388  0.1586 -0.1325
 2303TIP3    H128400   5.836   1.111   0.385 -0.1201 -0.3919  0.2736
 2303TIP3    H228401   5.753   1.041   0.491 -1.0964 -0.5865 -0.5954
 2304TIP3   OH228402   6.207   4.585  10.656  0.1203  0.1277 -0.5982
 2304TIP3    H128403   6.293   4.574  10.616  0.3726 -1.7437  0.3782
 2304TIP3    H228404   6.157   4.509  10.627  0.1918 -1.0928  2.2434
 2305TIP3   OH228405   6.665   1.826  11.414 -0.3112  0.0628  0.6231
 2305TIP3    H128406   6.621   1.741  11.426  0.1232 -0.5849 -1.8060
 2305TIP3    H228407   6.758   1.804  11.408 -0.0726  0.8818  1.1825
 2306TIP3   OH228408   0.244   3.835   1.349 -0.1496 -0.0917 -0.1151
 2306TIP3    H128409   0.242   3.930   1.360  1.3416 -0.2041  1.5653
 2306TIP3    H228410   0.234   3.801   1.438  0.3633 -1.4861 -0.5651
 2307TIP3   OH228411   0.003   1.785   3.494 -0.3856  0.4118 -0.4668
 2307TIP3    H128412   0.078   1.736   3.527 -0.7085  0.2617  0.0455
 2307TIP3    H228413  -0.067   1.768   3.556 -1.0476  0.0106 -1.2950
 2308TIP3   OH228414   3.451   4.792   3.914  0.4025  0.0027 -0.5257
 2308TIP3    H128415   3.382   4.824   3.973  0.3409 -0.3552 -0.4025
 2308TIP3    H228416   3.502   4.870   3.892  0.5162  0.1090  0.1195
 2309TIP3   OH228417   6.302   4.807   3.951  0.3316 -0.5366 -0.3113
 2309TIP3    H128418   6.329   4.746   3.882  1.4040 -2.6314  1.8146
 2309TIP3    H228419   6.268   4.751   4.020 -0.5570  1.4680  0.9719
 2310TIP3   OH228420   6.592   6.069   1.971  0.0906  0.1861 -0.4417
 2310TIP3    H128421   6.631   6.146   1.930 -0.3938  0.5600 -0.2079
 2310TIP3    H228422   6.514   6.102   2.015 -0.5610 -0.5602 -0.9943
 2311TIP3   OH228423   2.984   6.130   0.561  0.2935  0.1564 -0.3710
 2311TIP3    H128424   2.928   6.054   0.575  0.4297  0.1216 -0.0022
 2311TIP3    H228425   3.073   6.097   0.571  0.3239  0.7041  1.6688
 2312TIP3   OH228426   5.109   5.320  14.487 -0.2151  0.3915 -0.3388
 2312TIP3    H128427   5.097   5.414  14.501 -1.9057  0.1295  0.1821
 2312TIP3    H228428   5.074   5.304  14.399 -0.1044  0.2138 -0.3512
 2313TIP3   OH228429   0.834   4.102  13.043 -0.1619 -0.1121 -0.2268
 2313TIP3    H128430   0.776   4.167  13.081  1.7277  1.5721 -0.0499
 2313TIP3    H228431   0.877   4.060  13.118 -1.0881 -1.3532 -0.3532
 2314TIP3   OH228432   3.862   6.429   2.149  0.1068 -0.0998 -1.1126
 2314TIP3    H128433   3.957   6.436   2.138  0.4940  0.1346  1.6170
 2314TIP3    H228434   3.836   6.360   2.089  1.9388  0.0800 -2.2068
 2315TIP3   OH228435   1.385   3.865   4.819  0.9129  0.1562 -0.3809
 2315TIP3    H128436   1.443   3.850   4.894  2.2126 -0.3175 -1.4320
 2315TIP3    H228437   1.396   3.788   4.764 -2.2147 -0.8684  0.2374
 2316TIP3   OH228438   4.822   2.775   5.094  0.1303  0.0848 -0.4150
 2316TIP3    H128439   4.736   2.743   5.067 -0.1221 -0.5780  1.1041
 2316TIP3    H228440   4.828   2.863   5.058 -1.4784  0.4099  0.0651
 2317TIP3   OH228441   4.498   3.354   4.862 -0.4632 -0.1286  0.7002
 2317TIP3    H128442   4.452   3.273   4.884 -1.7851  0.3023 -0.3241
 2317TIP3    H228443   4.443   3.394   4.794  1.1629  0.6774 -0.1912
 2318TIP3   OH228444   6.058   3.171  12.964  0.3220 -0.0983 -0.2256
 2318TIP3    H128445   6.008   3.126  12.896 -2.3341  1.5540  0.5069
 2318TIP3    H228446   6.063   3.262  12.935  2.3132 -0.0321  0.1351
 2319TIP3   OH228447   1.898   1.697  14.397 -0.9536 -0.2149 -0.2726
 2319TIP3    H128448   1.893   1.658  14.309 -0.8759  2.6571 -1.6809
 2319TIP3    H228449   1.991   1.695  14.418 -0.8437 -0.0210 -0.7232
 2320TIP3   OH228450   4.835   6.819   1.222 -0.0200 -0.7816  0.5057
 2320TIP3    H128451   4.783   6.898   1.239  0.0789 -0.2775 -1.2961
 2320TIP3    H228452   4.924   6.843   1.249 -0.0404 -0.3650  0.2140
 2321TIP3   OH228453   2.934   5.238   5.260 -0.5123 -0.6629 -0.1691
 2321TIP3    H128454   3.008   5.179   5.246 -0.4128 -1.0325  1.6613
 2321TIP3    H228455   2.887   5.200   5.334 -0.8630  1.1619  0.5922
 2322TIP3   OH228456   0.802   2.428   5.577 -0.1013  0.3546 -0.6863
 2322TIP3    H128457   0.718   2.473   5.587 -0.8480 -0.4313 -2.7997
 2322TIP3    H228458   0.832   2.412   5.666 -0.3191  3.9805  0.1822
 2323TIP3   OH228459   3.646   1.298  16.277 -0.2349 -0.5388  0.3854
 2323TIP3    H128460   3.561   1.255  16.268 -0.9133  0.2428  2.5519
 2323TIP3    H228461   3.627   1.391  16.267  0.4118 -0.3696  0.6847
 2324TIP3   OH228462   2.948   1.689  13.722  0.3559 -0.5216 -0.4095
 2324TIP3    H128463   2.925   1.744  13.798 -2.0013 -1.5770 -0.2875
 2324TIP3    H228464   3.027   1.643  13.750 -0.2615 -0.6283  1.3036
 2325TIP3   OH228465   6.478   3.070  13.478 -0.1765 -0.2943 -0.0450
 2325TIP3    H128466   6.475   3.051  13.572  0.1098  1.7433  0.4264
 2325TIP3    H228467   6.566   3.103  13.462 -0.8003  1.2285 -0.5961
 2326TIP3   OH228468   5.730   3.900  14.800  0.0656  0.0916  0.7536
 2326TIP3    H128469   5.683   3.960  14.857 -0.4282 -0.4008  0.8709
 2326TIP3    H228470   5.809   3.948  14.774 -0.3881  0.8370  0.7360
 2327TIP3   OH228471   5.461   1.734  16.131 -0.3096  0.4569 -0.0083
 2327TIP3    H128472   5.433   1.647  16.104  0.2170  0.8929 -2.0829
 2327TIP3    H228473   5.439   1.791  16.058  2.2616  1.5067 -0.0668
 2328TIP3   OH228474   0.504   4.691  15.926 -0.2293 -0.6178 -0.1499
 2328TIP3    H128475   0.533   4.602  15.942 -0.0723 -0.8108 -1.4035
 2328TIP3    H228476   0.515   4.736  16.010 -1.1333 -1.9814  0.7332
 2329TIP3   OH228477   1.225   1.749  16.099  0.8990 -0.5049  0.4359
 2329TIP3    H128478   1.200   1.674  16.046  2.7050 -0.1281 -1.0717
 2329TIP3    H228479   1.274   1.712  16.173  0.3588 -0.9029  0.5971
 2330TIP3   OH228480   2.544   4.341  12.539 -0.1524 -0.8042 -1.1618
 2330TIP3    H128481   2.598   4.420  12.537 -0.1913 -0.7240  0.1648
 2330TIP3    H228482   2.456   4.374  12.558  0.0429 -1.2320  0.6636
 2331TIP3   OH228483   6.715   3.392  14.561 -0.2911 -0.0768 -0.9925
 2331TIP3    H128484   6.763   3.319  14.598 -0.2739  1.0984  1.4945
 2331TIP3    H228485   6.782   3.445  14.517  0.1014 -0.2120 -0.5597
 2332TIP3   OH228486   6.406   6.221  13.650  0.0617 -0.0190  0.8141
 2332TIP3    H128487   6.319   6.221  13.609  0.4772 -0.2345 -0.0851
 2332TIP3    H228488   6.464   6.254  13.582  0.7334 -0.1713  1.3108
 2333TIP3   OH228489   4.825   3.114  12.022  0.5181  0.1210  0.3004
 2333TIP3    H128490   4.910   3.115  12.066  0.3481  0.8338  0.6252
 2333TIP3    H228491   4.769   3.167  12.078  0.3483  1.2211 -0.8708
 2334TIP3   OH228492   3.056   3.727   3.011 -0.3294  0.1444 -0.3920
 2334TIP3    H128493   3.062   3.678   3.093 -1.1610  1.3857  0.4584
 2334TIP3    H228494   2.978   3.691   2.968 -0.5963  0.3000 -0.0495
 2335TIP3   OH228495   4.004   1.716  16.913  0.5009  0.5129 -0.1830
 2335TIP3    H128496   4.005   1.622  16.894  2.1275  0.6508 -1.0012
 2335TIP3    H228497   4.091   1.747  16.885  0.9403  1.8149  2.3418
 2336TIP3   OH228498   4.960   3.374  12.175  1.3522 -0.3007  0.2987
 2336TIP3    H128499   4.949   3.339  12.263  0.3635 -1.5356 -0.2778
 2336TIP3    H228500   4.960   3.469  12.187 -2.4033 -0.2473  1.3531
 2337TIP3   OH228501   3.462   1.444  15.333  0.0808 -0.1367  0.0152
 2337TIP3    H128502   3.517   1.438  15.255  0.0832 -0.9347  0.0706
 2337TIP3    H228503   3.494   1.375  15.391 -2.8312 -2.6976 -1.1326
 2338TIP3   OH228504   2.238   3.671   1.954  0.0456  0.0819 -0.1666
 2338TIP3    H128505   2.234   3.736   2.024 -0.6139 -1.2512  1.0763
 2338TIP3    H228506   2.152   3.676   1.912 -0.0465 -0.0737  0.0044
 2339TIP3   OH228507   0.860   4.363  17.122 -0.9287  0.1389  0.0655
 2339TIP3    H128508   0.895   4.333  17.038  0.4403  0.3404  0.5383
 2339TIP3    H228509   0.774   4.399  17.101  0.3518  2.4052 -1.6862
 2340TIP3   OH228510   2.560   5.078  11.110  0.6995  0.3470  0.1390
 2340TIP3    H128511   2.481   5.071  11.057  0.7758  1.0435 -0.0770
 2340TIP3    H228512   2.580   4.988  11.135 -0.7798  0.2735  1.1311
 2341TIP3   OH228513   0.537   3.183   5.234  0.2811  0.0819 -0.2270
 2341TIP3    H128514   0.622   3.158   5.270  0.2100  0.2354  0.0497
 2341TIP3    H228515   0.494   3.232   5.304 -0.2546 -0.4599 -0.1646
 2342TIP3   OH228516   0.220   0.429   5.229 -0.3615 -0.0070  0.3040
 2342TIP3    H128517   0.179   0.343   5.231 -0.0356 -0.1744  0.0059
 2342TIP3    H228518   0.264   0.432   5.144  0.6654 -0.0474  0.8131
 2343TIP3   OH228519   4.682   5.634   3.975 -0.2362  0.4064  0.1531
 2343TIP3    H128520   4.612   5.585   3.931  0.8924 -0.7664 -0.4019
 2343TIP3    H228521   4.636   5.693   4.035 -1.6890 -0.3802 -0.1445
 2344TIP3   OH228522   6.811   5.068  15.772  0.4572  0.5835 -0.2415
 2344TIP3    H128523   6.761   5.115  15.705 -0.4286 -1.5788 -1.1970
 2344TIP3    H228524   6.856   5.136  15.821  0.5399  2.3054 -2.5632
 2345TIP3   OH228525   3.407   5.863  15.153  0.6582 -0.1038 -0.3792
 2345TIP3    H128526   3.461   5.817  15.218  0.0821 -0.6211 -0.2554
 2345TIP3    H228527   3.408   5.805  15.077  3.9731  1.9154 -2.1093
 2346TIP3   OH228528   5.858   6.143  13.111  0.4645 -0.2354  0.5372
 2346TIP3    H128529   5.883   6.155  13.203  0.0069  2.3534  0.4115
 2346TIP3    H228530   5.762   6.138  13.113  0.4339  0.1701  0.1885
 2347TIP3   OH228531   0.606   6.333   6.226 -0.1253  0.7542  0.2358
 2347TIP3    H128532   0.543   6.331   6.298  0.1931  0.5834  0.5125
 2347TIP3    H228533   0.692   6.337   6.269  0.0451  1.2083 -0.1409
 2348TIP3   OH228534   2.503   1.615  12.229 -0.4329 -0.3412  0.4514
 2348TIP3    H128535   2.412   1.647  12.227 -0.3883 -0.2474 -0.0610
 2348TIP3    H228536   2.556   1.691  12.207 -0.2676 -0.5364  0.1604
 2349TIP3   OH228537   3.976   1.978  11.792 -0.3020 -0.2851  0.2605
 2349TIP3    H128538   3.978   2.053  11.851  0.9365  0.5020 -0.7234
 2349TIP3    H228539   4.059   1.933  11.807  0.4285  0.4034 -1.4039
 2350TIP3   OH228540   0.306   0.562   4.323  0.5075  0.2294  0.2911
 2350TIP3    H128541   0.367   0.624   4.283 -0.1506  0.6223 -0.1201
 2350TIP3    H228542   0.305   0.586   4.416  0.8026  0.3636  0.2611
 2351TIP3   OH228543   5.072   5.679  10.397  0.0324  0.7006 -0.4372
 2351TIP3    H128544   5.055   5.593  10.435  3.1209  0.5057  0.8460
 2351TIP3    H228545   5.116   5.659  10.314  0.5766  1.0317 -0.2318
 2352TIP3   OH228546   6.632   5.978   6.081 -0.2727 -0.2736 -0.1162
 2352TIP3    H128547   6.596   5.992   5.994  2.3212  2.9748 -0.8626
 2352TIP3    H228548   6.586   6.041   6.137  0.6722  0.3705 -0.0277
 2353TIP3   OH228549   6.396   4.920  11.876 -0.1999 -0.1491  0.2711
 2353TIP3    H128550   6.307   4.954  11.885 -1.6009 -3.4648  0.4173
 2353TIP3    H228551   6.399   4.845  11.936  2.3535 -0.8076 -0.5530
 2354TIP3   OH228552   3.374   1.215   1.471  0.2440  0.2490  0.1520
 2354TIP3    H128553   3.382   1.181   1.382 -1.2389 -1.1235  0.4896
 2354TIP3    H228554   3.363   1.310   1.460 -2.0968 -0.1070 -1.3205
 2355TIP3   OH228555   0.977   3.212  16.422 -0.4974  0.0583  0.4482
 2355TIP3    H128556   1.006   3.228  16.511  0.5557  2.3254 -0.2313
 2355TIP3    H228557   0.999   3.292  16.374 -3.2357 -0.0791 -1.3174
 2356TIP3   OH228558   3.235   0.290   3.332  0.5433  0.1559 -0.0764
 2356TIP3    H128559   3.309   0.324   3.283  0.0538  1.3989  0.0050
 2356TIP3    H228560   3.206   0.213   3.283  0.9927  0.5022 -0.8971
 2357TIP3   OH228561   0.578   5.935   1.620 -0.6435  0.0822  0.1340
 2357TIP3    H128562   0.593   5.984   1.539 -0.9175  0.2928  0.2058
 2357TIP3    H228563   0.605   5.846   1.600  0.0410  0.3018  0.0580
 2358TIP3   OH228564   1.481   1.849  16.790 -0.3624  0.2397  0.2658
 2358TIP3    H128565   1.435   1.807  16.862  1.4071 -1.3541  0.5305
 2358TIP3    H228566   1.570   1.864  16.823 -0.0893  1.4108 -0.8886
 2359TIP3   OH228567   0.311   2.047   4.980  0.0255  0.0590 -0.2544
 2359TIP3    H128568   0.302   1.978   5.045 -0.3742  1.5380  1.3175
 2359TIP3    H228569   0.221   2.080   4.968  0.3385  0.9194 -0.2856
 2360TIP3   OH228570   0.956   3.386   6.229  0.3948 -0.2949  0.1737
 2360TIP3    H128571   0.923   3.366   6.142  0.6653  1.4820 -0.3839
 2360TIP3    H228572   0.896   3.452   6.263  0.4784 -0.7365  1.2041
 2361TIP3   OH228573   2.349   6.236  16.798 -0.0641 -0.3694 -0.5275
 2361TIP3    H128574   2.293   6.196  16.865  3.0936 -1.3988  1.7424
 2361TIP3    H228575   2.331   6.186  16.719 -2.7929 -0.1462 -0.1462
 2362TIP3   OH228576   6.373   3.173  12.823  0.0618  1.0270  0.1850
 2362TIP3    H128577   6.304   3.127  12.775  0.6492 -0.5273  0.7747
 2362TIP3    H228578   6.327   3.245  12.868 -0.9954  0.6107 -0.2053
 2363TIP3   OH228579   1.388   0.745   2.837 -0.1829  0.1889 -0.3665
 2363TIP3    H128580   1.451   0.695   2.785 -0.8142 -0.5607 -0.4350
 2363TIP3    H228581   1.310   0.748   2.782 -1.0301 -1.0370  0.7192
 2364TIP3   OH228582   0.033   2.981  13.353  0.0563 -0.1736  0.0660
 2364TIP3    H128583   0.033   2.988  13.448 -1.9879 -1.1190  0.1812
 2364TIP3    H228584   0.066   2.892  13.336 -0.0151 -0.1714 -0.0883
 2365TIP3   OH228585   4.530   1.173   0.531  0.0330 -0.6231  0.5254
 2365TIP3    H128586   4.498   1.110   0.467 -0.8133 -1.2829  1.5501
 2365TIP3    H228587   4.529   1.257   0.486 -2.0233 -0.8177  0.1162
 2366TIP3   OH228588   6.742   5.103   0.517  0.1107 -0.3038 -0.7442
 2366TIP3    H128589   6.799   5.041   0.472  0.3747 -0.0929 -0.7101
 2366TIP3    H228590   6.715   5.165   0.449 -1.9222 -1.6820 -1.2552
 2367TIP3   OH228591   0.988   4.395  13.777 -0.6477  0.3384 -0.0147
 2367TIP3    H128592   0.935   4.468  13.743 -2.5956 -1.5492 -1.2669
 2367TIP3    H228593   1.012   4.345  13.699  3.2013  1.1130  0.4685
 2368TIP3   OH228594   6.713   6.613  14.485 -0.5003  0.1139  0.3697
 2368TIP3    H128595   6.777   6.588  14.418 -0.8680  0.1466 -0.0020
 2368TIP3    H228596   6.640   6.553  14.471  0.8512 -2.3992  3.1270
 2369TIP3   OH228597   3.851   0.790   5.705 -0.4094  0.3704  0.3931
 2369TIP3    H128598   3.853   0.714   5.763 -2.1002  0.4408  0.5725
 2369TIP3    H228599   3.783   0.770   5.641  1.3219  0.3514 -1.5455
 2370TIP3   OH228600   4.743   6.669  11.420 -0.2573 -0.5948  0.0704
 2370TIP3    H128601   4.732   6.716  11.337 -0.9981 -1.5029 -0.3707
 2370TIP3    H228602   4.655   6.668  11.458  0.3305  1.1200  1.6355
 2371TIP3   OH228603   0.567   3.601  16.128 -0.3041  0.0918 -0.1106
 2371TIP3    H128604   0.489   3.550  16.105 -0.5747  0.3924  0.1210
 2371TIP3    H228605   0.616   3.544  16.188 -0.8068  0.2557  0.4665
 2372TIP3   OH228606   6.491   2.852   3.653 -0.2816 -0.0756  0.3227
 2372TIP3    H128607   6.501   2.760   3.679 -1.1460 -0.1449  0.4366
 2372TIP3    H228608   6.411   2.853   3.599  1.3316  0.0865 -2.2577
 2373TIP3   OH228609   0.276   5.971  13.874 -0.1477  0.0926  0.5613
 2373TIP3    H128610   0.285   5.919  13.954  1.9959  0.6794  0.7359
 2373TIP3    H228611   0.365   5.995  13.849 -0.8596  1.1269 -1.2322
 2374TIP3   OH228612   2.945   6.596  11.737 -0.2061  0.6750 -0.2452
 2374TIP3    H128613   2.930   6.508  11.772  0.5966 -0.5230 -2.6802
 2374TIP3    H228614   3.021   6.628  11.786 -0.2453 -0.1423  0.3796
 2375TIP3   OH228615   6.043   3.656  15.236 -0.1029 -0.2219  0.0104
 2375TIP3    H128616   6.047   3.727  15.301  1.0446 -0.6607  0.4385
 2375TIP3    H228617   6.008   3.698  15.158  1.0255  0.9654  0.0988
 2376TIP3   OH228618   0.903   0.441  12.524  0.3402  0.1540  0.0357
 2376TIP3    H128619   0.883   0.416  12.614 -0.5931  0.2716 -0.1304
 2376TIP3    H228620   0.976   0.384  12.499 -0.2918 -0.8567  0.4102
 2377TIP3   OH228621   6.159   5.333  13.115 -0.2834 -0.3811  0.2793
 2377TIP3    H128622   6.152   5.247  13.158  2.4596 -1.0799 -0.4651
 2377TIP3    H228623   6.165   5.396  13.187  3.0879 -1.4155  1.0817
 2378TIP3   OH228624   5.984   4.426  11.786  0.2751  0.0368  0.1444
 2378TIP3    H128625   5.978   4.431  11.690  1.5961 -0.6516  0.0052
 2378TIP3    H228626   5.940   4.344  11.808  0.6741 -0.2016  0.0523
 2379TIP3   OH228627   4.393   4.114   3.603 -1.2959 -0.1689  0.1358
 2379TIP3    H128628   4.435   4.077   3.681 -1.6932  1.3698  1.1288
 2379TIP3    H228629   4.317   4.161   3.637 -1.2806  0.8414 -1.1426
 2380TIP3   OH228630   5.764   3.535  13.278 -0.1864 -0.1003  0.8238
 2380TIP3    H128631   5.775   3.611  13.336 -1.3104  1.4312 -0.8410
 2380TIP3    H228632   5.823   3.469  13.313  0.9430  1.5921  2.2810
 2381TIP3   OH228633   2.533   2.477  13.376 -0.1896 -0.1411 -0.1620
 2381TIP3    H128634   2.513   2.552  13.431  1.7832  0.9853 -0.8514
 2381TIP3    H228635   2.581   2.417  13.433 -1.2083 -0.6209  0.2192
 2382TIP3   OH228636   1.547   0.181  13.375 -0.1256  0.0731 -0.1941
 2382TIP3    H128637   1.547   0.215  13.285 -0.1343  1.0086  0.1434
 2382TIP3    H228638   1.479   0.115  13.376 -1.0148  0.9575 -0.5553
 2383TIP3   OH228639   4.998   4.941   3.454  0.5662  0.4442 -0.1303
 2383TIP3    H128640   5.051   4.898   3.386 -0.8685 -1.3381 -0.1788
 2383TIP3    H228641   4.986   5.030   3.421  1.7459  0.2655 -1.1283
 2384TIP3   OH228642   2.684   1.682  16.678 -0.0456  0.9520 -0.0619
 2384TIP3    H128643   2.766   1.638  16.658 -0.4517  0.3879 -0.4965
 2384TIP3    H228644   2.661   1.652  16.766  0.1630  1.0468  0.0273
 2385TIP3   OH228645   5.121   0.130  17.062 -0.0318  0.1937 -0.0424
 2385TIP3    H128646   5.178   0.054  17.075 -0.0267 -0.1517 -1.7477
 2385TIP3    H228647   5.177   0.206  17.080  0.6680 -0.1731 -0.6217
 2386TIP3   OH228648   2.939   3.927  11.665 -0.9069  0.3194  0.6206
 2386TIP3    H128649   2.935   3.835  11.640 -1.5210  0.3090  0.7570
 2386TIP3    H228650   2.965   3.926  11.757  0.8185  0.3427  0.1654
 2387TIP3   OH228651   0.670   5.188  15.795  0.1921 -0.4461 -0.4613
 2387TIP3    H128652   0.667   5.172  15.889  1.0994  0.6599 -0.2207
 2387TIP3    H228653   0.763   5.202  15.776  0.0419 -0.8444 -1.5620
 2388TIP3   OH228654   0.894   5.090   1.883 -0.7514  0.4092 -0.3677
 2388TIP3    H128655   0.849   5.173   1.873 -0.2079  0.7157 -0.3262
 2388TIP3    H228656   0.977   5.113   1.924 -0.5379 -0.1352 -0.4890
 2389TIP3   OH228657   2.253   4.707   5.967 -0.0177  0.4914  0.7059
 2389TIP3    H128658   2.233   4.767   5.896 -0.3733  0.1808  0.5375
 2389TIP3    H228659   2.189   4.729   6.036 -0.3382  0.1224  0.5322
 2390TIP3   OH228660   1.784   3.722  14.077  0.5094 -0.0368 -0.4299
 2390TIP3    H128661   1.709   3.690  14.028  0.8786  0.2946 -1.2452
 2390TIP3    H228662   1.753   3.730  14.167 -0.5479  0.4853 -0.8249
 2391TIP3   OH228663   1.959   4.816  15.217 -0.5749  0.5721  0.2005
 2391TIP3    H128664   1.942   4.725  15.191  0.5046  0.6080 -0.6935
 2391TIP3    H228665   1.899   4.868  15.162  0.1601  0.5035 -0.6976
 2392TIP3   OH228666   3.704   0.292  15.924 -0.2144  0.1687  0.8948
 2392TIP3    H128667   3.770   0.362  15.927 -0.1198  0.0557  2.6524
 2392TIP3    H228668   3.734   0.228  15.988  0.4282 -2.2251 -1.6204
 2393TIP3   OH228669   5.530   3.921   0.229  0.2940  0.1457  0.0101
 2393TIP3    H128670   5.469   3.985   0.193  1.1062  0.7529 -0.3223
 2393TIP3    H228671   5.486   3.837   0.219 -0.6134  0.6083  0.0659
 2394TIP3   OH228672   6.269   6.066   0.410  0.2182 -0.4299 -0.3045
 2394TIP3    H128673   6.220   6.124   0.468 -0.3466  0.4541 -1.6411
 2394TIP3    H228674   6.203   6.022   0.357  0.6694 -1.8875  0.2680
 2395TIP3   OH228675   1.163   5.976   1.076 -0.7203  0.3055  0.7960
 2395TIP3    H128676   1.124   5.946   0.994 -0.3911  0.9811  0.3901
 2395TIP3    H228677   1.196   5.896   1.117 -0.2319  0.0523 -0.0716
 2396TIP3   OH228678   5.724   6.317   4.595  0.3605  0.2972  0.3790
 2396TIP3    H128679   5.742   6.322   4.501  0.4114 -0.1361  0.3624
 2396TIP3    H228680   5.758   6.398   4.630 -0.2263  0.7486 -0.0702
 2397TIP3   OH228681   4.622   6.010   2.006 -0.4968  0.1948  0.1185
 2397TIP3    H128682   4.707   5.971   2.029 -0.8185 -0.9827 -0.6002
 2397TIP3    H228683   4.619   6.091   2.055  1.1494  0.3579  0.0121
 2398TIP3   OH228684   5.922   4.656  15.353  0.3657 -0.6834  0.2559
 2398TIP3    H128685   5.861   4.672  15.282 -0.2082  1.3654  1.1523
 2398TIP3    H228686   6.008   4.649  15.311 -0.0143  0.1344 -0.6773
 2399TIP3   OH228687   5.484   4.760   2.913  0.1072 -0.4247 -0.3737
 2399TIP3    H128688   5.479   4.685   2.974 -0.9969  0.8370  1.1758
 2399TIP3    H228689   5.547   4.819   2.954 -0.5844  0.4092 -0.4849
 2400TIP3   OH228690   2.054   3.668  12.939 -0.6578  0.1395  0.2354
 2400TIP3    H128691   1.971   3.638  12.901 -0.5728  0.7400 -0.4504
 2400TIP3    H228692   2.107   3.589  12.947 -1.4961 -0.3489  1.2304
 2401TIP3   OH228693   0.300   3.418  11.269 -0.2278 -0.2538 -0.3163
 2401TIP3    H128694   0.329   3.362  11.197  0.3085 -1.5008  0.8246
 2401TIP3    H228695   0.343   3.502  11.252 -0.2284 -0.4691 -1.5115
 2402TIP3   OH228696   3.444   0.202  15.326  0.2167 -0.1272 -0.0745
 2402TIP3    H128697   3.391   0.161  15.258 -0.0539 -0.2438  0.2061
 2402TIP3    H228698   3.397   0.185  15.407 -0.7392  2.0625 -0.0968
 2403TIP3   OH228699   1.594   3.376   1.298  0.9386 -0.0367 -0.3384
 2403TIP3    H128700   1.621   3.310   1.234  0.5713 -0.1201 -0.4132
 2403TIP3    H228701   1.537   3.435   1.249  0.3109 -0.3399  0.0010
 2404TIP3   OH228702   5.240   3.387  14.774 -0.2676  0.0869  0.0596
 2404TIP3    H128703   5.256   3.480  14.756 -0.2747  0.3133  1.1339
 2404TIP3    H228704   5.321   3.356  14.815 -0.1531 -0.4627 -0.5677
 2405TIP3   OH228705   0.692   6.096  11.886  0.5282 -0.2703  0.1322
 2405TIP3    H128706   0.630   6.065  11.820  0.8723 -0.6749 -0.0102
 2405TIP3    H228707   0.655   6.178  11.919 -0.8015 -1.2024  1.0641
 2406TIP3   OH228708   0.514   4.065   5.850 -0.3355  0.3171 -0.0011
 2406TIP3    H128709   0.451   4.060   5.922 -0.4961 -0.7115 -0.2018
 2406TIP3    H228710   0.462   4.094   5.775 -0.5670 -0.4500 -0.1463
 2407TIP3   OH228711   1.527   2.861   5.545 -0.6228 -0.1245 -0.2120
 2407TIP3    H128712   1.573   2.785   5.508 -0.5467 -0.5254  0.6889
 2407TIP3    H228713   1.516   2.840   5.638 -0.0489  1.2386  0.1857
 2408TIP3   OH228714   1.872   6.252   4.601  0.3099 -0.1820  0.0400
 2408TIP3    H128715   1.843   6.187   4.537 -1.1167  0.3312  0.1369
 2408TIP3    H228716   1.897   6.328   4.549  0.5455 -0.2701  0.0205
 2409TIP3   OH228717   3.421   4.273   5.143  0.2559 -0.1409 -0.0940
 2409TIP3    H128718   3.418   4.177   5.151 -0.3383 -0.1183  0.0469
 2409TIP3    H228719   3.355   4.293   5.077 -1.2659  0.3094  1.4598
 2410TIP3   OH228720   1.716   0.443  12.704  0.6071  0.4685 -0.2688
 2410TIP3    H128721   1.680   0.504  12.769  1.4994  0.8257 -0.1010
 2410TIP3    H228722   1.744   0.499  12.631  3.6395  0.5817  0.8611
 2411TIP3   OH228723   2.622   6.094   3.876  0.2706  0.2372 -0.3696
 2411TIP3    H128724   2.610   6.188   3.866  1.8217  0.5216  0.2940
 2411TIP3    H228725   2.716   6.080   3.866  0.1021 -1.2048 -0.1492
 2412TIP3   OH228726   4.201   1.558  14.237 -0.0556 -0.1060 -0.6282
 2412TIP3    H128727   4.285   1.570  14.193 -0.1789  1.7182 -0.4342
 2412TIP3    H228728   4.219   1.576  14.329 -0.3811 -1.0949 -0.3590
 2413TIP3   OH228729   5.799   5.285   3.630 -0.5065  0.1661 -0.3481
 2413TIP3    H128730   5.827   5.225   3.700 -0.3592 -0.6164 -1.0539
 2413TIP3    H228731   5.839   5.248   3.551 -0.0593  1.4560 -0.7395
 2414TIP3   OH228732   0.019   5.940   0.735  0.2623  0.4180 -0.2552
 2414TIP3    H128733   0.095   5.990   0.705  2.0447 -0.9562  1.6807
 2414TIP3    H228734   0.047   5.848   0.728 -1.4408 -0.1546  0.0136
 2415TIP3   OH228735   4.746   2.352   1.462  0.5338  0.1270  0.1387
 2415TIP3    H128736   4.725   2.286   1.396  2.2551  0.9755 -1.3229
 2415TIP3    H228737   4.695   2.429   1.438  0.0928  0.0074  0.6530
 2416TIP3   OH228738   6.219   5.798   6.695 -0.2249 -0.2233 -0.3301
 2416TIP3    H128739   6.299   5.747   6.709 -0.0568  0.1359  0.0621
 2416TIP3    H228740   6.148   5.740   6.720  0.0388  0.1862  1.5108
 2417TIP3   OH228741   3.864   2.809   4.054 -0.7585  0.5598  0.2796
 2417TIP3    H128742   3.896   2.865   3.983  0.9083 -1.2299 -0.4792
 2417TIP3    H228743   3.770   2.824   4.057 -0.6149  1.9208 -1.1817
 2418TIP3   OH228744   0.264   4.438   1.612  0.6310 -0.3040  0.1486
 2418TIP3    H128745   0.359   4.428   1.607  0.5456 -2.8627  1.7558
 2418TIP3    H228746   0.251   4.519   1.660  1.7855  2.5652 -3.8132
 2419TIP3   OH228747   4.801   4.133   3.166 -0.3144  0.5302 -0.3351
 2419TIP3    H128748   4.845   4.213   3.195  0.1263  0.3014 -0.3582
 2419TIP3    H228749   4.740   4.112   3.237  0.4754  0.1886  0.2671
 2420TIP3   OH228750   0.029   0.083  14.718 -0.0405 -0.2974 -0.4115
 2420TIP3    H128751   0.081   0.076  14.798  0.3141 -0.5216 -0.6568
 2420TIP3    H228752  -0.061   0.065  14.745  0.1242 -0.6907 -0.1221
 2421TIP3   OH228753   2.120   4.082   3.440  0.1085 -0.2168 -0.0863
 2421TIP3    H128754   2.090   4.160   3.392  0.2682 -1.0884 -1.6608
 2421TIP3    H228755   2.215   4.086   3.436  0.2228  0.8722  2.1665
 2422TIP3   OH228756   5.574   1.071   2.840 -0.1524  0.8487 -0.0153
 2422TIP3    H128757   5.556   1.160   2.871  1.8141  0.9349  1.0524
 2422TIP3    H228758   5.600   1.083   2.749 -1.6880  1.1280 -0.4356
 2423TIP3   OH228759   5.368   3.132   2.375  0.2691  0.1935 -0.1412
 2423TIP3    H128760   5.338   3.175   2.455  1.2870  0.1780  0.2629
 2423TIP3    H228761   5.292   3.085   2.343 -0.0090 -0.2590  1.1269
 2424TIP3   OH228762   4.008   3.627   1.131  0.0860 -0.4224 -0.1461
 2424TIP3    H128763   3.913   3.613   1.125 -0.0477 -1.0446  2.5093
 2424TIP3    H228764   4.021   3.716   1.099 -1.7992  0.7339  2.0442
 2425TIP3   OH228765   1.547   6.490   4.148  0.1359 -0.0676  0.1869
 2425TIP3    H128766   1.580   6.541   4.074 -0.8785 -0.1562 -0.3401
 2425TIP3    H228767   1.484   6.430   4.110 -0.3453 -0.1769  1.1226
 2426TIP3   OH228768   0.367   4.524  12.753  0.2976 -0.4980 -0.1795
 2426TIP3    H128769   0.438   4.491  12.698 -0.0328  0.6224 -1.3161
 2426TIP3    H228770   0.368   4.619  12.740 -0.8353 -0.3753  0.4729
 2427TIP3   OH228771   5.300   1.106   2.087 -0.3635 -0.3393  0.5523
 2427TIP3    H128772   5.326   1.180   2.141 -0.7996 -0.5410  1.0495
 2427TIP3    H228773   5.289   1.143   1.999  2.1857 -0.3722  0.1533
 2428TIP3   OH228774   4.880   5.607  14.364 -0.2187  0.3650 -0.5001
 2428TIP3    H128775   4.863   5.513  14.371  1.2406  0.2385  3.2679
 2428TIP3    H228776   4.796   5.644  14.334 -1.6211 -1.8868  0.3930
 2429TIP3   OH228777   2.361   2.212  14.042 -0.0813 -0.1227 -0.0700
 2429TIP3    H128778   2.288   2.272  14.056  0.0050  0.0739 -0.4753
 2429TIP3    H228779   2.439   2.266  14.050  0.0710 -0.5019  1.3155
 2430TIP3   OH228780   6.315   4.518   0.747  0.2393 -0.0052  0.2451
 2430TIP3    H128781   6.223   4.495   0.760 -0.2974  2.3171  1.0987
 2430TIP3    H228782   6.356   4.501   0.832  0.4324 -0.3316  0.0867
 2431TIP3   OH228783   1.584   1.249  14.438  0.5471 -0.2349 -0.1446
 2431TIP3    H128784   1.643   1.251  14.362  1.7042 -0.9006  0.7032
 2431TIP3    H228785   1.625   1.187  14.498 -1.3990 -1.2660  0.1931
 2432TIP3   OH228786   4.829   0.785  12.623  0.4891  0.1548  0.0773
 2432TIP3    H128787   4.797   0.739  12.700 -0.6621  1.0814  0.1701
 2432TIP3    H228788   4.861   0.869  12.656  0.3819  0.3862 -0.3898
 2433TIP3   OH228789   4.040   1.062   4.508  0.4785 -0.1737 -0.1507
 2433TIP3    H128790   4.048   1.088   4.416  0.1863  0.0892 -0.1057
 2433TIP3    H228791   4.096   1.123   4.555  1.9774 -1.3631 -0.3090
 2434TIP3   OH228792   4.136   2.159   3.960  0.3078 -0.2297 -0.0194
 2434TIP3    H128793   4.136   2.232   4.021 -0.4018  2.0463 -2.5321
 2434TIP3    H228794   4.206   2.179   3.898  0.0192 -1.6372 -0.8416
 2435TIP3   OH228795   5.564   3.699   3.191  0.3061 -0.3351 -0.1245
 2435TIP3    H128796   5.638   3.655   3.150  0.3423 -0.6982  0.3125
 2435TIP3    H228797   5.550   3.778   3.140  2.0558  0.6048  0.7853
 2436TIP3   OH228798   1.495   5.297   6.356  0.0189  0.7605  0.3095
 2436TIP3    H128799   1.474   5.209   6.324  0.1825  0.6061  0.6097
 2436TIP3    H228800   1.590   5.304   6.344 -0.0912  1.1521 -0.3293
 2437TIP3   OH228801   4.476   1.621  15.880 -0.7188  0.7772  0.2090
 2437TIP3    H128802   4.539   1.605  15.809 -0.8721  1.6715 -0.1317
 2437TIP3    H228803   4.390   1.615  15.837 -0.8410  0.4425  0.4978
 2438TIP3   OH228804   6.601   1.160   1.222 -0.0415 -0.5657 -0.1423
 2438TIP3    H128805   6.662   1.095   1.185  0.8097  0.1873 -0.0930
 2438TIP3    H228806   6.647   1.195   1.298 -0.6051 -0.0894 -0.0215
 2439TIP3   OH228807   6.222   3.978  15.273 -0.4667  0.0592  0.7121
 2439TIP3    H128808   6.249   3.951  15.361 -1.1700 -0.4121  0.7936
 2439TIP3    H228809   6.236   4.073  15.272 -0.6697  0.1053  1.4141
 2440TIP3   OH228810   4.942   5.028  11.067  0.4044 -0.0037 -0.1824
 2440TIP3    H128811   4.912   5.093  11.131  1.9796  0.6459 -0.0580
 2440TIP3    H228812   4.880   4.956  11.075  0.7460 -0.1014  2.3669
 2441TIP3   OH228813   0.727   5.140   4.941 -0.6033  0.1536 -0.3882
 2441TIP3    H128814   0.751   5.083   5.015  0.8756 -0.0701 -1.0038
 2441TIP3    H228815   0.637   5.167   4.960 -0.0877  0.5345  1.7753
 2442TIP3   OH228816   5.595   4.320  13.228 -0.5480  0.3826  0.4256
 2442TIP3    H128817   5.605   4.281  13.141  0.3845  2.0719 -0.2552
 2442TIP3    H228818   5.501   4.314  13.246 -0.4732 -2.2069  0.4176
 2443TIP3   OH228819   4.002   0.293  14.813  0.5061  0.3910  0.1097
 2443TIP3    H128820   4.071   0.283  14.747  0.8703 -1.5886  0.7439
 2443TIP3    H228821   3.934   0.230  14.787  0.0253  0.5907  0.8456
 2444TIP3   OH228822   4.272   4.104  13.522  0.4109 -0.5288  0.3706
 2444TIP3    H128823   4.240   4.121  13.433  2.3968 -0.2617 -0.3334
 2444TIP3    H228824   4.192   4.094  13.574 -0.8425 -2.0972 -1.6823
 2445TIP3   OH228825   6.587   2.077  15.285 -0.3529  0.3254  0.0249
 2445TIP3    H128826   6.508   2.052  15.332 -1.4263  1.4078 -1.1349
 2445TIP3    H228827   6.567   2.060  15.193  1.0236 -0.0322 -0.2306
 2446TIP3   OH228828   4.594   0.321  12.240  0.3125  0.2806 -0.3285
 2446TIP3    H128829   4.689   0.333  12.239  0.4929 -0.9693 -0.4674
 2446TIP3    H228830   4.582   0.229  12.265 -0.9601  1.1434  2.6204
 2447TIP3   OH228831   3.371   1.325  10.802 -0.0175  0.0786 -0.1966
 2447TIP3    H128832   3.319   1.404  10.809  0.9581  0.8014 -0.8231
 2447TIP3    H228833   3.437   1.346  10.736  0.1891 -1.2950 -0.4566
 2448TIP3   OH228834   1.505   0.839   4.640 -0.0076 -0.3301  0.0308
 2448TIP3    H128835   1.465   0.765   4.685 -0.5138 -1.2895 -1.8837
 2448TIP3    H228836   1.588   0.806   4.608  0.4101  0.3807  0.3544
 2449TIP3   OH228837   2.626   6.415   1.905  0.2878 -0.0806  0.1594
 2449TIP3    H128838   2.585   6.447   1.986 -1.0147  0.9440 -0.8537
 2449TIP3    H228839   2.574   6.455   1.835 -0.0268 -2.7190 -1.2154
 2450TIP3   OH228840   0.106   0.100   5.978 -0.0819  0.2459  0.2827
 2450TIP3    H128841   0.161   0.080   6.054 -0.5917  1.1995  0.9194
 2450TIP3    H228842   0.135   0.187   5.950 -3.2380  2.2085  2.5215
 2451TIP3   OH228843   6.778   3.884   4.760 -0.0560  0.4956  0.1223
 2451TIP3    H128844   6.764   3.872   4.666 -1.7326  3.4327 -0.1542
 2451TIP3    H228845   6.695   3.858   4.800  0.7368 -0.9875  0.8763
 2452TIP3   OH228846   4.394   1.463  16.353 -0.2049  0.3009  0.6359
 2452TIP3    H128847   4.485   1.492  16.363 -0.3648  1.1341 -0.0915
 2452TIP3    H228848   4.380   1.466  16.258 -0.0304 -2.9250  0.4211
 2453TIP3   OH228849   0.969   1.806  13.183 -0.5555 -0.3227  0.4784
 2453TIP3    H128850   0.894   1.767  13.140  0.2794 -2.4124  0.8105
 2453TIP3    H228851   1.040   1.799  13.119 -0.5492  1.4178  0.2487
 2454TIP3   OH228852   0.435   2.152   0.181 -0.1257  0.0694 -0.2419
 2454TIP3    H128853   0.407   2.227   0.233  0.9474  0.2047  0.1824
 2454TIP3    H228854   0.452   2.188   0.094 -2.2668 -0.2232 -0.8309
 2455TIP3   OH228855   6.449   4.714   1.032  0.1298 -0.1464 -0.4355
 2455TIP3    H128856   6.455   4.684   1.122  1.1235  2.2995  0.3967
 2455TIP3    H228857   6.437   4.634   0.981 -1.5143 -1.5116  1.9113
 2456TIP3   OH228858   6.399   2.302  14.288  0.1816 -0.3022  0.0658
 2456TIP3    H128859   6.315   2.261  14.266 -0.1072  0.3840 -0.1083
 2456TIP3    H228860   6.462   2.230  14.280 -0.6872 -1.5358  2.7362
 2457TIP3   OH228861   4.556   1.917  11.429  0.0868 -0.2303  0.3815
 2457TIP3    H128862   4.525   1.826  11.433  1.3556 -0.8284 -2.0112
 2457TIP3    H228863   4.637   1.916  11.479 -0.2642 -0.2290  0.9628
 2458TIP3   OH228864   5.428   4.577  14.205 -0.3690  0.0752 -0.3495
 2458TIP3    H128865   5.442   4.617  14.119  0.4990 -0.9895 -0.7195
 2458TIP3    H228866   5.488   4.503  14.207  0.0990  0.4677  1.4465
 2459TIP3   OH228867   5.888   4.423   5.315  0.0332 -0.0339  0.0507
 2459TIP3    H128868   5.840   4.498   5.350 -0.6957 -0.1642 -0.6401
 2459TIP3    H228869   5.830   4.349   5.329  0.9014 -0.5535  1.0591
 2460TIP3   OH228870   5.439   4.950  12.427 -0.1397 -0.2740  0.6925
 2460TIP3    H128871   5.442   5.035  12.472 -1.1420 -0.4331  1.1009
 2460TIP3    H228872   5.363   4.956  12.369  0.9786 -0.1745 -0.8181
 2461TIP3   OH228873   0.753   4.287   1.502  0.4644  0.2504 -0.3502
 2461TIP3    H128874   0.682   4.233   1.538  0.7076 -0.5254 -0.9943
 2461TIP3    H228875   0.708   4.356   1.453  0.1474 -0.2356 -0.7538
 2462TIP3   OH228876   6.788   3.321  16.823 -0.0193  0.5035  0.1893
 2462TIP3    H128877   6.742   3.401  16.848  3.5965  2.5206  1.1645
 2462TIP3    H228878   6.817   3.283  16.906  3.7812  1.9124 -0.2635
 2463TIP3   OH228879   4.470   0.045   0.202  0.2438 -0.0969 -0.2212
 2463TIP3    H128880   4.433   0.042   0.113 -1.2181 -1.2201  0.3857
 2463TIP3    H228881   4.404   0.090   0.254  0.9855  0.3402  0.3637
 2464TIP3   OH228882   4.000   4.376   5.480 -0.1730 -0.2326 -0.1146
 2464TIP3    H128883   4.019   4.319   5.555 -0.1111 -0.5015 -0.3337
 2464TIP3    H228884   3.961   4.454   5.519  0.1482 -0.2405  0.2231
 2465TIP3   OH228885   4.699   6.677   0.538  0.1183  0.7832 -0.0242
 2465TIP3    H128886   4.656   6.670   0.453  0.9392 -1.9584 -0.2998
 2465TIP3    H228887   4.628   6.682   0.602 -0.5606  0.0685 -0.7119
 2466TIP3   OH228888   3.872   5.178  13.997  0.1446  0.6626 -0.0922
 2466TIP3    H128889   3.832   5.239  14.059 -0.6372 -2.4699  2.7775
 2466TIP3    H228890   3.951   5.147  14.042  0.0022 -1.1057 -0.9898
 2467TIP3   OH228891   1.059   0.370   0.641 -0.2172 -0.6773 -0.2710
 2467TIP3    H128892   1.012   0.385   0.723  0.3376 -0.5665  0.0356
 2467TIP3    H228893   1.124   0.303   0.663  0.2982 -0.2520 -0.4708
 2468TIP3   OH228894   4.980   2.710   4.371  0.0579  0.5000 -0.1262
 2468TIP3    H128895   5.056   2.677   4.324 -0.5368 -0.7354 -0.2718
 2468TIP3    H228896   4.906   2.693   4.311 -0.4368  0.8384  0.3782
 2469TIP3   OH228897   0.253   1.966  15.352 -0.4228 -0.1214  0.0217
 2469TIP3    H128898   0.312   2.011  15.413  0.1831 -1.6139  0.5932
 2469TIP3    H228899   0.193   2.034  15.322  0.4644  1.0596  0.8167
 2470TIP3   OH228900   6.731   0.132  17.065  0.3147 -0.3236  0.1221
 2470TIP3    H128901   6.727   0.042  17.033  1.7394  0.2601 -1.8845
 2470TIP3    H228902   6.821   0.159  17.050  0.0049  1.3371  1.0278
 2471TIP3   OH228903   3.071   2.570   6.141  0.0703  0.1295  0.1046
 2471TIP3    H128904   3.002   2.555   6.206  1.3584  0.0137  1.5202
 2471TIP3    H228905   3.102   2.659   6.160 -0.5370  0.6823 -1.3715
 2472TIP3   OH228906   1.972   2.372   1.945 -0.5057  0.1677  0.3421
 2472TIP3    H128907   2.019   2.353   1.864 -0.9734 -2.8183  0.6574
 2472TIP3    H228908   2.034   2.348   2.014 -1.4623 -1.2187  0.7717
 2473TIP3   OH228909   0.454   3.688  11.406 -0.3653  0.1579 -0.4670
 2473TIP3    H128910   0.402   3.752  11.455 -0.2591  0.7258 -1.0883
 2473TIP3    H228911   0.479   3.733  11.326 -0.3512 -0.6884 -0.9522
 2474TIP3   OH228912   6.118   0.810  14.098  0.0078 -0.0894 -0.4666
 2474TIP3    H128913   6.132   0.731  14.151 -0.0294 -0.2092 -0.6355
 2474TIP3    H228914   6.152   0.787  14.011  0.6067  0.3094 -0.3441
 2475TIP3   OH228915   4.280   3.058   5.635  0.0525  0.6177  0.1122
 2475TIP3    H128916   4.285   3.139   5.584 -4.1297  1.4145  0.6314
 2475TIP3    H228917   4.320   2.992   5.579  0.5865  2.4347 -1.7667
 2476TIP3   OH228918   0.739   3.624  14.153 -0.4085 -0.4726 -0.0922
 2476TIP3    H128919   0.785   3.666  14.081 -0.7378  2.4181  1.2319
 2476TIP3    H228920   0.651   3.607  14.120 -0.6349  1.0689 -0.3458
 2477TIP3   OH228921   3.158   1.814   0.684  0.2760  0.5863 -0.2584
 2477TIP3    H128922   3.250   1.826   0.660  1.0726 -2.1041  1.0432
 2477TIP3    H228923   3.160   1.747   0.753 -2.7620 -0.8252 -1.3723
 2478TIP3   OH228924   3.452   5.406  15.341 -0.1208  0.1746  0.0845
 2478TIP3    H128925   3.519   5.474  15.328  0.2029 -0.1098  0.2576
 2478TIP3    H228926   3.481   5.334  15.284  1.1668 -0.9946  2.1074
 2479TIP3   OH228927   2.416   4.604   2.331  0.1322  0.0833  0.5749
 2479TIP3    H128928   2.324   4.626   2.321 -0.0532 -1.1679 -0.7595
 2479TIP3    H228929   2.463   4.685   2.307 -0.5947  0.8918  1.7977
 2480TIP3   OH228930   6.000   1.906   0.728  0.0351  0.4331 -0.8315
 2480TIP3    H128931   5.985   1.840   0.661  0.6697  0.7137 -1.2585
 2480TIP3    H228932   5.922   1.961   0.726 -1.7598 -1.7808  1.3273
 2481TIP3   OH228933   2.889   2.326   3.458 -0.0544 -0.3857  0.5590
 2481TIP3    H128934   2.831   2.388   3.414 -1.5676 -1.0090  1.5578
 2481TIP3    H228935   2.956   2.305   3.393 -2.0745 -1.1420 -1.4537
 2482TIP3   OH228936   4.554   5.586  12.197 -0.0552  0.1299  0.7259
 2482TIP3    H128937   4.569   5.671  12.239 -0.6913  0.3913  0.4422
 2482TIP3    H228938   4.612   5.587  12.121 -0.5648  0.6002  0.3398
 2483TIP3   OH228939   2.898   3.226   0.934  0.5357  0.1620 -0.4836
 2483TIP3    H128940   2.835   3.167   0.892 -0.0921 -0.4857  1.2661
 2483TIP3    H228941   2.982   3.184   0.921  0.0595 -1.3851  1.0384
 2484TIP3   OH228942   4.258   5.332  16.110  0.8617  0.2930 -0.3399
 2484TIP3    H128943   4.203   5.294  16.178  0.9468  1.5263  0.4557
 2484TIP3    H228944   4.286   5.258  16.057  1.2335 -0.7713  1.2874
 2485TIP3   OH228945   4.252   5.332   0.010  0.2006 -0.2890  0.5170
 2485TIP3    H128946   4.320   5.312   0.074 -1.2923 -1.7042  1.7429
 2485TIP3    H228947   4.209   5.249  -0.006  0.3354  0.0832 -2.1776
 2486TIP3   OH228948   5.742   0.517  15.817  0.5029  0.5696  0.1375
 2486TIP3    H128949   5.669   0.548  15.869  1.9945  1.0791  2.0555
 2486TIP3    H228950   5.719   0.426  15.795 -0.8303  0.8255  0.3974
 2487TIP3   OH228951   5.700   6.574  15.823 -0.2310  0.2945 -0.2183
 2487TIP3    H128952   5.755   6.496  15.829  1.0847  1.2215  0.1924
 2487TIP3    H228953   5.650   6.574  15.905  0.9516  0.7328  0.5189
 2488TIP3   OH228954   3.375   0.902   1.810  0.7437 -0.0140  0.1597
 2488TIP3    H128955   3.319   0.834   1.774  2.0310 -1.2282  0.3428
 2488TIP3    H228956   3.317   0.976   1.826 -1.3193 -1.9858  2.6369
 2489TIP3   OH228957   1.169   5.530   3.708 -0.1757 -0.1395 -0.0416
 2489TIP3    H128958   1.242   5.550   3.767 -1.0372 -0.0850  1.0330
 2489TIP3    H228959   1.121   5.460   3.751 -1.5443  0.7578 -0.0440
 2490TIP3   OH228960   4.918   2.619  11.916 -0.1152 -0.5878 -0.1691
 2490TIP3    H128961   5.007   2.586  11.930  0.5653  0.8862 -0.8341
 2490TIP3    H228962   4.903   2.680  11.987 -0.6804 -0.9693  0.0461
 2491TIP3   OH228963   5.563   1.307   2.964  0.0160 -0.5276  0.1132
 2491TIP3    H128964   5.553   1.389   2.915  1.5177 -0.0834  0.4899
 2491TIP3    H228965   5.573   1.335   3.056 -0.3306 -1.1871  0.3568
 2492TIP3   OH228966   1.575   0.179  14.368  0.1942  0.5961  0.0651
 2492TIP3    H128967   1.568   0.117  14.441 -0.4485  0.1610 -0.3532
 2492TIP3    H228968   1.624   0.132  14.301 -0.6786  0.3521 -0.4253
 2493TIP3   OH228969   5.624   1.847   6.759  0.5478 -0.3285 -0.1348
 2493TIP3    H128970   5.673   1.899   6.695  0.3057  0.4427  0.2958
 2493TIP3    H228971   5.644   1.887   6.843 -0.6153 -0.1582  0.0736
 2494TIP3   OH228972   6.152   5.540  12.206 -0.0371 -0.3547 -0.3013
 2494TIP3    H128973   6.130   5.581  12.289  1.6119 -1.5227  0.7822
 2494TIP3    H228974   6.114   5.452  12.211 -0.1303 -0.3539 -0.8897
 2495TIP3   OH228975   1.469   5.156  14.986 -0.1833 -0.2442  0.4157
 2495TIP3    H128976   1.402   5.224  14.989  0.8968  0.8120  2.0118
 2495TIP3    H228977   1.426   5.079  15.023 -1.2659 -0.3550 -0.9571
 2496TIP3   OH228978   3.110   3.816   0.755  0.4664 -0.1290 -0.3766
 2496TIP3    H128979   3.150   3.793   0.671  0.4391  0.6059 -0.5942
 2496TIP3    H228980   3.017   3.801   0.742  0.3801  0.6467 -0.7093
 2497TIP3   OH228981   5.041   4.694   6.373  0.2328  0.3504 -0.0428
 2497TIP3    H128982   5.090   4.614   6.351  1.5803  0.8221  1.1024
 2497TIP3    H228983   5.023   4.735   6.288 -0.7934 -1.3206 -0.6815
 2498TIP3   OH228984   0.011   3.128   5.084  0.0458 -0.3863 -0.8719
 2498TIP3    H128985   0.086   3.125   5.143  1.3098  1.8861 -2.2081
 2498TIP3    H228986   0.031   3.063   5.016 -1.0622 -2.4647  0.6748
 2499TIP3   OH228987   4.069   0.968  12.317 -0.2900  0.1907 -0.3193
 2499TIP3    H128988   3.988   0.973  12.369 -1.3814 -1.3821 -1.7617
 2499TIP3    H228989   4.139   0.976  12.382 -1.5463 -3.2581  1.7420
 2500TIP3   OH228990   1.128   2.894   4.565 -1.0324 -1.0190 -0.1076
 2500TIP3    H128991   1.140   2.873   4.657 -0.1799  0.6285  0.2051
 2500TIP3    H228992   1.199   2.850   4.520 -0.8457 -0.9914  0.1609
 2501TIP3   OH228993   3.483   5.723   1.493 -0.3615 -0.1628 -0.2670
 2501TIP3    H128994   3.462   5.816   1.490  0.5221  0.0695  0.4800
 2501TIP3    H228995   3.460   5.691   1.406  0.6703  1.0477 -1.0182
 2502TIP3   OH228996   4.264   2.541  13.739 -0.3117  0.1004 -0.0484
 2502TIP3    H128997   4.275   2.612  13.802  1.9079  0.6246 -0.9342
 2502TIP3    H228998   4.264   2.584  13.653 -0.4144 -0.8311 -0.5310
 2503TIP3   OH228999   5.222   5.619  14.221  0.0221 -0.5511  0.0775
 2503TIP3    H129000   5.216   5.673  14.300 -2.5644 -0.3408 -0.1696
 2503TIP3    H229001   5.313   5.589  14.219  0.3709  0.1038  2.6704
 2504TIP3   OH229002   4.115   3.747   1.574 -0.3548 -0.0809 -0.5572
 2504TIP3    H129003   4.127   3.717   1.663 -1.3255 -1.2287 -0.7893
 2504TIP3    H229004   4.034   3.799   1.577 -1.3394 -1.5220 -1.0562
 2505TIP3   OH229005   3.833   5.555  11.881  0.9896 -0.1934  0.2268
 2505TIP3    H129006   3.814   5.640  11.840 -0.4210 -0.0459  1.1324
 2505TIP3    H229007   3.921   5.534  11.851  0.4868  0.4636 -1.9142
 2506TIP3   OH229008   1.537   5.071  11.427 -0.4136  0.2076  0.5551
 2506TIP3    H129009   1.502   5.037  11.346 -0.9774 -0.6693  1.1498
 2506TIP3    H229010   1.580   4.996  11.468  2.4275  1.2503 -0.2344
 2507TIP3   OH229011   3.287   0.849   3.511  0.2174 -0.5936 -0.2918
 2507TIP3    H129012   3.193   0.833   3.505  0.1165  0.2394 -1.1237
 2507TIP3    H229013   3.310   0.890   3.428  1.3569 -0.9605 -0.1767
 2508TIP3   OH229014   1.666   4.713  16.709 -0.1731  0.1596  0.4009
 2508TIP3    H129015   1.684   4.660  16.787 -2.2674  0.7229  1.3341
 2508TIP3    H229016   1.744   4.768  16.700  0.2666 -0.1481  1.9044
 2509TIP3   OH229017   3.704   6.308  10.848 -0.0579  0.2949 -0.3877
 2509TIP3    H129018   3.632   6.320  10.787 -0.5985 -0.5147  0.0698
 2509TIP3    H229019   3.755   6.236  10.812  0.1200  0.4007 -0.3488
 2510TIP3   OH229020   4.308   3.434   1.804  0.7721 -0.3022 -0.6103
 2510TIP3    H129021   4.384   3.376   1.810 -0.2564 -1.7083 -0.7068
 2510TIP3    H229022   4.234   3.375   1.789 -0.5994  0.8480  1.1852
 2511TIP3   OH229023   0.467   1.646   1.965  0.3860  0.2549 -0.1218
 2511TIP3    H129024   0.461   1.667   1.872 -1.1084 -0.9253 -0.3146
 2511TIP3    H229025   0.408   1.708   2.007  0.9633  0.7007  0.0609
 2512TIP3   OH229026   2.174   1.698   0.607  0.1213 -0.5011 -0.9130
 2512TIP3    H129027   2.097   1.734   0.652  2.1250  1.0721  1.4985
 2512TIP3    H229028   2.173   1.605   0.631 -0.8650 -0.4610 -0.7234
 2513TIP3   OH229029   5.319   5.288  14.654 -0.1412  0.0820  0.1380
 2513TIP3    H129030   5.266   5.280  14.733 -1.0241 -1.8123 -0.5988
 2513TIP3    H229031   5.256   5.285  14.582  0.6536  1.6935 -0.6746
 2514TIP3   OH229032   5.580   4.069   5.067 -0.1872 -0.1555 -0.0598
 2514TIP3    H129033   5.651   4.112   5.020  0.6346  0.6497  1.8126
 2514TIP3    H229034   5.505   4.128   5.056  0.3970  0.7842  0.8236
 2515TIP3   OH229035   6.225   2.109  11.749  0.3520  0.2835  0.3131
 2515TIP3    H129036   6.292   2.117  11.680  0.8337 -0.8091  0.6273
 2515TIP3    H229037   6.155   2.059  11.708 -0.8094  2.3541 -0.3616
 2516TIP3   OH229038   6.781   1.202   4.842  0.4857  0.8432  0.3854
 2516TIP3    H129039   6.847   1.201   4.912  2.1432 -0.5665 -1.0938
 2516TIP3    H229040   6.711   1.146   4.875  1.3746 -0.0493  0.8294
 2517TIP3   OH229041   1.490   5.056   2.830  0.2882  0.2351  0.6255
 2517TIP3    H129042   1.407   5.012   2.848  1.0803 -1.2279  0.8535
 2517TIP3    H229043   1.466   5.128   2.772 -0.9686 -1.0480 -0.5610
 2518TIP3   OH229044   3.101   1.331   4.111 -0.5919  0.4277 -0.0508
 2518TIP3    H129045   3.139   1.405   4.063 -0.2430  0.8316  0.8271
 2518TIP3    H229046   3.017   1.316   4.069 -0.7423  1.4426 -0.1337
 2519TIP3   OH229047   4.873   2.062  10.788  0.0935 -0.1147 -1.0247
 2519TIP3    H129048   4.950   2.010  10.765  0.2246 -0.3760 -0.0320
 2519TIP3    H229049   4.799   2.011  10.754  0.2193 -0.9782 -0.0443
 2520TIP3   OH229050   6.155   5.486   0.361  0.1979 -0.5032  0.3168
 2520TIP3    H129051   6.158   5.562   0.419  0.2071 -1.1315  1.1456
 2520TIP3    H229052   6.226   5.430   0.390 -0.4212 -1.2907  0.3435
 2521TIP3   OH229053   3.307   4.023  15.172 -0.2054  0.3063 -0.2027
 2521TIP3    H129054   3.262   4.105  15.192 -1.2985 -0.3313  0.0274
 2521TIP3    H229055   3.386   4.050  15.125 -0.4076  1.5034  0.1110
 2522TIP3   OH229056   6.201   3.229  13.835  0.6847  0.6851 -0.0789
 2522TIP3    H129057   6.116   3.185  13.839  0.5011  0.9382 -0.8656
 2522TIP3    H229058   6.213   3.248  13.742  0.7781  2.2481  0.2190
 2523TIP3   OH229059   0.003   1.111  15.233 -0.2260 -0.0937  0.0053
 2523TIP3    H129060   0.073   1.114  15.298  1.6152  0.2965 -1.9146
 2523TIP3    H229061   0.010   1.194  15.186 -1.5104 -0.3708 -0.7123
 2524TIP3   OH229062   2.002   0.340   4.579  0.3742 -0.8008 -0.7034
 2524TIP3    H129063   2.073   0.383   4.626 -0.7999  0.7761 -0.2951
 2524TIP3    H229064   1.954   0.291   4.646 -0.0937 -0.2357 -0.6261
 2525TIP3   OH229065   4.054   5.633   2.784 -0.0905  0.4601  0.5396
 2525TIP3    H129066   4.022   5.721   2.801  0.6916  1.1393 -1.2190
 2525TIP3    H229067   4.130   5.646   2.727  1.5039 -1.2371  2.1683
 2526TIP3   OH229068   0.069   3.890  16.456 -0.5543 -0.4650 -0.5870
 2526TIP3    H129069   0.146   3.946  16.458  0.3634 -1.7101  0.7221
 2526TIP3    H229070   0.011   3.931  16.391  1.2227  0.4513 -1.6673
 2527TIP3   OH229071   4.052   3.819  12.650  0.4092 -0.1480 -0.3327
 2527TIP3    H129072   4.035   3.885  12.718  0.3887 -1.1227  0.6348
 2527TIP3    H229073   4.054   3.736  12.697 -0.7414 -0.9900 -1.6885
 2528TIP3   OH229074   4.984   5.089  15.136  0.2496  0.5483  0.4943
 2528TIP3    H129075   4.905   5.140  15.120  1.1386  1.6996 -0.4541
 2528TIP3    H229076   4.964   5.037  15.213 -0.5327  2.6967  1.8266
 2529TIP3   OH229077   3.100   4.989  12.137  0.4097 -0.0994  0.2721
 2529TIP3    H129078   3.187   4.949  12.142  0.6894  0.2409 -1.3536
 2529TIP3    H229079   3.115   5.081  12.157  0.1156 -0.3547  1.7780
 2530TIP3   OH229080   5.997   3.684  12.756  0.3577 -0.3622  0.3052
 2530TIP3    H129081   5.964   3.721  12.674  0.0753 -0.4934  0.3562
 2530TIP3    H229082   6.084   3.723  12.767  0.3371 -0.2329  0.0185
 2531TIP3   OH229083   4.252   4.471   4.486  0.7910  0.1375 -0.1496
 2531TIP3    H129084   4.331   4.421   4.507  1.2430  1.5173  1.7318
 2531TIP3    H229085   4.280   4.532   4.417  0.6533 -1.0407 -1.2921
 2532TIP3   OH229086   1.511   0.081  15.130 -0.1711  0.1886  0.1188
 2532TIP3    H129087   1.607   0.075  15.126 -0.2726 -2.4268 -3.7472
 2532TIP3    H229088   1.492   0.174  15.115  1.7434  0.6171  0.1044
 2533TIP3   OH229089   4.092   0.643  14.967  0.0404 -0.0464 -1.1609
 2533TIP3    H129090   4.024   0.697  15.006  0.4195 -0.6793  0.4752
 2533TIP3    H229091   4.062   0.553  14.980  0.5906 -0.2908 -1.5456
 2534TIP3   OH229092   2.355   0.450   6.077 -0.0988  0.3237 -0.6044
 2534TIP3    H129093   2.398   0.415   6.155  1.2987 -1.6336 -2.1476
 2534TIP3    H229094   2.390   0.539   6.067  1.7900 -0.3621 -0.4581
 2535TIP3   OH229095   5.404   3.414   0.035 -0.5368 -0.6770 -0.4211
 2535TIP3    H129096   5.312   3.426   0.010 -0.0502  0.2567 -1.8987
 2535TIP3    H229097   5.430   3.334  -0.010 -0.2997 -0.2711 -1.0143
 2536TIP3   OH229098   0.525   2.144  11.958 -0.0523  0.0505  0.5010
 2536TIP3    H129099   0.578   2.145  11.878  0.5948 -0.7903  0.9019
 2536TIP3    H229100   0.537   2.231  11.995 -1.0767  0.7666 -0.7598
 2537TIP3   OH229101   5.828   5.898  16.732 -0.3348 -0.3888  0.0217
 2537TIP3    H129102   5.886   5.836  16.777 -0.6959 -1.0484 -0.4068
 2537TIP3    H229103   5.751   5.903  16.788  0.3570  0.9504  0.9027
 2538TIP3   OH229104   5.021   1.667  16.289 -0.0168 -0.1339 -0.4223
 2538TIP3    H129105   5.066   1.751  16.280 -2.2844  1.2294  0.2585
 2538TIP3    H229106   5.035   1.623  16.205 -1.6239  2.4306 -2.1707
 2539TIP3   OH229107   4.765   0.553  13.397  0.3066  0.0220 -0.7620
 2539TIP3    H129108   4.738   0.480  13.341  1.1325 -1.7368  1.0143
 2539TIP3    H229109   4.782   0.624  13.336 -0.8898 -1.1318 -2.5529
 2540TIP3   OH229110   3.721   2.112   2.305 -0.3187 -0.1502  0.2360
 2540TIP3    H129111   3.765   2.040   2.260 -1.6522 -1.7037  1.2964
 2540TIP3    H229112   3.634   2.115   2.266 -1.5177 -1.5511  2.5929
 2541TIP3   OH229113   6.551   1.747  14.844 -0.3123 -0.0711  0.0365
 2541TIP3    H129114   6.590   1.817  14.895 -0.5088  0.6309 -0.7587
 2541TIP3    H229115   6.597   1.668  14.872  0.9478  0.5864 -0.1235
 2542TIP3   OH229116   0.087   6.296   0.127  0.0775 -0.1263  0.2984
 2542TIP3    H129117   0.182   6.296   0.124  0.0542 -0.2982 -1.0629
 2542TIP3    H229118   0.061   6.219   0.076 -0.7873 -0.2286  0.8628
 2543TIP3   OH229119   6.817   6.726  13.133  0.4400 -0.2299  0.2722
 2543TIP3    H129120   6.818   6.708  13.039 -1.3784  0.4757  0.0789
 2543TIP3    H229121   6.834   6.641  13.174 -1.6743 -1.1935 -0.6868
 2544TIP3   OH229122   2.255   0.373   2.905  0.0179  0.1927  0.4895
 2544TIP3    H129123   2.326   0.436   2.888 -1.0173  1.6618  1.3952
 2544TIP3    H229124   2.296   0.305   2.957  0.8666  0.8259  0.6761
 2545TIP3   OH229125   4.964   2.615   6.015  0.1245 -0.3214 -0.2287
 2545TIP3    H129126   4.993   2.523   6.010 -0.7836 -0.9199  3.0047
 2545TIP3    H229127   4.870   2.610   6.032  0.3413  1.0720  1.7553
 2546TIP3   OH229128   1.120   0.171  15.531 -0.2832  0.5106 -0.9327
 2546TIP3    H129129   1.114   0.265  15.549  0.8839  0.6181 -0.9954
 2546TIP3    H229130   1.032   0.146  15.505 -0.8070  1.4175 -0.1154
 2547TIP3   OH229131   3.409   5.662  16.697  0.0284 -0.4962 -0.0680
 2547TIP3    H129132   3.465   5.658  16.775 -1.0179 -0.1218  0.7278
 2547TIP3    H229133   3.470   5.680  16.626  0.9563 -0.3168  0.7374
 2548TIP3   OH229134   4.681   3.904   2.710  0.4172 -0.4778  0.2231
 2548TIP3    H129135   4.657   3.918   2.618 -0.0596  0.6121  0.4969
 2548TIP3    H229136   4.597   3.892   2.755  0.6955 -2.2697  0.3499
 2549TIP3   OH229137   2.336   3.303   1.572 -0.5724  0.1411  0.0996
 2549TIP3    H129138   2.319   3.210   1.584  2.8716 -0.6551 -0.1060
 2549TIP3    H229139   2.327   3.341   1.659  2.8391 -1.4320  1.2843
 2550TIP3   OH229140   5.211   6.446   5.068  0.4338  0.1268 -0.2701
 2550TIP3    H129141   5.149   6.433   4.996  0.7142  1.6654 -0.8121
 2550TIP3    H229142   5.219   6.359   5.108 -0.1829 -0.6298 -1.7152
 2551TIP3   OH229143   0.015   4.112  12.987  0.0449  0.2889 -0.1671
 2551TIP3    H129144  -0.048   4.049  13.022 -0.3926  0.7950 -0.0232
 2551TIP3    H229145  -0.018   4.197  13.017 -0.4927  0.7739 -2.0312
 2552TIP3   OH229146   1.016   0.169   5.317 -0.3792 -0.3048  0.1441
 2552TIP3    H129147   1.047   0.259   5.328 -1.3771  0.0622  0.0608
 2552TIP3    H229148   0.953   0.157   5.388 -0.5571 -0.8005 -0.0938
 2553TIP3   OH229149   5.180   3.213  11.965  0.2467 -0.2177 -0.5646
 2553TIP3    H129150   5.139   3.136  12.004  0.2168  0.4928  0.8937
 2553TIP3    H229151   5.109   3.257  11.918 -0.2882  0.0453  0.4354
 2554TIP3   OH229152   0.357   5.189   2.858 -0.8019  0.5243 -0.7143
 2554TIP3    H129153   0.341   5.103   2.818  1.4798 -0.1601 -0.2724
 2554TIP3    H229154   0.355   5.172   2.952 -0.9612  1.1053 -0.6100
 2555TIP3   OH229155   4.012   1.482   1.508 -0.2815  0.2556  0.1017
 2555TIP3    H129156   3.939   1.460   1.566  0.5090  0.1283  1.0736
 2555TIP3    H229157   4.049   1.562   1.546  0.8143 -0.3371  0.3462
 2556TIP3   OH229158   0.109   6.638  17.145  0.1026 -0.2988 -0.1302
 2556TIP3    H129159   0.041   6.585  17.186 -0.8214  1.4468  0.7067
 2556TIP3    H229160   0.189   6.588  17.157 -0.3844 -0.5556  2.5237
 2557TIP3   OH229161   6.386   4.920  13.013  0.5080  0.1611  0.1887
 2557TIP3    H129162   6.436   4.924  13.095 -0.5424  1.7856  0.8046
 2557TIP3    H229163   6.327   4.846  13.025 -0.3713  1.0223  1.3754
 2558TIP3   OH229164   6.103   6.707   0.326 -0.2616 -0.2495 -1.0712
 2558TIP3    H129165   6.192   6.712   0.361 -0.5727  0.9013 -0.3982
 2558TIP3    H229166   6.089   6.614   0.310  0.3437 -0.7009  0.7314
 2559TIP3   OH229167   3.180   3.131   1.399  0.1416  0.1167 -0.2127
 2559TIP3    H129168   3.159   3.067   1.468  1.6661  2.1053  2.2930
 2559TIP3    H229169   3.113   3.199   1.408 -0.4573 -0.2306 -1.7047
 2560TIP3   OH229170   0.383   2.174  12.846 -0.1995  0.5187  0.4193
 2560TIP3    H129171   0.371   2.082  12.824 -1.1474  0.4246  1.2642
 2560TIP3    H229172   0.354   2.222  12.769  0.5839  0.1122 -0.1396
 2561TIP3   OH229173   3.297   0.807   4.701 -0.0140 -0.3436 -0.2755
 2561TIP3    H129174   3.360   0.878   4.709 -1.5572  1.2005 -1.0885
 2561TIP3    H229175   3.316   0.749   4.774  2.4282 -0.0409 -0.6045
 2562TIP3   OH229176   0.543   2.379  12.128 -0.0535  0.2149 -0.0396
 2562TIP3    H129177   0.576   2.410  12.044 -0.2248  0.8458  0.1131
 2562TIP3    H229178   0.620   2.348  12.175 -0.2893 -3.0675 -1.5556
 2563TIP3   OH229179   1.378   0.907   4.075 -0.0531  0.0824  0.2959
 2563TIP3    H129180   1.342   0.820   4.094 -1.6776  0.9301  1.3298
 2563TIP3    H229181   1.425   0.896   3.992 -0.3968 -1.7215  0.2973
 2564TIP3   OH229182   6.194   6.445   3.199 -0.2019 -0.1193  0.0714
 2564TIP3    H129183   6.109   6.406   3.181  0.7018 -2.1305 -0.0851
 2564TIP3    H229184   6.244   6.433   3.118  1.2717 -1.9793  1.1742
 2565TIP3   OH229185   0.897   1.726  11.150 -0.0923 -0.0543 -0.3157
 2565TIP3    H129186   0.989   1.737  11.127 -0.0450 -0.6535 -0.4391
 2565TIP3    H229187   0.849   1.742  11.068 -0.1787  1.2456 -0.0305
 2566TIP3   OH229188   2.929   6.824   1.072 -0.5718 -0.3737 -0.3864
 2566TIP3    H129189   2.846   6.777   1.069 -0.0777 -1.2334 -1.0773
 2566TIP3    H229190   2.951   6.830   1.165 -0.6681 -1.4711 -0.2809
 2567TIP3   OH229191   4.602   4.134   0.183 -0.2630  0.2599  0.0824
 2567TIP3    H129192   4.542   4.106   0.252  0.0379 -0.0956  0.1994
 2567TIP3    H229193   4.566   4.218   0.153 -0.1376  0.6548  0.9915
 2568TIP3   OH229194   2.068   5.006   4.885 -0.2921 -0.7348  0.3530
 2568TIP3    H129195   2.148   4.980   4.839  0.2160  0.7137  0.3768
 2568TIP3    H229196   2.080   5.099   4.904 -1.2036 -0.9172  1.9760
 2569TIP3   OH229197   6.299   0.061   1.954  0.0410  0.0686 -0.2470
 2569TIP3    H129198   6.267   0.020   1.874  2.5451  0.6990 -1.6891
 2569TIP3    H229199   6.332   0.147   1.926  2.0978 -0.1800  1.1671
 2570TIP3   OH229200   6.117   5.813   5.459 -0.4768  0.0491  0.1854
 2570TIP3    H129201   6.112   5.904   5.487 -0.6397 -0.1472  0.8058
 2570TIP3    H229202   6.142   5.764   5.537  1.6416 -0.2043 -0.5884
 2571TIP3   OH229203   4.054   4.771  16.508 -0.1462  0.1852  0.3429
 2571TIP3    H129204   4.076   4.682  16.479  0.0411 -0.3099  1.8988
 2571TIP3    H229205   4.107   4.784  16.587 -1.7644  0.8400  1.3739
 2572TIP3   OH229206   5.042   2.088   2.082 -0.0764  0.2079 -0.1694
 2572TIP3    H129207   5.041   2.169   2.135 -0.9430 -0.0903  0.2910
 2572TIP3    H229208   4.950   2.071   2.064  0.1271 -0.5082 -0.5338
 2573TIP3   OH229209   5.591   2.975  12.491 -0.2192 -0.1346  0.1119
 2573TIP3    H129210   5.565   3.067  12.487 -3.2998 -0.9237 -1.2544
 2573TIP3    H229211   5.685   2.977  12.512 -0.0672  3.2757 -0.3494
 2574TIP3   OH229212   6.043   2.730  17.041  0.3547  0.2762  0.2081
 2574TIP3    H129213   6.060   2.650  17.091 -1.5299  0.4931  1.3051
 2574TIP3    H229214   5.983   2.704  16.972  1.6926  0.3050 -1.0277
 2575TIP3   OH229215   4.627   6.338  17.068  0.4965 -0.3110 -0.1895
 2575TIP3    H129216   4.641   6.399  17.140  0.1145  0.2116 -0.5426
 2575TIP3    H229217   4.703   6.349  17.012  0.1996  0.2087 -0.5018
 2576TIP3   OH229218   0.120   1.107   5.460 -0.4432  0.4250  0.6217
 2576TIP3    H129219   0.122   1.198   5.432  0.5023 -0.0700 -1.0327
 2576TIP3    H229220   0.182   1.103   5.533 -2.4285  1.5871  2.5040
 2577TIP3   OH229221   6.167   0.407  13.884  0.0650  0.1761  0.7491
 2577TIP3    H129222   6.124   0.475  13.831 -0.1286 -0.1269  0.5148
 2577TIP3    H229223   6.236   0.373  13.828 -0.3021 -0.3193  0.5951
 2578TIP3   OH229224   6.438   1.966   0.522 -0.2972  0.6354  0.2057
 2578TIP3    H129225   6.410   1.889   0.474  1.5247  0.1780 -0.1901
 2578TIP3    H229226   6.442   1.938   0.614 -1.0827  0.7121  0.2702
 2579TIP3   OH229227   1.853   0.989  15.111 -0.2503 -0.9044  0.3258
 2579TIP3    H129228   1.911   0.921  15.075 -0.8920 -1.2081 -0.1633
 2579TIP3    H229229   1.826   0.956  15.196 -1.1546 -1.6282 -0.2262
 2580TIP3   OH229230   4.346   6.264   0.754 -0.1621 -0.3487  0.2486
 2580TIP3    H129231   4.330   6.310   0.837 -0.5223  1.5776 -0.8381
 2580TIP3    H229232   4.261   6.262   0.711 -0.1573 -2.1074  0.2488
 2581TIP3   OH229233   2.221   0.383  14.624 -0.0108 -0.3461  0.1839
 2581TIP3    H129234   2.146   0.392  14.683 -0.5007  0.8774 -0.5895
 2581TIP3    H229235   2.290   0.434  14.666  0.2944 -1.1902  0.7241
 2582TIP3   OH229236   6.329   0.223  11.245  0.6958 -0.0216 -0.4446
 2582TIP3    H129237   6.362   0.184  11.163  1.0566  1.7352 -1.1720
 2582TIP3    H229238   6.234   0.226  11.233  0.4766 -2.1191  0.3156
 2583TIP3   OH229239   5.737   1.877   4.540 -0.2384  0.8086 -0.3824
 2583TIP3    H129240   5.810   1.930   4.507  0.8309 -1.1843 -1.4235
 2583TIP3    H229241   5.775   1.826   4.611 -0.7125  0.0232 -0.6841
 2584TIP3   OH229242   3.111   5.860   1.855  0.2183 -0.6300  0.1923
 2584TIP3    H129243   3.178   5.889   1.794  1.9260  0.3607  2.3801
 2584TIP3    H229244   3.056   5.937   1.869  1.3384 -0.0401  1.6927
 2585TIP3   OH229245   1.635   3.950  12.343 -0.2231  0.1347 -0.3024
 2585TIP3    H129246   1.574   3.880  12.317  0.6579 -0.0294 -2.0887
 2585TIP3    H229247   1.713   3.935  12.290  2.3234 -0.9071  3.3736
 2586TIP3   OH229248   6.209   2.565  12.844 -0.7692  0.2543 -0.6850
 2586TIP3    H129249   6.280   2.550  12.782  0.0771 -1.0250  0.5461
 2586TIP3    H229250   6.238   2.638  12.898  0.0459 -0.8058  0.3683
 2587TIP3   OH229251   3.449   1.384   6.256 -0.1869 -0.0536 -0.2613
 2587TIP3    H129252   3.360   1.376   6.222  0.6590  0.4627 -2.8064
 2587TIP3    H229253   3.496   1.310   6.219  0.6122  0.0410  0.5169
 2588TIP3   OH229254   5.720   6.822   0.974  0.2351 -0.1160 -0.1568
 2588TIP3    H129255   5.624   6.829   0.975  0.0543 -1.8509 -1.3602
 2588TIP3    H229256   5.737   6.729   0.986  1.6809 -0.1377 -1.9505
 2589TIP3   OH229257   2.910   4.987  15.524 -0.3726  0.2528 -0.4320
 2589TIP3    H129258   2.937   5.056  15.464 -1.7140  2.4906  1.3541
 2589TIP3    H229259   2.816   4.978  15.510 -0.2058 -1.3952 -0.7475
 2590TIP3   OH229260   6.452   6.043  13.856  0.8259  0.2227 -1.0237
 2590TIP3    H129261   6.431   6.098  13.781  0.1960  1.4205 -0.0118
 2590TIP3    H229262   6.548   6.038  13.857  0.8772  0.9644 -1.3907
 2591TIP3   OH229263   1.014   5.837   2.531 -0.9681  0.0669  0.2526
 2591TIP3    H129264   1.076   5.906   2.554  1.0067 -1.0093 -1.5148
 2591TIP3    H229265   0.980   5.807   2.615  0.9773  0.6791  1.3253
 2592TIP3   OH229266   2.245   4.787   0.710  0.5989  0.7744  0.1049
 2592TIP3    H129267   2.307   4.754   0.774  0.8330 -1.2422 -1.0567
 2592TIP3    H229268   2.284   4.764   0.625 -2.0695 -1.4233 -0.6631
 2593TIP3   OH229269   5.159   6.453   2.739  0.3857  0.2608 -0.4345
 2593TIP3    H129270   5.171   6.543   2.768 -0.1814  0.6260 -1.2844
 2593TIP3    H229271   5.245   6.412   2.751  1.2163  1.4652 -1.8367
 2594TIP3   OH229272   6.373   6.662  12.242  0.0320  0.3159  0.2421
 2594TIP3    H129273   6.459   6.689  12.210  0.4513 -0.6055  0.5645
 2594TIP3    H229274   6.392   6.593  12.305 -0.8809  0.8302  1.1151
 2595TIP3   OH229275   0.080   2.435   0.896  0.1696 -0.1656 -0.1283
 2595TIP3    H129276   0.102   2.481   0.976 -2.3260 -1.2927  1.3434
 2595TIP3    H229277   0.126   2.351   0.903  0.0075 -0.2359  0.0937
 2596TIP3   OH229278   6.233   5.403   1.820 -0.0541  0.0557 -0.0852
 2596TIP3    H129279   6.137   5.401   1.824 -0.2106  1.4815 -1.8069
 2596TIP3    H229280   6.255   5.338   1.754  0.1999 -0.4174  0.4567
 2597TIP3   OH229281   1.088   2.507  16.406  0.2846 -0.1344  0.0646
 2597TIP3    H129282   1.083   2.502  16.501  0.9095  0.1254  0.1196
 2597TIP3    H229283   1.169   2.460  16.384  1.2850  1.5934 -0.1524
 2598TIP3   OH229284   2.967   4.411  14.397 -0.4895 -0.2952  0.0295
 2598TIP3    H129285   3.052   4.455  14.401  0.1455 -1.5469  1.0182
 2598TIP3    H229286   2.934   4.414  14.487  0.0471 -2.6953  0.3489
 2599TIP3   OH229287   0.622   3.202   1.625 -0.6261  0.8947 -0.1288
 2599TIP3    H129288   0.533   3.195   1.659 -0.8547 -3.9872 -0.9429
 2599TIP3    H229289   0.675   3.153   1.687  0.2975 -1.3939 -2.5260
 2600TIP3   OH229290   0.616   2.691   0.230  0.2961 -0.0598 -0.1761
 2600TIP3    H129291   0.637   2.782   0.207  2.0490 -0.6070 -0.9137
 2600TIP3    H229292   0.541   2.669   0.174  0.0814  0.8087 -0.2492
 2601TIP3   OH229293   5.548   1.387  14.626  0.2426  0.0155 -0.1630
 2601TIP3    H129294   5.618   1.429  14.576  0.2405  1.1432  0.7529
 2601TIP3    H229295   5.508   1.326  14.564  0.2107  1.4043 -1.5725
 2602TIP3   OH229296   2.428   1.364  10.049 -0.4217 -0.4164 -0.2775
 2602TIP3    H129297   2.499   1.428  10.053 -1.5981  0.8992  0.0999
 2602TIP3    H229298   2.469   1.286  10.010  0.6022  1.2046 -2.7243
 2603TIP3   OH229299   6.762   4.551   0.727 -0.1181 -1.2388 -0.1537
 2603TIP3    H129300   6.794   4.570   0.639 -0.1484  0.4627  0.1679
 2603TIP3    H229301   6.668   4.562   0.721  0.0916  2.1969  0.7469
 2604TIP3   OH229302   0.093   2.409   4.058  0.3385 -0.4363 -0.2089
 2604TIP3    H129303   0.069   2.501   4.049  0.2038 -0.2987  1.2238
 2604TIP3    H229304   0.168   2.397   4.000 -0.7226  0.1169 -1.7507
 2605TIP3   OH229305   1.449   6.527   2.434  0.2103 -0.0280 -0.6053
 2605TIP3    H129306   1.509   6.592   2.397  0.9155 -0.3668 -0.0873
 2605TIP3    H229307   1.501   6.482   2.501 -0.9720  0.4523  0.6766
 2606TIP3   OH229308   2.522   4.074  15.158 -0.7742  0.0543 -0.3387
 2606TIP3    H129309   2.588   4.030  15.105  1.3230  0.3512  1.8547
 2606TIP3    H229310   2.468   4.003  15.193  0.6103 -0.5774  0.6270
 2607TIP3   OH229311   2.005   2.532   1.026  0.1115 -0.1194 -0.2855
 2607TIP3    H129312   2.061   2.466   0.984  1.1720 -0.1955  1.1903
 2607TIP3    H229313   1.979   2.590   0.953  1.0204 -0.8511 -1.2280
 2608TIP3   OH229314   3.734   3.282   3.605  0.3516 -0.6053 -0.4489
 2608TIP3    H129315   3.686   3.286   3.523 -2.8417 -0.4651  1.2739
 2608TIP3    H229316   3.714   3.195   3.641 -0.4098  0.2395  1.2960
 2609TIP3   OH229317   2.723   0.285   4.355 -0.4109  0.0330  0.2825
 2609TIP3    H129318   2.695   0.210   4.407 -0.3370  0.3426  0.7701
 2609TIP3    H229319   2.762   0.246   4.276 -2.0866 -0.4195 -0.3669
 2610TIP3   OH229320   3.167   5.823  11.318  0.2901  0.1637 -0.7460
 2610TIP3    H129321   3.179   5.747  11.261 -1.6236 -2.0146  1.5113
 2610TIP3    H229322   3.222   5.804  11.395  0.7915  1.7462 -0.6732
 2611TIP3   OH229323   3.655   2.879  14.140 -0.6912 -0.3153  0.7096
 2611TIP3    H129324   3.682   2.969  14.157  2.3833 -0.6616 -1.5397
 2611TIP3    H229325   3.688   2.860  14.052 -1.9696 -3.3827  0.7698
 2612TIP3   OH229326   0.617   4.269   4.109 -0.3530 -0.0285 -0.7097
 2612TIP3    H129327   0.596   4.185   4.150  3.4708 -0.7399  0.2065
 2612TIP3    H229328   0.609   4.252   4.015 -1.5891 -0.7683 -0.4980
 2613TIP3   OH229329   4.958   0.293  14.870  0.0382 -0.1974 -0.4042
 2613TIP3    H129330   4.987   0.357  14.935 -0.9046  0.3189 -0.4790
 2613TIP3    H229331   5.034   0.280  14.813 -0.0321  1.5493 -0.9411
 2614TIP3   OH229332   1.624   3.827  10.150  0.2272  0.3651  0.3327
 2614TIP3    H129333   1.652   3.893  10.213  0.4240  0.8650 -0.2611
 2614TIP3    H229334   1.624   3.745  10.199 -0.0638  0.8092  1.0979
 2615TIP3   OH229335   5.167   3.741   5.134 -0.5543 -0.2826  0.5213
 2615TIP3    H129336   5.261   3.749   5.116 -0.2702 -2.2528  0.9325
 2615TIP3    H229337   5.127   3.811   5.082  1.2388  1.6156  1.5113
 2616TIP3   OH229338   1.783   0.046  15.123 -0.0239 -0.3261  0.5644
 2616TIP3    H129339   1.843  -0.028  15.114  0.1174 -0.1964  0.4368
 2616TIP3    H229340   1.823   0.116  15.071  0.6788  0.3558  1.9718
 2617TIP3   OH229341   6.096   4.374   1.340  0.1168 -0.4563  0.3470
 2617TIP3    H129342   6.132   4.286   1.330 -0.5977 -0.7255  0.1134
 2617TIP3    H229343   6.099   4.411   1.251 -2.1225 -1.2495 -0.1157
 2618TIP3   OH229344   4.754   6.189  15.024  0.5049 -0.1511  0.2293
 2618TIP3    H129345   4.699   6.116  15.053  0.6362 -0.5257 -0.4451
 2618TIP3    H229346   4.692   6.261  15.010  0.3148 -0.2748  0.4162
 2619TIP3   OH229347   0.660   1.041   1.744 -0.5335  0.0390 -0.3935
 2619TIP3    H129348   0.699   1.003   1.666  1.1972  0.1444  0.3797
 2619TIP3    H229349   0.734   1.070   1.797 -1.6935  1.1045  0.7302
 2620TIP3   OH229350   6.362   1.969   1.718  0.1094 -0.5593  0.0147
 2620TIP3    H129351   6.449   2.005   1.696 -0.8856  0.7801 -2.0791
 2620TIP3    H229352   6.327   2.030   1.782  0.2665 -0.4247 -0.0243
 2621TIP3   OH229353   1.461   4.507  12.362 -0.0932 -0.0105 -0.6083
 2621TIP3    H129354   1.503   4.577  12.412 -1.2966  0.0008  0.4187
 2621TIP3    H229355   1.521   4.433  12.371  0.5298  0.4849 -0.5737
 2622TIP3   OH229356   6.166   4.608  11.463 -0.0897 -0.1218 -0.5241
 2622TIP3    H129357   6.169   4.515  11.485  0.1170 -0.0796 -0.3622
 2622TIP3    H229358   6.076   4.624  11.435 -0.7001  0.0573  1.3650
 2623TIP3   OH229359   6.559   3.743   3.183 -0.0492 -0.1770 -0.1231
 2623TIP3    H129360   6.496   3.713   3.118 -0.9362 -0.3322  0.7743
 2623TIP3    H229361   6.509   3.803   3.239  0.6048 -0.2781  0.5964
 2624TIP3   OH229362   0.678   0.846  14.050  0.2633 -0.1805 -0.2749
 2624TIP3    H129363   0.762   0.889  14.038 -0.9249  1.9959 -1.5981
 2624TIP3    H229364   0.646   0.878  14.134  0.2531 -0.0705 -0.3207
 2625TIP3   OH229365   5.444   0.340   6.386  0.4109  0.2203  0.4905
 2625TIP3    H129366   5.490   0.379   6.312  2.0317 -0.9950  0.7923
 2625TIP3    H229367   5.472   0.391   6.462  1.0008 -0.2860  0.6236
 2626TIP3   OH229368   3.323   2.784   3.089 -0.4833 -0.0052  0.3527
 2626TIP3    H129369   3.312   2.692   3.063 -0.7337  0.5130 -1.5706
 2626TIP3    H229370   3.239   2.809   3.126  0.0621 -0.9353  2.3681
 2627TIP3   OH229371   0.741   6.697   5.226  0.5058  0.0082  0.0251
 2627TIP3    H129372   0.784   6.774   5.261 -0.9358  0.3968  1.0492
 2627TIP3    H229373   0.649   6.707   5.251  0.5133 -2.8331  1.7070
 2628TIP3   OH229374   0.936   4.722  12.108  1.0845  0.2679  0.2173
 2628TIP3    H129375   0.878   4.785  12.065  0.2819 -0.0777  0.7539
 2628TIP3    H229376   0.929   4.643  12.054 -0.1638 -0.2655  1.1064
 2629TIP3   OH229377   5.588   3.870   2.967 -0.4995  0.1085 -0.1731
 2629TIP3    H129378   5.566   3.958   2.996 -0.6354 -0.2533  0.8913
 2629TIP3    H229379   5.673   3.879   2.924 -0.3860  0.7141  0.1638
 2630TIP3   OH229380   5.439   4.167   1.708  0.3613  0.4199  0.1896
 2630TIP3    H129381   5.394   4.242   1.671  0.2068 -0.1846 -0.9026
 2630TIP3    H229382   5.532   4.187   1.697  0.3619  1.1125  1.3054
 2631TIP3   OH229383   1.840   3.778   0.829  0.0900  0.8798 -0.0103
 2631TIP3    H129384   1.810   3.708   0.771  0.9701  0.5218 -0.0491
 2631TIP3    H229385   1.761   3.830   0.847 -0.4028  0.3711 -0.6562
 2632TIP3   OH229386   3.691   2.990   1.265  0.1526 -0.0152  0.4799
 2632TIP3    H129387   3.737   2.906   1.271  0.6688  0.1261 -1.0519
 2632TIP3    H229388   3.664   2.996   1.174  1.1941  2.0222  0.2352
 2633TIP3   OH229389   3.787   5.772   5.471  0.3369  0.2245  0.8698
 2633TIP3    H129390   3.836   5.690   5.471  0.1041  0.0443 -1.2017
 2633TIP3    H229391   3.849   5.838   5.442 -0.4517  0.0428 -1.4802
 2634TIP3   OH229392   5.995   1.003  11.537  0.1303  1.1294 -0.6203
 2634TIP3    H129393   5.966   1.070  11.599 -2.7712  0.2270 -0.8118
 2634TIP3    H229394   5.928   0.935  11.543  1.7187 -0.6850 -2.1253
 2635TIP3   OH229395   6.730   6.350   0.675  0.1507  0.0394 -0.4455
 2635TIP3    H129396   6.727   6.318   0.585 -2.9494 -0.4934 -0.2425
 2635TIP3    H229397   6.720   6.272   0.729  0.9212  0.4732  0.3550
 2636TIP3   OH229398   2.696   3.588  14.553  0.2491  0.7274  0.1245
 2636TIP3    H129399   2.628   3.583  14.620  0.2215 -0.9623  0.0048
 2636TIP3    H229400   2.740   3.672  14.570 -1.8977  1.9095  0.1239
 2637TIP3   OH229401   1.762   0.973  15.841  0.0016 -0.6768  0.0936
 2637TIP3    H129402   1.776   0.983  15.936 -0.3330  1.3221 -0.0272
 2637TIP3    H229403   1.680   1.019  15.824 -0.1822 -1.4272 -1.1193
 2638TIP3   OH229404   1.390   6.556   1.835  0.1786  0.6138 -0.5403
 2638TIP3    H129405   1.354   6.639   1.806  0.1479  0.7686 -0.0771
 2638TIP3    H229406   1.359   6.492   1.771  1.0010  1.1033 -1.4534
 2639TIP3   OH229407   6.290   2.922  12.258 -0.3144  0.1444 -0.5406
 2639TIP3    H129408   6.314   2.856  12.324 -0.7540 -1.8243 -2.2341
 2639TIP3    H229409   6.199   2.944  12.278  0.5036  2.0526  1.4203
 2640TIP3   OH229410   3.083   4.095   0.678 -0.1851  0.0409  0.4881
 2640TIP3    H129411   3.076   4.009   0.719  1.8739 -0.6195 -0.4262
 2640TIP3    H229412   3.163   4.133   0.714 -0.6521  1.2728  0.2920
 2641TIP3   OH229413   6.618   1.720   3.637 -0.3687 -0.7108  0.1887
 2641TIP3    H129414   6.598   1.733   3.730  0.2509  0.0408  0.2342
 2641TIP3    H229415   6.534   1.733   3.593 -0.9756 -2.5102  0.7388
 2642TIP3   OH229416   4.558   3.058  12.622 -0.6592  0.6343  0.5464
 2642TIP3    H129417   4.587   3.102  12.702  1.7661 -2.6144  1.6830
 2642TIP3    H229418   4.635   3.059  12.566 -1.9195  1.6218 -1.2532
 2643TIP3   OH229419   6.790   3.306   4.533 -0.1225 -0.0526  0.1238
 2643TIP3    H129420   6.741   3.388   4.529 -0.3434 -0.2341 -2.2792
 2643TIP3    H229421   6.793   3.284   4.626 -0.7600  2.2418  0.7403
 2644TIP3   OH229422   3.062   2.652  10.835 -0.1561  0.0842 -0.1300
 2644TIP3    H129423   3.044   2.694  10.920 -1.6453 -0.3192 -0.2085
 2644TIP3    H229424   3.067   2.725  10.773 -0.2061  0.3165  0.1371
 2645TIP3   OH229425   6.787   5.853  14.708  0.0133  0.5471  0.2556
 2645TIP3    H129426   6.774   5.826  14.617  0.3071 -1.9290  0.8700
 2645TIP3    H229427   6.754   5.943  14.711 -1.5075  0.1561 -1.9239
 2646TIP3   OH229428   4.333   4.792  14.775  0.1887  0.5461 -0.0738
 2646TIP3    H129429   4.344   4.849  14.699 -0.1695  0.4020 -0.2319
 2646TIP3    H229430   4.416   4.800  14.823  0.0284  1.4399  0.0699
 2647TIP3   OH229431   1.734   2.696   5.407 -0.2749 -0.2208 -0.0364
 2647TIP3    H129432   1.720   2.659   5.320 -0.6346  1.3090 -0.6391
 2647TIP3    H229433   1.830   2.699   5.416 -0.2245  0.2204 -0.6485
 2648TIP3   OH229434   2.615   3.508   5.591 -0.4320  0.1129  0.4143
 2648TIP3    H129435   2.682   3.484   5.527 -2.1872  0.5316 -1.7469
 2648TIP3    H229436   2.661   3.560   5.656  1.9078 -2.2770  0.8285
 2649TIP3   OH229437   0.691   2.747  10.480  0.0081 -0.4204  0.3396
 2649TIP3    H129438   0.707   2.662  10.440  0.0947  0.1153 -0.8108
 2649TIP3    H229439   0.682   2.807  10.406 -2.9926  0.0875  1.0050
 2650TIP3   OH229440   3.716   4.978  16.279  0.5473 -0.1970 -0.1687
 2650TIP3    H129441   3.751   4.897  16.317  0.5892  0.0745  0.3942
 2650TIP3    H229442   3.698   4.957  16.188 -2.1916 -1.7318  0.6327
 2651TIP3   OH229443   3.749   3.697  14.812  0.0945 -0.3888  0.1988
 2651TIP3    H129444   3.735   3.638  14.738  1.6605 -2.1765  1.2249
 2651TIP3    H229445   3.673   3.683  14.869 -0.0689 -0.6003 -0.0688
 2652TIP3   OH229446   3.281   5.080  15.284  0.1032 -0.0945 -0.4288
 2652TIP3    H129447   3.310   5.098  15.373 -2.0065 -0.9808  0.5042
 2652TIP3    H229448   3.330   5.002  15.258  0.1059 -0.3408  0.2925
 2653TIP3   OH229449   1.455   2.820  12.864 -0.8072  0.4265  0.5109
 2653TIP3    H129450   1.382   2.845  12.921 -0.6325 -1.5196  1.6680
 2653TIP3    H229451   1.426   2.739  12.823  0.0587  0.5205 -0.2915
 2654TIP3   OH229452   2.959   2.300  14.249  0.5577 -0.9214 -0.2217
 2654TIP3    H129453   3.046   2.284  14.211  0.9754 -2.0513  1.1230
 2654TIP3    H229454   2.971   2.376  14.306  0.6702 -1.0754 -0.0381
 2655TIP3   OH229455   5.391   0.750  16.591  0.7216  0.0475 -0.1067
 2655TIP3    H129456   5.365   0.658  16.578  2.1695 -0.3522 -0.4124
 2655TIP3    H229457   5.486   0.746  16.601  1.0440  1.7033 -1.9698
 2656TIP3   OH229458   1.013   1.761   0.479  0.4085 -0.0477  0.1659
 2656TIP3    H129459   1.034   1.844   0.522 -1.7819  1.1583 -0.8945
 2656TIP3    H229460   1.061   1.764   0.396 -0.3657  0.6283 -0.2771
 2657TIP3   OH229461   6.179   1.939   2.113  0.0759 -0.2175 -0.2804
 2657TIP3    H129462   6.172   2.029   2.144 -0.5027 -0.2349 -0.3507
 2657TIP3    H229463   6.090   1.904   2.122  1.0231 -2.1610  3.9073
 2658TIP3   OH229464   5.302   2.367  16.388  0.0304  0.4537 -0.1413
 2658TIP3    H129465   5.396   2.368  16.369  0.8231  0.7820  3.1516
 2658TIP3    H229466   5.286   2.280  16.424 -0.5557  0.9389  0.8070
 2659TIP3   OH229467   0.722   0.528  16.653  0.3551 -0.0355  0.0571
 2659TIP3    H129468   0.765   0.614  16.653 -1.3526  0.8492 -0.2196
 2659TIP3    H229469   0.724   0.501  16.561 -2.8312  1.7179 -0.6686
 2660TIP3   OH229470   1.397   1.942  16.527 -0.3891  0.3694  0.6823
 2660TIP3    H129471   1.321   1.985  16.567  0.1346  0.5855  1.4738
 2660TIP3    H229472   1.440   1.898  16.600 -0.9873 -1.6478 -0.1392
 2661TIP3   OH229473   5.624   6.605   4.879  0.1516 -0.6143  0.3322
 2661TIP3    H129474   5.695   6.649   4.832  0.1795 -0.6008  0.3862
 2661TIP3    H229475   5.565   6.575   4.810  0.6764 -1.4395  0.2364
 2662TIP3   OH229476   4.293   5.896   4.900  0.1228 -0.5743 -0.5609
 2662TIP3    H129477   4.335   5.922   4.818  0.0506  1.2325 -0.0608
 2662TIP3    H229478   4.366   5.881   4.961  0.1239 -0.0997 -0.4444
 2663TIP3   OH229479   3.107   2.937   0.109 -0.3189  0.0130  0.5509
 2663TIP3    H129480   3.048   2.916   0.181  0.0822  0.5261  1.0408
 2663TIP3    H229481   3.049   2.950   0.034 -0.6622 -1.5336  0.5266
 2664TIP3   OH229482   0.247   3.621   3.239  0.2596  0.3170  0.5618
 2664TIP3    H129483   0.337   3.601   3.266  0.3170  1.1252  0.9934
 2664TIP3    H229484   0.192   3.585   3.309  0.0337 -2.6412 -0.9920
 2665TIP3   OH229485   4.207   3.471   2.577 -0.3810 -0.3007 -0.2825
 2665TIP3    H129486   4.162   3.389   2.600  1.4971 -1.3905 -0.2551
 2665TIP3    H229487   4.288   3.468   2.627 -0.4592  1.8184  0.0283
 2666TIP3   OH229488   0.980   0.586  16.982  0.3410  0.1154 -0.4113
 2666TIP3    H129489   0.979   0.682  16.975 -1.4556  0.1086 -0.7445
 2666TIP3    H229490   0.951   0.568  17.071 -0.6041 -0.1024 -0.7432
 2667TIP3   OH229491   6.508   4.619   3.570 -0.3162 -0.5844  0.1047
 2667TIP3    H129492   6.502   4.527   3.594 -0.0739 -0.2181  1.7134
 2667TIP3    H229493   6.592   4.628   3.526  0.0020 -1.0152  0.6100
 2668TIP3   OH229494   1.027   2.386   4.668  0.7621 -0.1399  0.6507
 2668TIP3    H129495   0.954   2.448   4.680  0.7669 -0.0087 -0.0059
 2668TIP3    H229496   1.038   2.380   4.574  1.8860  0.1580  0.7588
 2669TIP3   OH229497   1.949   6.628  13.874  0.0158 -0.0624  0.5032
 2669TIP3    H129498   1.951   6.700  13.811 -1.4723 -0.3890  0.0463
 2669TIP3    H229499   2.040   6.619  13.904  0.8442 -0.1380 -1.8696
 2670TIP3   OH229500   5.190   1.595   3.615 -0.6155 -0.2338 -0.6399
 2670TIP3    H129501   5.143   1.515   3.589 -1.3324 -0.0983  0.2084
 2670TIP3    H229502   5.282   1.571   3.612 -0.8433 -1.2662  0.1356
 2671TIP3   OH229503   6.270   6.174   2.907  0.2205 -0.2108 -0.3448
 2671TIP3    H129504   6.235   6.254   2.869 -0.3980 -0.5033 -0.4130
 2671TIP3    H229505   6.352   6.200   2.949 -0.0936  0.4976 -0.1634
 2672TIP3   OH229506   6.219   1.894   2.561  0.2633  0.1222  0.3405
 2672TIP3    H129507   6.291   1.879   2.500  0.4161 -2.2825  0.9759
 2672TIP3    H229508   6.140   1.875   2.510  0.2792 -0.2053  0.4375
 2673TIP3   OH229509   1.997   3.814   3.898  0.1601  0.3914  0.6729
 2673TIP3    H129510   1.940   3.884   3.929 -1.6401 -0.6552 -0.0834
 2673TIP3    H229511   2.015   3.836   3.807  1.5410  1.0464  1.0845
 2674TIP3   OH229512   3.049   2.448  13.311 -0.2525 -0.3562  0.3809
 2674TIP3    H129513   3.079   2.447  13.402  0.4661 -1.2815  0.1487
 2674TIP3    H229514   2.956   2.426  13.317 -0.6824  1.4174  1.0173
 2675TIP3   OH229515   1.636   3.222  13.656 -0.0556 -0.3597 -0.8223
 2675TIP3    H129516   1.685   3.280  13.714  0.9412  0.9334 -2.8509
 2675TIP3    H229517   1.544   3.235  13.681  0.2102  1.5447 -0.7440
 2676TIP3   OH229518   0.537   5.083   3.126 -0.1948 -0.0462  0.0587
 2676TIP3    H129519   0.573   5.029   3.055  0.2894 -0.4912  0.6221
 2676TIP3    H229520   0.585   5.053   3.203  0.0023  1.1281  0.4029
 2677TIP3   OH229521   3.981   2.706   4.793 -0.2466  0.5745 -0.3818
 2677TIP3    H129522   3.894   2.715   4.754 -0.1025  0.9132 -0.6246
 2677TIP3    H229523   3.969   2.728   4.885 -1.0323 -2.2698  0.3069
 2678TIP3   OH229524   3.989   4.599   5.989 -0.0658 -0.1584 -0.2922
 2678TIP3    H129525   4.023   4.559   5.908 -0.8748 -1.2977 -0.0904
 2678TIP3    H229526   3.997   4.530   6.055 -0.6437  0.3202  0.2912
 2679TIP3   OH229527   3.411   2.319   1.448 -0.4501  0.1318  0.4462
 2679TIP3    H129528   3.490   2.292   1.495 -0.2439 -0.3034 -0.1270
 2679TIP3    H229529   3.339   2.296   1.507 -0.1954 -0.3743  0.5666
 2680TIP3   OH229530   4.015   6.051  11.122 -0.3717 -0.1004 -0.2323
 2680TIP3    H129531   3.961   6.004  11.059 -2.1388 -0.3575  1.3975
 2680TIP3    H229532   4.063   6.115  11.069 -1.0394 -0.9521 -1.9393
 2681TIP3   OH229533   2.365   5.474  10.124  0.3065  0.3754 -0.3207
 2681TIP3    H129534   2.435   5.426  10.081 -0.0498 -0.7356  0.2781
 2681TIP3    H229535   2.315   5.407  10.171 -1.0870  1.1403 -0.6281
 2682TIP3   OH229536   2.894   4.653   5.635 -0.2027 -0.4074 -0.1160
 2682TIP3    H129537   2.985   4.624   5.643  0.9457  1.7435 -3.3497
 2682TIP3    H229538   2.890   4.733   5.687 -0.3559 -0.6507  0.2521
 2683TIP3   OH229539   1.459   0.086  13.118  0.2608  0.1092 -0.3032
 2683TIP3    H129540   1.503   0.060  13.037  1.6396  2.4412 -0.3950
 2683TIP3    H229541   1.371   0.112  13.091 -0.0927 -1.3736 -0.6530
 2684TIP3   OH229542   0.718   2.220   5.417  0.7463 -0.1107  0.2508
 2684TIP3    H129543   0.774   2.275   5.472 -1.3690  2.4544  0.0392
 2684TIP3    H229544   0.769   2.208   5.336  1.4786  1.1904  0.4870
 2685TIP3   OH229545   3.814   0.998  12.476  0.3156  0.3473  0.3790
 2685TIP3    H129546   3.785   0.980  12.565 -0.4707 -0.1933  0.0201
 2685TIP3    H229547   3.741   0.971  12.420 -0.0702  2.5765 -0.3252
 2686TIP3   OH229548   1.305   3.537   0.339  0.4383  0.4423 -0.2789
 2686TIP3    H129549   1.253   3.458   0.322  0.5666  0.4929 -0.9304
 2686TIP3    H229550   1.243   3.599   0.376 -0.3351  1.0044 -2.3561
 2687TIP3   OH229551   6.559   2.978   0.720 -0.7872  0.7037  0.0517
 2687TIP3    H129552   6.580   2.896   0.676 -0.1937  1.0950 -0.4144
 2687TIP3    H229553   6.500   3.023   0.660  0.9883  1.7860 -0.9770
 2688TIP3   OH229554   1.814   0.164  13.114 -0.1055 -0.0706  0.0416
 2688TIP3    H129555   1.867   0.093  13.150 -0.0950  0.9143  2.1161
 2688TIP3    H229556   1.868   0.201  13.044  0.4822 -1.1901 -0.1226
 2689TIP3   OH229557   2.190   0.043  15.401  0.0787 -0.1061  0.4610
 2689TIP3    H129558   2.163  -0.016  15.471 -0.7879  0.3135  0.4910
 2689TIP3    H229559   2.180  -0.007  15.320  0.4816 -0.3815  0.5765
 2690TIP3   OH229560   3.272   0.537   1.461 -0.1045 -0.1113  0.3092
 2690TIP3    H129561   3.237   0.596   1.394 -1.9919 -0.2503  1.1048
 2690TIP3    H229562   3.318   0.469   1.412 -2.2794 -0.7522 -0.9689
 2691TIP3   OH229563   2.411   4.093   0.043 -0.1311  0.5432  0.0170
 2691TIP3    H129564   2.440   4.124  -0.043 -0.2476  2.2898  0.5687
 2691TIP3    H229565   2.462   4.013   0.058  0.0228  0.3088 -1.5805
 2692TIP3   OH229566   3.513   1.526  12.854  0.1503  0.0731  0.3667
 2692TIP3    H129567   3.598   1.569  12.855 -0.3272  1.0603  1.6488
 2692TIP3    H229568   3.455   1.585  12.902 -1.5462 -0.0308 -1.4234
 2693TIP3   OH229569   1.799   1.324  11.227 -0.1419  0.1850  0.2926
 2693TIP3    H129570   1.705   1.336  11.232 -0.2199 -0.0556 -0.4928
 2693TIP3    H229571   1.836   1.407  11.257 -0.6122  0.5897 -0.2347
 2694TIP3   OH229572   3.077   4.282   5.189 -0.1098  0.0595  0.5228
 2694TIP3    H129573   2.999   4.227   5.197 -0.8584  1.1731  1.1044
 2694TIP3    H229574   3.102   4.273   5.097 -0.7100 -0.5912  0.4074
 2695TIP3   OH229575   5.829   1.172  13.820  0.1091 -0.1729 -0.1922
 2695TIP3    H129576   5.866   1.174  13.732  1.1799 -0.6305  0.2335
 2695TIP3    H229577   5.900   1.142  13.875 -1.1682 -2.0744  0.5274
 2696TIP3   OH229578   6.441   4.208   1.104  0.6018  0.2450 -0.1576
 2696TIP3    H129579   6.366   4.149   1.099 -0.6912  1.7826  0.5855
 2696TIP3    H229580   6.488   4.181   1.183  1.3353 -1.2252 -1.0374
 2697TIP3   OH229581   3.022   0.842  17.212  0.5793 -0.4873 -0.1060
 2697TIP3    H129582   2.987   0.921  17.254 -1.6617 -1.6790  0.4722
 2697TIP3    H229583   3.074   0.874  17.139 -2.0451  1.5379 -1.2495
 2698TIP3   OH229584   1.835   6.052  11.373 -0.2681  0.5903 -0.1676
 2698TIP3    H129585   1.875   6.043  11.286 -1.1967  0.3683 -0.5851
 2698TIP3    H229586   1.828   5.962  11.405  2.7380  0.7807  1.4337
 2699TIP3   OH229587   2.893   4.764  12.045  0.3730  0.3157 -0.1151
 2699TIP3    H129588   2.940   4.840  12.077  2.5051 -0.5061 -1.0941
 2699TIP3    H229589   2.841   4.797  11.972  1.5462  0.7932 -0.7579
 2700TIP3   OH229590   1.018   4.803   0.803  0.1758  0.0523 -0.2150
 2700TIP3    H129591   1.020   4.733   0.737 -0.1069  1.8982 -2.3252
 2700TIP3    H229592   1.098   4.854   0.787  1.3321 -0.7414  2.4991
 2701TIP3   OH229593   1.374   5.110  17.038  0.1483 -0.3150  0.4087
 2701TIP3    H129594   1.377   5.205  17.046 -0.0958 -0.2505 -0.2436
 2701TIP3    H229595   1.399   5.078  17.125  2.1369  0.3235  0.1372
 2702TIP3   OH229596   3.953   1.190   0.618  0.1959 -0.0548  0.6540
 2702TIP3    H129597   3.887   1.259   0.620  0.1301 -0.1297  1.2086
 2702TIP3    H229598   3.967   1.167   0.710  0.4893 -0.5212  0.4978
 2703TIP3   OH229599   1.695   0.984  12.420 -0.0565 -0.4437 -0.9381
 2703TIP3    H129600   1.763   1.027  12.369  0.1019  0.2118 -0.1997
 2703TIP3    H229601   1.661   1.053  12.477 -0.6208 -1.0156 -0.5740
 2704TIP3   OH229602   1.304   4.837   2.865  0.6332 -0.6094  0.2479
 2704TIP3    H129603   1.280   4.864   2.776  0.9542 -1.6448 -0.1689
 2704TIP3    H229604   1.265   4.750   2.875 -0.8750  0.1835  1.7729
 2705TIP3   OH229605   5.148   0.971   3.738  0.0402 -0.2931 -0.2250
 2705TIP3    H129606   5.074   1.033   3.731 -1.1751 -1.6719 -0.0341
 2705TIP3    H229607   5.107   0.887   3.758  1.7132 -1.0454  0.1917
 2706TIP3   OH229608   5.130   4.871  14.028  0.4759 -1.0236  0.2458
 2706TIP3    H129609   5.065   4.937  14.001  1.1094  0.0798  1.3117
 2706TIP3    H229610   5.214   4.917  14.024  1.0363 -2.0323  0.2049
 2707TIP3   OH229611   1.067   1.763   5.447 -0.7384  0.2831 -0.1715
 2707TIP3    H129612   1.042   1.671   5.443 -0.1046  0.0341  0.9696
 2707TIP3    H229613   1.088   1.778   5.539 -1.0222  1.6305 -0.3009
 2708TIP3   OH229614   3.482   3.209   4.539  0.1236  0.2444 -0.5046
 2708TIP3    H129615   3.464   3.291   4.493  1.2244  0.7036 -0.1578
 2708TIP3    H229616   3.396   3.170   4.553 -0.4768  1.6346 -0.1595
 2709TIP3   OH229617   4.344   3.437   4.028 -0.3484 -0.3373  0.5891
 2709TIP3    H129618   4.336   3.362   3.969  1.3236 -0.3017  0.2572
 2709TIP3    H229619   4.306   3.510   3.978  0.1246 -0.5156 -0.0539
 2710TIP3   OH229620   6.243   3.498  10.356  0.1286  0.4626  0.0678
 2710TIP3    H129621   6.259   3.413  10.397 -0.5396  0.0540 -0.4920
 2710TIP3    H229622   6.151   3.517  10.377  0.1336  0.8140 -0.2221
 2711TIP3   OH229623   0.674   3.584  13.818  0.0406  0.0100 -0.0483
 2711TIP3    H129624   0.619   3.620  13.889  0.8084  1.2815 -0.0629
 2711TIP3    H229625   0.744   3.538  13.864 -0.0740 -0.1151  0.0018
 2712TIP3   OH229626   3.541   6.483   1.269  0.1127  0.3901 -0.0217
 2712TIP3    H129627   3.511   6.543   1.201  0.4124 -0.8365 -1.2904
 2712TIP3    H229628   3.499   6.400   1.248  1.9479 -0.5900 -0.0662
 2713TIP3   OH229629   3.871   5.152   2.904 -0.0237  0.4635  0.0049
 2713TIP3    H129630   3.841   5.229   2.855 -0.2316 -0.7711 -1.8799
 2713TIP3    H229631   3.835   5.077   2.858  2.6948 -0.9395 -0.0816
 2714TIP3   OH229632   4.173   2.612  15.735 -0.3037 -0.1359 -0.5687
 2714TIP3    H129633   4.111   2.684  15.719  0.3324  0.4535 -0.4096
 2714TIP3    H229634   4.256   2.655  15.752  0.4459 -0.9513 -1.9829
 2715TIP3   OH229635   1.101   5.475   0.723 -0.0160 -0.4140 -0.1512
 2715TIP3    H129636   1.093   5.380   0.725 -2.3167 -0.3066 -0.6671
 2715TIP3    H229637   1.057   5.505   0.802 -0.4382  0.2325 -0.6139
 2716TIP3   OH229638   3.723   2.051  14.356 -0.0171 -0.3028 -0.6428
 2716TIP3    H129639   3.711   2.129  14.303 -2.3852 -1.0743 -1.3697
 2716TIP3    H229640   3.676   1.982  14.309  1.5072 -2.0740  0.2568
 2717TIP3   OH229641   3.300   0.280   0.412 -0.1455  0.1607  0.1773
 2717TIP3    H129642   3.211   0.284   0.377  0.6997  0.5623 -2.0714
 2717TIP3    H229643   3.328   0.371   0.417  0.4904 -0.0174 -0.0662
 2718TIP3   OH229644   5.534   3.464  14.267  0.0845  0.8057 -0.3495
 2718TIP3    H129645   5.480   3.398  14.223  1.2159 -0.6611  0.3578
 2718TIP3    H229646   5.480   3.543  14.268 -1.2342 -0.0400 -1.4326
 2719TIP3   OH229647   5.029   4.908  14.926 -0.2322  0.4756  0.3858
 2719TIP3    H129648   5.016   4.976  14.993 -0.8722  0.4611  0.2818
 2719TIP3    H229649   4.956   4.848  14.938 -1.1663  1.2225 -1.2333
 2720TIP3   OH229650   1.806   1.382   2.371 -0.3409 -0.1263 -0.5224
 2720TIP3    H129651   1.765   1.377   2.457  1.7837 -0.3520  0.5543
 2720TIP3    H229652   1.752   1.327   2.315 -1.3253 -0.6140  0.8639
 2721TIP3   OH229653   0.492   5.639  17.242  0.4942  0.0637  0.1624
 2721TIP3    H129654   0.532   5.564  17.197 -1.1664 -1.3189  0.8869
 2721TIP3    H229655   0.447   5.687  17.172 -0.6038 -1.1018  0.0228
 2722TIP3   OH229656   0.464   6.275   5.733 -0.2267 -0.5978  0.1484
 2722TIP3    H129657   0.422   6.321   5.661  0.4403  1.3241  0.9212
 2722TIP3    H229658   0.552   6.311   5.737 -0.4824 -0.0158  2.4045
 2723TIP3   OH229659   4.403   1.547   1.649 -0.0598 -0.2176  0.0258
 2723TIP3    H129660   4.375   1.580   1.564  4.0996 -0.0694 -1.5487
 2723TIP3    H229661   4.386   1.619   1.709  0.0985  1.1026 -1.4375
 2724TIP3   OH229662   2.117   0.606   5.278 -0.1579 -0.2564  0.1081
 2724TIP3    H129663   2.064   0.665   5.225  0.1197 -1.6089 -1.7634
 2724TIP3    H229664   2.055   0.565   5.339 -1.0576 -0.8685 -1.1895
 2725TIP3   OH229665   0.102   4.867   0.705  0.2637 -0.0656 -0.2605
 2725TIP3    H129666   0.027   4.806   0.707  0.1610  0.0667  0.0082
 2725TIP3    H229667   0.107   4.896   0.614 -0.5884  0.6312 -0.0975
 2726TIP3   OH229668   1.269   0.444  12.311 -0.0245  0.0852  0.3391
 2726TIP3    H129669   1.268   0.355  12.276 -3.5356 -0.0045  0.3409
 2726TIP3    H229670   1.246   0.434  12.403  0.3982  0.9502  0.5452
 2727TIP3   OH229671   2.220   6.161  15.369 -0.0032  0.5192  0.1910
 2727TIP3    H129672   2.207   6.128  15.458 -1.8537  1.0966  0.1723
 2727TIP3    H229673   2.283   6.099  15.330 -0.3035 -0.6153  1.4145
 2728TIP3   OH229674   3.129   3.371   4.665 -0.1616  0.4463  0.0684
 2728TIP3    H129675   3.072   3.368   4.742  1.5324 -2.2519  1.3528
 2728TIP3    H229676   3.217   3.358   4.699  0.8158  0.6233 -2.2084
 2729TIP3   OH229677   2.407   2.784  15.642  0.2650 -0.7028  0.2727
 2729TIP3    H129678   2.468   2.715  15.616  0.6006 -0.8581  1.3988
 2729TIP3    H229679   2.453   2.866  15.623  0.1806 -0.7903 -0.3373
 2730TIP3   OH229680   0.950   6.226   3.016  0.0076  0.0586  0.0792
 2730TIP3    H129681   0.862   6.207   3.047 -1.0049 -0.5623 -2.8669
 2730TIP3    H229682   0.990   6.139   3.002 -0.2032  0.2294 -1.8263
 2731TIP3   OH229683   4.209   0.912  11.081 -0.1577  0.0587 -0.4202
 2731TIP3    H129684   4.142   0.900  11.149  1.2009 -1.8800  0.6496
 2731TIP3    H229685   4.162   0.894  10.999 -0.6983 -2.8085  0.4013
 2732TIP3   OH229686   5.634   1.652   3.621  0.0707 -0.7017 -0.0248
 2732TIP3    H129687   5.546   1.658   3.585 -0.1845  0.1787  0.7118
 2732TIP3    H229688   5.688   1.703   3.561  0.3043 -2.1571 -1.0980
 2733TIP3   OH229689   5.954   0.558   2.116 -0.5469  0.0125  0.1181
 2733TIP3    H129690   5.934   0.483   2.173 -2.6394  1.3074  1.2242
 2733TIP3    H229691   6.007   0.616   2.170  1.7541 -0.9184 -0.9962
 2734TIP3   OH229692   6.323   4.950   0.948 -0.4567 -1.3314 -0.5884
 2734TIP3    H129693   6.377   5.028   0.959 -3.0456  0.5417 -0.2813
 2734TIP3    H229694   6.380   4.878   0.974  1.1079  0.6966  2.2019
 2735TIP3   OH229695   0.959   2.000  13.366  0.2877  0.7876 -0.7124
 2735TIP3    H129696   0.868   2.029  13.361  0.1191  0.5638  0.5240
 2735TIP3    H229697   0.967   1.934  13.297 -1.1294 -0.7435  0.4853
 2736TIP3   OH229698   4.809   4.736   4.410  0.3437  0.1008 -0.7260
 2736TIP3    H129699   4.760   4.790   4.348 -2.3232  0.6011  1.6135
 2736TIP3    H229700   4.844   4.799   4.473 -0.7391 -0.6753  0.6861
 2737TIP3   OH229701   6.046   0.769  16.951  0.2103 -0.2532  0.2170
 2737TIP3    H129702   6.126   0.779  16.899  0.0863 -1.9522 -0.3428
 2737TIP3    H229703   5.997   0.700  16.908 -1.0516 -0.0277  1.2127
 2738TIP3   OH229704   2.248   1.341   4.455 -1.0607  0.1447 -0.2356
 2738TIP3    H129705   2.275   1.428   4.484 -1.6471  0.8064 -1.5633
 2738TIP3    H229706   2.251   1.286   4.534  2.2569  0.5899  0.1019
 2739TIP3   OH229707   1.192   3.418  16.323  0.1221  0.0825  0.2690
 2739TIP3    H129708   1.282   3.386  16.325  0.4124  0.8990  0.5687
 2739TIP3    H229709   1.177   3.455  16.410 -0.3050  0.4813  0.0344
 2740TIP3   OH229710   4.693   6.476   5.042 -0.2530  0.1404 -0.2213
 2740TIP3    H129711   4.754   6.402   5.047  0.5677  0.8350  0.4056
 2740TIP3    H229712   4.745   6.547   5.004 -1.6144 -0.1640 -2.8424
 2741TIP3   OH229713   5.337   1.592  12.378 -0.0382  0.1516 -0.1948
 2741TIP3    H129714   5.272   1.522  12.368 -0.0805  0.2938 -0.9062
 2741TIP3    H229715   5.413   1.548  12.417  0.2332 -0.4841 -1.3799
 2742TIP3   OH229716   4.226   3.702  11.514  0.0561 -0.2471 -0.0359
 2742TIP3    H129717   4.254   3.704  11.606  2.2537  2.3075 -0.6672
 2742TIP3    H229718   4.262   3.620  11.480  1.6577  0.1076  0.7223
 2743TIP3   OH229719   4.745   3.884   2.435 -0.7274 -0.6943 -0.0890
 2743TIP3    H129720   4.805   3.867   2.508 -0.5145  0.1718 -0.0457
 2743TIP3    H229721   4.743   3.802   2.385 -0.9982 -1.3492  0.9672
 2744TIP3   OH229722   3.269   0.735  10.890 -0.1669  0.6190  0.0525
 2744TIP3    H129723   3.353   0.719  10.931 -1.3827 -1.0957  2.0591
 2744TIP3    H229724   3.289   0.750  10.798  2.2997  0.2745  0.4872
 2745TIP3   OH229725   4.661   0.076  17.214  0.2383 -0.1403 -0.1689
 2745TIP3    H129726   4.682  -0.009  17.174  2.8213  0.1175  0.5022
 2745TIP3    H229727   4.651   0.057  17.307  0.6718  0.2603 -0.0385
 2746TIP3   OH229728   4.341   2.029   1.478  0.5193  0.3971 -0.3331
 2746TIP3    H129729   4.430   2.008   1.506  0.4864 -0.4053 -0.7945
 2746TIP3    H229730   4.332   1.985   1.393 -0.3895  0.2683 -0.1815
 2747TIP3   OH229731   5.340   2.444  13.439 -0.8888  0.0554  0.5554
 2747TIP3    H129732   5.410   2.393  13.397 -2.2131 -0.9619 -0.5088
 2747TIP3    H229733   5.344   2.529  13.395  0.7913  0.6537  1.7517
 2748TIP3   OH229734   4.502   1.754   4.309  0.6827  0.4408 -0.0483
 2748TIP3    H129735   4.456   1.710   4.380  0.3886 -0.1220 -0.5814
 2748TIP3    H229736   4.500   1.847   4.333 -1.3897  0.5312 -0.4137
 2749TIP3   OH229737   5.061   6.200  13.128 -0.3804 -0.3091 -0.3042
 2749TIP3    H129738   5.063   6.199  13.224  0.8379  1.4988 -0.2560
 2749TIP3    H229739   4.972   6.227  13.106 -0.4913 -0.1431  0.3403
 2750TIP3   OH229740   1.493   4.813  14.917 -0.1737 -0.6322 -0.1896
 2750TIP3    H129741   1.494   4.861  14.833 -0.0787  0.0146  0.1724
 2750TIP3    H229742   1.405   4.827  14.951 -0.1244 -0.6622 -0.0504
 2751TIP3   OH229743   2.037   4.883  14.885 -1.0310  0.3449 -0.2609
 2751TIP3    H129744   2.107   4.918  14.829 -1.0424  0.8035  0.0050
 2751TIP3    H229745   1.970   4.951  14.884 -0.8936  0.5001  0.5623
 2752TIP3   OH229746   1.546   2.852   5.810  0.2699  0.2177 -0.6286
 2752TIP3    H129747   1.546   2.947   5.818 -0.0504  0.1684  0.0202
 2752TIP3    H229748   1.509   2.820   5.893  0.6634 -0.4817 -0.7106
 2753TIP3   OH229749   0.303   4.003   4.840  0.4616  0.0800 -1.2323
 2753TIP3    H129750   0.313   4.006   4.744  1.1527  2.2398 -1.1487
 2753TIP3    H229751   0.224   4.053   4.858  0.8401  0.4822 -0.6400
 2754TIP3   OH229752   5.901   1.129   1.293  0.3008  0.1819  0.8486
 2754TIP3    H129753   5.921   1.168   1.208 -0.6708 -1.7942 -0.3595
 2754TIP3    H229754   5.806   1.139   1.302  0.2141 -0.7863  1.0804
 2755TIP3   OH229755   6.365   0.591   0.696  0.2799  0.3164 -0.4896
 2755TIP3    H129756   6.365   0.678   0.736 -1.3106  0.7176 -1.2589
 2755TIP3    H229757   6.305   0.540   0.751 -0.4767  0.3430 -1.2819
 2756TIP3   OH229758   1.021   0.195  12.975 -0.1070 -0.0812  0.6094
 2756TIP3    H129759   0.982   0.131  13.035  1.6107  0.4115  2.3468
 2756TIP3    H229760   0.946   0.246  12.943 -1.2901 -1.7027  0.6674
 2757TIP3   OH229761   4.519   6.320   0.119 -0.6861  0.2522 -0.6282
 2757TIP3    H129762   4.614   6.330   0.120 -0.6437 -0.1465 -0.4596
 2757TIP3    H229763   4.497   6.287   0.206 -1.0868  1.2310 -0.3428
 2758TIP3   OH229764   6.145   3.349  15.504 -0.6421  0.0661  0.3684
 2758TIP3    H129765   6.086   3.333  15.578  0.3168 -0.4314  1.0315
 2758TIP3    H229766   6.210   3.410  15.538  0.1700 -0.6572  0.1159
 2759TIP3   OH229767   3.033   1.550  16.402  0.4225 -0.2004 -0.6864
 2759TIP3    H129768   3.052   1.639  16.372  2.2148  0.0856  1.1376
 2759TIP3    H229769   3.114   1.502  16.390  0.9623 -0.3382  2.4984
 2760TIP3   OH229770   5.441   3.128  14.810 -0.5748 -0.1905  0.0938
 2760TIP3    H129771   5.401   3.087  14.733 -0.6660  0.1832 -0.0608
 2760TIP3    H229772   5.512   3.181  14.775 -0.4596 -0.2146  0.2911
 2761TIP3   OH229773   2.908   4.484  15.562 -0.5559  0.2448 -0.0817
 2761TIP3    H129774   2.930   4.562  15.512 -0.6991 -0.5078 -1.3579
 2761TIP3    H229775   2.825   4.506  15.605 -0.2324  1.0333  0.1654
 2762TIP3   OH229776   4.024   3.864  11.810 -0.1803 -0.4007  0.1570
 2762TIP3    H129777   3.993   3.939  11.861 -0.0075 -0.8036  0.8674
 2762TIP3    H229778   3.944   3.826  11.774 -0.2934 -0.0308  0.0082
 2763TIP3   OH229779   5.418   0.702   1.315  0.2769  0.5360 -0.0667
 2763TIP3    H129780   5.500   0.702   1.364  0.1515 -0.8192  0.2021
 2763TIP3    H229781   5.409   0.612   1.283 -1.3289  0.5127  0.3169
 2764TIP3   OH229782   0.469   0.216   1.370 -0.1173  0.0154  0.0472
 2764TIP3    H129783   0.457   0.149   1.437  0.4196  0.0776  0.2129
 2764TIP3    H229784   0.446   0.298   1.413  1.4728  0.2185  0.5717
 2765TIP3   OH229785   4.895   4.687  14.306  0.1150  0.1350  0.5263
 2765TIP3    H129786   4.981   4.728  14.314 -0.1824  0.4323  3.0277
 2765TIP3    H229787   4.907   4.599  14.341 -0.1790 -0.5446 -1.0062
 2766TIP3   OH229788   3.931   1.885   2.975  0.3534 -0.2935  0.2470
 2766TIP3    H129789   3.905   1.977   2.970 -3.2775 -1.0526  1.7498
 2766TIP3    H229790   3.970   1.867   2.889  0.7853  2.4983 -0.2585
 2767TIP3   OH229791   0.955   5.802  10.948  0.1681 -0.0957  0.4742
 2767TIP3    H129792   0.985   5.887  10.980 -1.4313  0.7614 -0.1484
 2767TIP3    H229793   0.891   5.824  10.879  0.3354 -1.8194 -0.2795
 2768TIP3   OH229794   1.047   3.666   1.306 -0.1067  0.6446 -0.3477
 2768TIP3    H129795   1.050   3.665   1.401 -0.3746 -1.1595 -0.3326
 2768TIP3    H229796   0.972   3.610   1.284 -0.0856  1.0824 -1.6257
 2769TIP3   OH229797   0.631   4.956   3.375  0.1386  0.2167 -0.1664
 2769TIP3    H129798   0.564   4.983   3.438 -0.8052 -1.2889 -0.4538
 2769TIP3    H229799   0.684   4.892   3.423  0.2305  0.0538 -0.4814
 2770TIP3   OH229800   3.007   4.488   2.099 -0.1438 -0.1932 -0.0086
 2770TIP3    H129801   3.082   4.492   2.040  0.3040  0.0944  0.5678
 2770TIP3    H229802   2.932   4.478   2.042  0.5013 -2.8396 -0.5275
 2771TIP3   OH229803   4.609   0.324  16.962 -0.3601 -0.3846 -0.8873
 2771TIP3    H129804   4.645   0.369  17.038 -0.7597 -0.4100 -0.6807
 2771TIP3    H229805   4.637   0.376  16.887  0.7427 -0.8076 -0.7985
 2772TIP3   OH229806   1.125   3.649   0.511  0.1952 -0.4705 -0.0535
 2772TIP3    H129807   1.069   3.727   0.507 -1.0523 -1.3049  0.7440
 2772TIP3    H229808   1.067   3.577   0.486  0.9721 -1.3310  0.6082
 2773TIP3   OH229809   3.340   4.785  14.569 -0.2670  0.3383 -0.0862
 2773TIP3    H129810   3.417   4.806  14.516  2.7509 -3.4975  2.2600
 2773TIP3    H229811   3.306   4.704  14.530 -0.7180 -0.1088  1.1993
 2774TIP3   OH229812   0.978   5.229   2.757 -0.4209  0.2494 -0.0776
 2774TIP3    H129813   1.044   5.262   2.697  0.4313  0.8141  1.1242
 2774TIP3    H229814   0.980   5.290   2.831 -1.0673 -0.7098  0.7659
 2775TIP3   OH229815   0.773   1.381  14.635  0.6663  0.3787 -0.2383
 2775TIP3    H129816   0.729   1.455  14.676 -0.5089 -1.0613  1.2609
 2775TIP3    H229817   0.744   1.383  14.544 -0.5311  0.9150  0.1324
 2776TIP3   OH229818   5.570   1.050  13.513 -0.3783 -0.6870 -0.1734
 2776TIP3    H129819   5.502   1.100  13.468 -0.5424  2.0118  2.7171
 2776TIP3    H229820   5.646   1.108  13.514  0.2728 -1.5077  1.1285
 2777TIP3   OH229821   2.670   0.840   3.724 -0.3231  0.0593  0.1436
 2777TIP3    H129822   2.692   0.795   3.806 -0.4165 -0.9866 -0.4039
 2777TIP3    H229823   2.681   0.933   3.745  0.1573 -0.2208  1.1966
 2778TIP3   OH229824   1.272   4.991  11.003  0.0750 -0.3658  0.5187
 2778TIP3    H129825   1.182   5.008  10.975  0.0384 -0.0190  0.8321
 2778TIP3    H229826   1.300   4.915  10.952 -0.6247 -0.8883  0.9001
 2779TIP3   OH229827   3.141   2.975  11.012  0.4538  0.1318  0.1336
 2779TIP3    H129828   3.229   3.011  10.998  0.1242  0.8391 -0.1787
 2779TIP3    H229829   3.157   2.885  11.042  1.3108  0.7137  1.5176
 2780TIP3   OH229830   6.048   4.961   4.499  0.4312  0.5610 -1.0189
 2780TIP3    H129831   6.006   4.884   4.536 -1.1618  0.5153 -2.8204
 2780TIP3    H229832   6.057   5.021   4.573  0.4353 -0.7870  0.1163
 2781TIP3   OH229833   4.719   0.751  16.386 -0.4646 -0.0060 -0.3624
 2781TIP3    H129834   4.740   0.747  16.480 -0.0705 -0.2639 -0.4537
 2781TIP3    H229835   4.703   0.843  16.368 -1.6150 -0.0935  0.1850
 2782TIP3   OH229836   5.631   0.674  12.096  0.8883 -0.6070  0.0457
 2782TIP3    H129837   5.584   0.591  12.096  1.3706 -0.8994  0.9588
 2782TIP3    H229838   5.577   0.733  12.149  1.3257 -0.8123  0.7247
 2783TIP3   OH229839   6.815   6.189   4.241 -0.0999  0.3180  0.2424
 2783TIP3    H129840   6.720   6.192   4.243 -0.0922  0.8230 -0.0412
 2783TIP3    H229841   6.836   6.096   4.227 -0.5510  0.2510 -0.0014
 2784TIP3   OH229842   2.034   1.796   3.776  0.4740  0.3753  0.6674
 2784TIP3    H129843   2.017   1.701   3.777 -0.2440  0.3993 -1.9390
 2784TIP3    H229844   2.117   1.806   3.823 -0.1807 -1.3250  2.3266
 2785TIP3   OH229845   2.135   4.313  12.717 -0.0930 -0.3199 -0.3578
 2785TIP3    H129846   2.054   4.361  12.731  0.7129  1.0088 -0.0923
 2785TIP3    H229847   2.138   4.249  12.789 -0.8685 -0.3446 -0.3437
 2786TIP3   OH229848   5.315   6.679   5.154 -0.0986 -0.2370 -0.0978
 2786TIP3    H129849   5.298   6.595   5.111 -1.5454  0.1386 -0.2981
 2786TIP3    H229850   5.276   6.744   5.097  3.7154  0.9872 -1.6232
 2787TIP3   OH229851   6.417   5.796  15.567 -0.5682  0.0882  0.2022
 2787TIP3    H129852   6.499   5.828  15.605 -0.6928  0.1018  0.4566
 2787TIP3    H229853   6.445   5.750  15.487 -0.2012 -0.8576  0.8569
 2788TIP3   OH229854   3.550   2.932   4.875 -0.2738 -0.4005  0.4210
 2788TIP3    H129855   3.455   2.932   4.884 -0.2846  0.0252  0.3426
 2788TIP3    H229856   3.583   2.946   4.963 -0.3014  0.2076  0.3360
 2789TIP3   OH229857   5.037   2.428  15.681  0.7120  0.3206  0.1304
 2789TIP3    H129858   5.010   2.353  15.734  0.1917 -0.1790 -0.8149
 2789TIP3    H229859   4.976   2.428  15.608  1.5799  0.8359 -0.6065
 2790TIP3   OH229860   4.956   3.306   1.591 -0.4417  0.2106  0.1813
 2790TIP3    H129861   4.924   3.228   1.545 -1.4462 -1.6637  3.6861
 2790TIP3    H229862   4.893   3.374   1.570 -1.4770 -0.8645 -0.3299
 2791TIP3   OH229863   6.405   0.941   2.741  0.0974  0.6246  0.5789
 2791TIP3    H129864   6.351   0.982   2.808 -1.9349 -1.3590  0.2834
 2791TIP3    H229865   6.344   0.883   2.694  2.1751 -0.5291 -0.8269
 2792TIP3   OH229866   4.094   1.721  10.555  0.5005  0.1369 -0.1886
 2792TIP3    H129867   4.043   1.643  10.576 -2.1244  1.8242  0.1560
 2792TIP3    H229868   4.074   1.739  10.463 -0.9127  1.7018  0.3722
 2793TIP3   OH229869   3.746   1.629  15.779 -0.3901  0.0023  0.4777
 2793TIP3    H129870   3.735   1.565  15.709  0.5654 -0.0220  0.3311
 2793TIP3    H229871   3.729   1.580  15.859 -2.8931  0.3542  0.2509
 2794TIP3   OH229872   1.536   5.689   4.592  0.4568 -0.2939  0.2649
 2794TIP3    H129873   1.520   5.683   4.686  1.8961  1.8887  0.7135
 2794TIP3    H229874   1.524   5.782   4.571 -0.3966 -0.8033 -1.8555
 2795TIP3   OH229875   1.938   2.097  12.500  0.4544 -0.4548 -0.1490
 2795TIP3    H129876   2.029   2.115  12.523  0.8089  0.2494 -1.8956
 2795TIP3    H229877   1.889   2.110  12.581  1.4549  2.8029  0.0958
 2796TIP3   OH229878   4.090   4.864  16.854 -0.5674  0.4642  0.1960
 2796TIP3    H129879   4.050   4.780  16.876 -0.3864  0.4735  0.5733
 2796TIP3    H229880   4.034   4.900  16.786  0.3548 -0.7890 -1.2924
 2797TIP3   OH229881   0.961   0.601   4.250 -0.0812 -0.2135 -0.7107
 2797TIP3    H129882   0.947   0.691   4.219  2.4612  0.3449 -0.4960
 2797TIP3    H229883   0.987   0.612   4.342 -2.5281 -1.4604  0.2192
 2798TIP3   OH229884   5.746   5.327  12.124  0.6241 -0.2116  0.4724
 2798TIP3    H129885   5.816   5.386  12.151 -1.1777  1.7796  1.0369
 2798TIP3    H229886   5.763   5.246  12.172  1.8484  0.6408  1.5395
 2799TIP3   OH229887   6.393   3.716   4.252  0.3775  0.7921  0.4480
 2799TIP3    H129888   6.393   3.725   4.348 -0.0395  0.1019  0.5196
 2799TIP3    H229889   6.471   3.765   4.224  0.6565  0.7781  1.1641
 2800TIP3   OH229890   3.295   1.893   1.722 -0.5605 -0.7007 -0.2315
 2800TIP3    H129891   3.224   1.921   1.664  0.6867 -0.1285 -1.5680
 2800TIP3    H229892   3.348   1.972   1.734 -0.2892 -1.0444  0.9819
 2801TIP3   OH229893   1.894   0.544   0.486 -0.1137  0.2752 -0.3277
 2801TIP3    H129894   1.918   0.525   0.396  0.4300 -0.8247  0.0267
 2801TIP3    H229895   1.819   0.603   0.479  0.2564  0.6302 -1.4851
 2802TIP3   OH229896   1.333   4.278   0.314  0.1100 -0.2145  0.9226
 2802TIP3    H129897   1.288   4.230   0.383 -0.0508 -0.6934  0.4929
 2802TIP3    H229898   1.367   4.210   0.256  0.3167  0.1787  0.5764
 2803TIP3   OH229899   2.043   5.235   3.360  0.6098  0.2950  0.4320
 2803TIP3    H129900   2.135   5.208   3.369  0.2447 -1.1726  0.0538
 2803TIP3    H229901   1.993   5.155   3.378 -0.5909  1.0323  0.4456
 2804TIP3   OH229902   0.552   2.035   5.842 -0.4510  0.1167 -0.0563
 2804TIP3    H129903   0.534   2.061   5.933 -0.8702 -0.3406 -0.0006
 2804TIP3    H229904   0.647   2.031   5.836 -0.3686  1.4880 -0.0265
 2805TIP3   OH229905   6.453   2.010  16.205 -0.9780 -0.5539  0.2859
 2805TIP3    H129906   6.415   2.070  16.269 -3.0835 -2.7688  1.2632
 2805TIP3    H229907   6.475   1.932  16.255 -0.2033 -1.3872 -1.2741
 2806TIP3   OH229908   6.733   4.480   4.471  0.0164 -0.2267 -0.0874
 2806TIP3    H129909   6.803   4.539   4.444 -0.0164 -1.0670 -2.2066
 2806TIP3    H229910   6.774   4.394   4.477 -0.0635 -0.1703  2.4051
 2807TIP3   OH229911   2.761   1.614   3.414 -0.8649  0.5027  0.4979
 2807TIP3    H129912   2.711   1.587   3.337  0.4379  0.2868 -0.3089
 2807TIP3    H229913   2.760   1.537   3.472  1.6749 -0.9455 -1.1871
 2808TIP3   OH229914   4.957   4.270   5.543  0.0907 -0.0888 -0.3582
 2808TIP3    H129915   4.955   4.186   5.497  0.5806 -0.5194  0.3900
 2808TIP3    H229916   4.950   4.336   5.474  0.8052 -0.7251 -1.0524
 2809TIP3   OH229917   0.566   5.755   6.655 -0.0561 -0.0595 -0.7686
 2809TIP3    H129918   0.546   5.834   6.606  1.4421  1.3322  0.7164
 2809TIP3    H229919   0.648   5.776   6.701 -0.5899 -1.7991  1.1206
 2810TIP3   OH229920   1.440   3.744   0.262 -0.4989 -0.5753 -0.1297
 2810TIP3    H129921   1.395   3.663   0.287  0.3283 -1.3753 -1.1236
 2810TIP3    H229922   1.531   3.718   0.251 -0.0396  0.7060  0.4526
 2811TIP3   OH229923   5.311   5.456   1.192  0.3212 -0.0464  0.2569
 2811TIP3    H129924   5.249   5.469   1.121  0.5219 -1.5319 -0.2247
 2811TIP3    H229925   5.257   5.447   1.270  0.0090 -0.0856  0.0364
 2812TIP3   OH229926   4.957   0.647   5.652  0.5385 -0.2392  0.0808
 2812TIP3    H129927   5.018   0.711   5.614  0.5815 -0.3709 -0.0740
 2812TIP3    H229928   4.933   0.684   5.737 -0.0644  0.3824 -0.3515
 2813TIP3   OH229929   2.527   1.215   2.826 -0.5268  0.1106 -0.4524
 2813TIP3    H129930   2.520   1.309   2.814  1.4521  0.3580 -0.1044
 2813TIP3    H229931   2.440   1.181   2.805 -0.6977  1.7575 -2.8329
 2814TIP3   OH229932   1.235   1.247  13.740  0.2023 -0.5186 -0.1369
 2814TIP3    H129933   1.286   1.306  13.796 -0.7954  1.8859 -1.5979
 2814TIP3    H229934   1.210   1.301  13.665 -2.9563 -2.0583 -0.3727
 2815TIP3   OH229935   3.845   5.625  14.656 -0.1189  0.0854 -0.3040
 2815TIP3    H129936   3.920   5.682  14.643 -0.0169 -0.1095 -0.5645
 2815TIP3    H229937   3.859   5.552  14.596  0.8872 -1.3481  1.5496
 2816TIP3   OH229938   6.137   0.025  11.596  0.3639 -0.0167 -0.4384
 2816TIP3    H129939   6.065   0.044  11.655  0.3335  2.3777 -1.1719
 2816TIP3    H229940   6.212   0.070  11.635  0.7029  0.2382 -1.3739
 2817TIP3   OH229941   2.828   0.173  14.242 -0.4418  0.0939 -0.1992
 2817TIP3    H129942   2.750   0.116  14.242 -0.4282  0.0754 -0.2000
 2817TIP3    H229943   2.901   0.113  14.253 -0.2578 -0.1115 -2.2305
 2818TIP3   OH229944   2.314   2.963   4.529 -0.3568  0.5547 -0.3509
 2818TIP3    H129945   2.304   3.058   4.523  2.5625  0.9346 -0.7244
 2818TIP3    H229946   2.325   2.934   4.439  1.5997  0.3373 -0.0985
 2819TIP3   OH229947   1.538   1.340   6.263  0.4092  0.2502  0.2330
 2819TIP3    H129948   1.616   1.341   6.319  0.8978  0.7605 -0.4378
 2819TIP3    H229949   1.517   1.247   6.255 -0.1419  0.2039  1.8799
 2820TIP3   OH229950   0.946   2.220  16.011  0.2825 -0.3845 -0.2785
 2820TIP3    H129951   0.946   2.244  16.103  1.6075 -2.7711  0.4227
 2820TIP3    H229952   0.856   2.238  15.982 -1.2977 -2.8603  2.4719
 2821TIP3   OH229953   5.419   3.227  14.139 -0.7316 -0.1683 -0.2164
 2821TIP3    H129954   5.361   3.165  14.095 -0.4540  0.8675 -2.1572
 2821TIP3    H229955   5.480   3.256  14.071  1.2040 -0.1564  1.4125
 2822TIP3   OH229956   3.767   3.120  11.019 -0.3212 -0.2190  0.1062
 2822TIP3    H129957   3.800   3.062  10.950 -0.4845  0.8049 -0.8609
 2822TIP3    H229958   3.687   3.157  10.983 -0.7669 -0.1664  1.1211
 2823TIP3   OH229959   4.344   4.286   3.006  0.1639  0.3296 -0.1631
 2823TIP3    H129960   4.364   4.315   3.095  2.1626  0.7853 -0.7118
 2823TIP3    H229961   4.417   4.318   2.953 -0.5623 -0.6435 -1.8342
 2824TIP3   OH229962   5.945   3.493  15.856 -0.0234  0.3156  0.4319
 2824TIP3    H129963   6.021   3.477  15.913 -0.2716 -0.1173  0.6462
 2824TIP3    H229964   5.969   3.571  15.806  0.6423  0.0714  0.3627
 2825TIP3   OH229965   2.997   5.111  16.526  0.2699 -0.2836  0.0723
 2825TIP3    H129966   2.963   5.158  16.450  2.7765  0.4910 -0.6772
 2825TIP3    H229967   3.090   5.132  16.527  0.6418 -1.7148  2.3486
 2826TIP3   OH229968   1.467   3.864   2.258 -0.4169  0.4347  0.4271
 2826TIP3    H129969   1.529   3.851   2.330  0.7017  3.1716  0.1019
 2826TIP3    H229970   1.522   3.869   2.180 -1.4648 -0.8301 -0.4271
 2827TIP3   OH229971   1.334   4.637  11.071 -0.2582 -0.3423 -0.0035
 2827TIP3    H129972   1.314   4.690  10.994 -1.3532 -2.3159 -1.1925
 2827TIP3    H229973   1.427   4.616  11.062  0.2319  1.4284  0.5797
 2828TIP3   OH229974   2.771   0.448   3.301 -0.0939 -1.2992 -0.4088
 2828TIP3    H129975   2.725   0.419   3.380  0.1347 -0.6908 -0.0482
 2828TIP3    H229976   2.737   0.536   3.284  1.1236 -0.7260  0.0212
 2829TIP3   OH229977   2.932   1.496  14.568 -0.7765 -0.4007 -0.3035
 2829TIP3    H129978   2.892   1.541  14.494 -0.5038 -0.9445 -0.7878
 2829TIP3    H229979   2.982   1.425  14.529  2.4031  1.4406  0.0828
 2830TIP3   OH229980   0.912   2.150   3.285  0.3865 -0.2542 -0.6475
 2830TIP3    H129981   0.823   2.155   3.249  0.8433 -0.3552 -1.8450
 2830TIP3    H229982   0.900   2.113   3.372 -0.6157 -1.7701 -1.3764
 2831TIP3   OH229983   0.576   0.826  16.606 -0.0887 -0.4589 -0.1133
 2831TIP3    H129984   0.563   0.751  16.663  1.3487  0.1034  1.0368
 2831TIP3    H229985   0.610   0.895  16.665  3.3624 -0.4430 -1.8695
 2832TIP3   OH229986   2.672   1.161   5.419 -0.2636  0.3732 -0.0147
 2832TIP3    H129987   2.747   1.199   5.373 -0.1265 -0.1237 -0.2098
 2832TIP3    H229988   2.672   1.069   5.393 -1.2459  0.4769 -0.4111
 2833TIP3   OH229989   2.048   1.956   4.925 -0.2737  0.2690  0.0103
 2833TIP3    H129990   2.003   2.008   4.991  1.7271 -0.5493  2.1410
 2833TIP3    H229991   2.022   1.866   4.944  0.6772 -0.0178 -0.0027
 2834TIP3   OH229992   4.003   5.111   2.549 -0.3290  0.0702 -0.1460
 2834TIP3    H129993   4.008   5.207   2.547  1.5849 -0.0088 -2.1777
 2834TIP3    H229994   4.039   5.087   2.635  1.3786  1.1279 -0.5134
 2835TIP3   OH229995   6.743   2.683  11.164 -0.3426 -0.0666 -0.1085
 2835TIP3    H129996   6.669   2.696  11.224  0.1456  1.7293  0.1656
 2835TIP3    H229997   6.739   2.757  11.104  0.4844 -0.6503 -0.9106
 2836TIP3   OH229998   2.717   1.625  14.471  0.2683 -0.1403 -0.2216
 2836TIP3    H129999   2.670   1.563  14.527  1.2054 -0.9385 -0.3179
 2836TIP3    H230000   2.748   1.693  14.532 -0.4528  0.0639 -0.0699
 2837TIP3   OH230001   4.086   5.123  13.464  0.4008 -0.2771 -0.7222
 2837TIP3    H130002   4.162   5.164  13.422 -0.2269  0.2080 -1.4227
 2837TIP3    H230003   4.041   5.196  13.508 -0.7445 -0.1714 -2.0026
 2838TIP3   OH230004   0.721   6.716  13.685  0.4827 -0.0438 -0.6420
 2838TIP3    H130005   0.707   6.794  13.740 -1.0799 -0.4941 -0.3290
 2838TIP3    H230006   0.695   6.643  13.741  2.3242 -0.8605 -0.7949
 2839TIP3   OH230007   2.264   3.614  12.663  0.5467 -0.5620 -0.0185
 2839TIP3    H130008   2.261   3.661  12.747 -0.7127  0.3122 -0.5220
 2839TIP3    H230009   2.357   3.592  12.652  1.3043  2.1117  0.1340
 2840TIP3   OH230010   1.569   0.995   0.053  0.6235  0.0050 -0.5267
 2840TIP3    H130011   1.496   1.054   0.073 -0.8798 -2.4198  1.6177
 2840TIP3    H230012   1.543   0.951  -0.027  1.2055  1.2689 -1.4587
 2841TIP3   OH230013   6.389   3.685  16.640 -0.5214  0.2899 -0.3406
 2841TIP3    H130014   6.346   3.609  16.680  0.2342 -0.5924 -1.1787
 2841TIP3    H230015   6.451   3.648  16.578  0.2797  1.5867 -0.3500
 2842TIP3   OH230016   5.426   2.630   0.125 -0.1708  0.9095  0.0057
 2842TIP3    H130017   5.514   2.664   0.108  0.4428 -0.1900  0.8674
 2842TIP3    H230018   5.367   2.698   0.091  0.9776  0.9802 -2.0389
 2843TIP3   OH230019   1.592   0.932  11.283 -0.5607  0.2701 -0.1510
 2843TIP3    H130020   1.589   0.840  11.306  1.3322  0.4475  1.0377
 2843TIP3    H230021   1.502   0.954  11.259 -1.4250 -1.4217  1.3014
 2844TIP3   OH230022   3.135   4.764  15.185  0.5829  0.1478  0.0990
 2844TIP3    H130023   3.135   4.848  15.138  0.4816 -0.4062 -0.9142
 2844TIP3    H230024   3.222   4.760  15.225  0.7729  0.5117 -0.2597
 2845TIP3   OH230025   4.930   0.527   2.431  0.9302 -0.9271  0.0285
 2845TIP3    H130026   4.927   0.441   2.389 -0.1208  0.1709 -2.3312
 2845TIP3    H230027   4.992   0.577   2.378  0.5618  0.1296  0.5686
 2846TIP3   OH230028   3.534   2.365   3.527 -0.3495 -0.2397  0.3740
 2846TIP3    H130029   3.462   2.414   3.487 -0.6538 -0.5593  0.5183
 2846TIP3    H230030   3.499   2.276   3.537  0.3282 -0.5800 -0.2399
 2847TIP3   OH230031   4.412   5.060  13.702  0.3237 -0.2460 -0.4630
 2847TIP3    H130032   4.363   5.142  13.701 -0.0131 -0.4515 -0.9574
 2847TIP3    H230033   4.346   4.992  13.698  0.5098 -0.6019  1.4603
 2848TIP3   OH230034   5.217   1.570  16.522 -0.5305  0.3846  0.7512
 2848TIP3    H130035   5.223   1.633  16.593 -1.0681 -0.3216  1.4427
 2848TIP3    H230036   5.179   1.619  16.449 -1.8461  0.6380  1.5690
 2849TIP3   OH230037   3.325   4.247   0.755  0.5771 -0.3091 -0.4143
 2849TIP3    H130038   3.375   4.201   0.687  0.4410 -0.3463 -0.4897
 2849TIP3    H230039   3.312   4.335   0.720  4.9547  1.4764  1.6467
 2850TIP3   OH230040   3.996   3.595  12.812 -0.1490  0.1704  0.9010
 2850TIP3    H130041   4.070   3.538  12.835  0.2828  0.7800  1.0433
 2850TIP3    H230042   3.930   3.535  12.777  1.6191 -0.0849 -2.4013
 2851TIP3   OH230043   3.432   4.284  13.242 -0.4514 -0.2737  0.1122
 2851TIP3    H130044   3.486   4.266  13.165 -0.2148 -0.0911  0.2334
 2851TIP3    H230045   3.475   4.238  13.313 -1.5816 -1.8289 -0.1571
 2852TIP3   OH230046   0.583   1.379  11.489  0.0288  0.3354 -0.2110
 2852TIP3    H130047   0.557   1.364  11.580  1.3641 -0.0398  0.1283
 2852TIP3    H230048   0.661   1.325  11.477 -0.1341  0.3674 -1.5891
 2853TIP3   OH230049   3.158   6.509   1.482 -0.4483  0.9122 -0.8597
 2853TIP3    H130050   3.100   6.475   1.414  0.0338  0.9302 -1.2848
 2853TIP3    H230051   3.175   6.600   1.457  1.7883  0.2089 -2.1580
 2854TIP3   OH230052   2.658   5.794   0.821  0.2041 -0.1996  0.3816
 2854TIP3    H130053   2.592   5.727   0.801 -2.8006  2.2195  1.3192
 2854TIP3    H230054   2.721   5.788   0.749 -2.6765 -0.7946 -2.3597
 2855TIP3   OH230055   5.642   5.812   5.010 -0.3459  0.0652 -0.6706
 2855TIP3    H130056   5.579   5.748   4.978 -0.8376  1.0129 -1.6590
 2855TIP3    H230057   5.718   5.802   4.952  0.9039 -1.7563  1.1093
 2856TIP3   OH230058   6.521   4.493   2.016 -0.4291  0.2014  0.4469
 2856TIP3    H130059   6.559   4.575   2.051  0.7509  0.3823 -1.1307
 2856TIP3    H230060   6.430   4.515   1.998 -0.0565  1.2993 -0.2381
 2857TIP3   OH230061   4.186   5.429  13.460 -0.1135 -1.0130 -0.3067
 2857TIP3    H130062   4.165   5.456  13.371 -0.7148 -0.6462 -0.0547
 2857TIP3    H230063   4.274   5.464  13.475 -0.2442 -0.5784 -0.5499
 2858TIP3   OH230064   6.718   4.747  13.509 -0.2036  0.0796  0.0047
 2858TIP3    H130065   6.758   4.813  13.564 -1.4889  0.2929  0.7205
 2858TIP3    H230066   6.741   4.772  13.420 -0.2678  1.2149  0.2955
 2859TIP3   OH230067   1.420   4.100  16.118 -0.0414 -0.9876 -0.2487
 2859TIP3    H130068   1.483   4.033  16.095  0.6742 -0.7698  0.9869
 2859TIP3    H230069   1.468   4.160  16.174 -1.0881 -0.2819 -0.0721
 2860TIP3   OH230070   4.213   1.730  16.071 -0.3604 -0.0545  0.3907
 2860TIP3    H130071   4.140   1.753  16.013 -0.4634  0.0490  0.5623
 2860TIP3    H230072   4.235   1.640  16.047 -0.5609 -0.0953  0.3556
 2861TIP3   OH230073   1.533   4.622   4.588  0.6576 -0.2329  0.5039
 2861TIP3    H130074   1.510   4.700   4.537  0.6694  0.2863  1.2690
 2861TIP3    H230075   1.552   4.555   4.523 -0.6739  0.0179 -0.1656
 2862TIP3   OH230076   4.341   6.809  15.816  0.3330 -0.0349 -0.1108
 2862TIP3    H130077   4.356   6.724  15.856  0.7469 -0.2512 -0.7060
 2862TIP3    H230078   4.412   6.864  15.849  0.0965  0.0661  0.2322
 2863TIP3   OH230079   4.376   4.192   4.501  0.2297  0.2357  0.3773
 2863TIP3    H130080   4.447   4.129   4.490  1.7074  2.0002 -0.8678
 2863TIP3    H230081   4.306   4.142   4.542  1.7496 -1.8873  0.5745
 2864TIP3   OH230082   0.851   4.655  13.718 -0.1985  0.1001 -0.0229
 2864TIP3    H130083   0.849   4.750  13.714  0.6737  0.0816 -1.7795
 2864TIP3    H230084   0.830   4.626  13.629  0.5703 -1.3257  0.2268
 2865TIP3   OH230085   5.618   6.309  13.548 -0.3419 -0.2489  0.8782
 2865TIP3    H130086   5.680   6.355  13.605 -1.7282  0.9476  1.4804
 2865TIP3    H230087   5.668   6.235  13.513  1.6491  1.1164  0.6992
 2866TIP3   OH230088   4.783   4.116   2.298 -0.1766  0.0078  0.2365
 2866TIP3    H130089   4.810   4.094   2.209  0.7666  1.4212  0.1510
 2866TIP3    H230090   4.758   4.032   2.337  0.2012 -0.7388 -1.0820
 2867TIP3   OH230091   5.976   2.292   1.666  0.9304 -0.8049 -0.2570
 2867TIP3    H130092   6.066   2.317   1.649  0.6635  0.4839  0.1319
 2867TIP3    H230093   5.943   2.260   1.582  0.7909  1.7772 -1.2576
 2868TIP3   OH230094   0.607   0.222   5.120  0.6161 -0.1058  0.3061
 2868TIP3    H130095   0.585   0.270   5.200  0.8636  0.1598  0.2145
 2868TIP3    H230096   0.525   0.180   5.094  0.1378  1.0810 -0.1646
 2869TIP3   OH230097   4.213   1.962  13.253  0.4359 -0.4538 -0.2536
 2869TIP3    H130098   4.125   1.961  13.291  0.0951 -0.8930 -1.0364
 2869TIP3    H230099   4.262   1.899  13.305  0.3111 -0.1427  0.2433
 2870TIP3   OH230100   1.165   0.942   1.830  0.5410 -0.2642  0.1348
 2870TIP3    H130101   1.155   0.883   1.905  0.0344 -0.3546 -0.0020
 2870TIP3    H230102   1.259   0.943   1.813  0.5390 -1.2261 -0.0067
 2871TIP3   OH230103   6.794   3.174  12.451  0.5571 -0.1814  0.2969
 2871TIP3    H130104   6.870   3.192  12.397  1.1434  0.5683  1.3388
 2871TIP3    H230105   6.768   3.259  12.485  1.3636 -0.8037  2.6934
 2872TIP3   OH230106   2.097   2.190  13.370  0.0477  0.5895  0.5735
 2872TIP3    H130107   2.139   2.266  13.410 -2.8009  2.8180 -0.3887
 2872TIP3    H230108   2.004   2.203  13.384 -0.7330 -1.3648 -1.9309
 2873TIP3   OH230109   5.534   2.083  12.250 -0.4986  0.1390 -0.5127
 2873TIP3    H130110   5.615   2.083  12.199  0.1949  2.9718  0.4456
 2873TIP3    H230111   5.518   2.174  12.272 -1.8617 -0.7016  2.6545
 2874TIP3   OH230112   5.397   2.545  12.586  0.2510  0.0610  0.0164
 2874TIP3    H130113   5.468   2.601  12.558  0.6872  0.1337  1.2023
 2874TIP3    H230114   5.351   2.521  12.506  2.7477 -1.5545 -1.0176
 2875TIP3   OH230115   2.011   3.292  14.834  0.3215  0.4283  0.0681
 2875TIP3    H130116   2.034   3.346  14.910 -0.8998 -1.6271  1.9874
 2875TIP3    H230117   1.918   3.272  14.845 -0.0203  0.4677 -2.2651
 2876TIP3   OH230118   5.147   2.126   3.031 -0.3917  0.9192 -0.3337
 2876TIP3    H130119   5.155   2.215   3.066  0.0668 -0.2673  2.8190
 2876TIP3    H230120   5.059   2.098   3.057 -0.3624  0.2653 -0.9125
 2877TIP3   OH230121   5.384   2.046  11.969 -0.0341  0.2818 -0.0527
 2877TIP3    H130122   5.313   2.102  12.001 -0.0185 -0.8309  2.1130
 2877TIP3    H230123   5.451   2.051  12.037  3.1199  3.0656 -2.9762
 2878TIP3   OH230124   5.563   5.698  16.685 -0.4580 -0.5800  0.1623
 2878TIP3    H130125   5.639   5.693  16.743  0.3834 -0.1520 -0.8681
 2878TIP3    H230126   5.489   5.713  16.744 -0.0147 -2.6521  1.3680
 2879TIP3   OH230127   6.298   1.385   5.370 -0.3743 -0.4656 -0.1425
 2879TIP3    H130128   6.353   1.415   5.297  0.2703 -1.0032  0.1021
 2879TIP3    H230129   6.320   1.443   5.442 -0.3385 -0.4990 -0.1263
 2880TIP3   OH230130   1.844   5.134   5.914  0.0543 -0.0537 -0.0793
 2880TIP3    H130131   1.809   5.195   5.980  2.4667 -0.2764  1.5325
 2880TIP3    H230132   1.830   5.048   5.952 -0.1445 -0.3132 -0.7304
 2881TIP3   OH230133   4.374   6.751  16.286 -0.4429 -0.0500 -0.3423
 2881TIP3    H130134   4.301   6.812  16.290 -0.1315  0.4293 -1.5347
 2881TIP3    H230135   4.451   6.806  16.273 -0.0114 -0.6198 -0.2504
 2882TIP3   OH230136   3.509   0.117  11.044 -0.3229 -0.2285 -0.1893
 2882TIP3    H130137   3.520   0.063  11.122 -1.2764  1.8321  1.4697
 2882TIP3    H230138   3.423   0.092  11.010  0.3764 -1.6008 -1.0106
 2883TIP3   OH230139   2.813   2.793  13.601  0.1930  0.1712  0.1488
 2883TIP3    H130140   2.881   2.728  13.622 -0.2891 -0.3702  0.0734
 2883TIP3    H230141   2.785   2.826  13.686  0.5893  0.4411  0.1780
 2884TIP3   OH230142   0.220   3.265   6.412 -0.2777  0.1307  0.0306
 2884TIP3    H130143   0.140   3.240   6.458  0.0534  0.6000  0.8659
 2884TIP3    H230144   0.243   3.188   6.360 -0.9489 -0.2067  0.2246
 2885TIP3   OH230145   5.111   4.037   3.696  0.1394 -0.2955  0.2162
 2885TIP3    H130146   5.106   4.123   3.655 -0.3025  1.3408  3.3575
 2885TIP3    H230147   5.022   4.003   3.690 -0.3363  0.6947  1.2124
 2886TIP3   OH230148   0.501   5.543   4.367 -0.6661  0.0168  0.1585
 2886TIP3    H130149   0.438   5.606   4.331 -0.5305  0.6985  1.0923
 2886TIP3    H230150   0.468   5.458   4.338  0.5657  0.5569 -3.4445
 2887TIP3   OH230151   4.791   1.730  12.081 -0.0657 -0.2967 -0.2749
 2887TIP3    H130152   4.857   1.799  12.081 -1.1441  0.7771 -1.3624
 2887TIP3    H230153   4.773   1.713  11.988 -1.0350 -0.8502 -0.0043
 2888TIP3   OH230154   4.376   5.078   6.025 -0.0341 -0.1347 -0.3147
 2888TIP3    H130155   4.344   5.076   5.934 -0.8520 -3.2424 -0.0662
 2888TIP3    H230156   4.297   5.085   6.078  0.4889  2.7711  0.2682
 2889TIP3   OH230157   4.767   3.150   5.847  0.2881  0.3179 -0.0900
 2889TIP3    H130158   4.830   3.147   5.775  0.8832  0.0206  0.4392
 2889TIP3    H230159   4.688   3.109   5.811  1.4081 -2.2904  0.2339
 2890TIP3   OH230160   3.219   6.646  14.888  0.2367  0.1005 -0.3562
 2890TIP3    H130161   3.137   6.628  14.933  1.1387 -1.2335  0.8698
 2890TIP3    H230162   3.230   6.572  14.828 -0.4472  1.3411 -2.1039
 2891TIP3   OH230163   5.466   2.291  11.811 -0.2958 -0.7806  0.3320
 2891TIP3    H130164   5.427   2.212  11.849 -1.6053 -0.5838 -0.5318
 2891TIP3    H230165   5.400   2.322  11.749  0.2822  0.9021  0.5257
 2892TIP3   OH230166   6.819   6.751   1.618  0.2785 -0.1966  0.4331
 2892TIP3    H130167   6.750   6.700   1.575  0.0344  0.0569  0.5157
 2892TIP3    H230168   6.872   6.784   1.546 -1.6510  2.4232  0.0554
 2893TIP3   OH230169   2.762   5.792   1.735  0.4608  0.8779 -0.0371
 2893TIP3    H130170   2.815   5.806   1.813  0.9685 -0.3601 -0.1373
 2893TIP3    H230171   2.772   5.699   1.715 -0.0478  1.0686 -1.3023
 2894TIP3   OH230172   0.744   1.117  12.633  0.1771 -0.1754 -0.7044
 2894TIP3    H130173   0.760   1.040  12.579 -0.3725  1.2139 -3.0249
 2894TIP3    H230174   0.666   1.157  12.594 -0.5351  0.7060  1.4510
 2895TIP3   OH230175   2.981   6.595  12.739  0.4814  0.2598  0.0608
 2895TIP3    H130176   2.969   6.574  12.647  0.5005  2.7629 -0.5784
 2895TIP3    H230177   3.069   6.632  12.744  0.4989  0.1131  1.0957
 2896TIP3   OH230178   6.019   3.002   4.990 -0.2481 -0.6620  0.6892
 2896TIP3    H130179   6.003   2.945   4.915 -1.2997  0.1947  0.2432
 2896TIP3    H230180   6.087   2.956   5.041 -1.3652 -2.5271  0.5805
 2897TIP3   OH230181   3.592   1.352   3.254 -0.1562  0.1517 -0.3485
 2897TIP3    H130182   3.676   1.370   3.211 -0.3157  0.5553 -0.4997
 2897TIP3    H230183   3.602   1.265   3.292 -0.1340 -0.3758 -1.5139
 2898TIP3   OH230184   5.253   6.534  13.398 -0.0819  0.1327 -0.1964
 2898TIP3    H130185   5.333   6.505  13.355 -0.0229  0.0038 -0.0003
 2898TIP3    H230186   5.281   6.559  13.486  0.0577  1.7455 -0.6669
 2899TIP3   OH230187   3.385   2.344   4.165 -0.2219 -0.0620  0.7354
 2899TIP3    H130188   3.344   2.371   4.083  0.0968 -0.5486  0.4127
 2899TIP3    H230189   3.435   2.421   4.193  1.5468 -0.6024 -0.7306
 2900TIP3   OH230190   5.104   2.420   0.526 -0.1896 -0.6068  0.0120
 2900TIP3    H130191   5.155   2.450   0.601 -0.2792 -1.6445  0.5103
 2900TIP3    H230192   5.168   2.383   0.466 -0.0203  0.9588 -0.8314
 2901TIP3   OH230193   2.530   5.067   2.052  0.9294 -0.1001 -0.3015
 2901TIP3    H130194   2.614   5.021   2.057  0.3315 -1.0977  2.4250
 2901TIP3    H230195   2.465   4.997   2.046  0.0902  0.3258  2.3233
 2902TIP3   OH230196   0.357   6.172  15.147  0.0266  0.5804 -0.5251
 2902TIP3    H130197   0.380   6.239  15.083 -1.1982  1.5158 -0.0230
 2902TIP3    H230198   0.303   6.218  15.212  1.1448 -0.3435  1.1355
 2903TIP3   OH230199   1.336   3.149  10.759 -0.1570  0.9605  0.8822
 2903TIP3    H130200   1.388   3.070  10.745  1.0547  1.9498 -0.5676
 2903TIP3    H230201   1.333   3.161  10.854  0.5435 -0.2298  1.0659
 2904TIP3   OH230202   4.823   4.841   5.127  0.2927 -0.1035  0.2205
 2904TIP3    H130203   4.733   4.834   5.094  0.1168 -0.2853  0.7349
 2904TIP3    H230204   4.814   4.872   5.217  0.6689 -1.3607  0.7112
 2905TIP3   OH230205   0.638   2.371  16.266  0.3369  0.1398  0.1325
 2905TIP3    H130206   0.626   2.454  16.220 -0.3061  0.7373  1.3163
 2905TIP3    H230207   0.728   2.373  16.298  0.0052  0.8852  1.0642
 2906TIP3   OH230208   2.344   6.673  12.060  0.2925 -0.0181 -0.2060
 2906TIP3    H130209   2.394   6.696  12.138  0.0688 -0.8248  0.1929
 2906TIP3    H230210   2.354   6.578  12.052 -0.9818 -0.1781 -0.2383
 2907TIP3   OH230211   4.147   5.885  13.876  0.1652 -0.1453  0.1748
 2907TIP3    H130212   4.196   5.949  13.825  1.8947 -1.8786 -0.4705
 2907TIP3    H230213   4.066   5.872  13.826  0.0232  1.1342  0.0584
 2908TIP3   OH230214   3.993   3.960  12.254 -0.2696 -0.0251 -0.1013
 2908TIP3    H130215   4.081   3.927  12.273  0.2087  1.6066  0.6824
 2908TIP3    H230216   4.008   4.039  12.201 -1.3774 -1.0306 -2.0089
 2909TIP3   OH230217   3.081   1.229   0.982  0.5699  0.3023 -0.2083
 2909TIP3    H130218   3.133   1.254   0.905 -0.0079  1.8804 -0.1182
 2909TIP3    H230219   3.109   1.290   1.050 -0.1289  0.0101  0.3515
 2910TIP3   OH230220   1.389   2.254  13.828  0.3397  0.3077 -0.4892
 2910TIP3    H130221   1.338   2.312  13.771 -0.1599 -0.1806 -0.5498
 2910TIP3    H230222   1.433   2.313  13.889 -0.3858  0.7371 -0.3679
 2911TIP3   OH230223   3.720   5.581   2.837  0.1866  0.3286  0.1960
 2911TIP3    H130224   3.753   5.539   2.917  0.0234  0.6593  0.4410
 2911TIP3    H230225   3.768   5.664   2.832 -0.5569  0.7934  0.5308
 2912TIP3   OH230226   3.255   3.925  12.257  0.3426 -0.1518 -0.7708
 2912TIP3    H130227   3.231   3.942  12.165  1.9236 -1.5344 -1.4912
 2912TIP3    H230228   3.211   3.842  12.278  1.0124 -0.4904 -0.7016
 2913TIP3   OH230229   5.591   6.670   2.262  0.2232  0.3831  0.0894
 2913TIP3    H130230   5.604   6.595   2.320  1.8061  0.4689 -0.1193
 2913TIP3    H230231   5.663   6.665   2.200  0.5929  2.2903  0.3045
 2914TIP3   OH230232   3.994   2.960  13.673  0.4341  0.1289 -0.0806
 2914TIP3    H130233   4.069   3.001  13.718 -0.7794  0.2486  1.9807
 2914TIP3    H230234   4.003   2.867  13.693  0.5696  0.0100 -0.6885
 2915TIP3   OH230235   0.087   4.433   5.025 -0.2687 -0.2044 -0.2428
 2915TIP3    H130236   0.001   4.432   4.984 -0.2957 -1.4690 -0.2115
 2915TIP3    H230237   0.134   4.504   4.982 -0.8675 -0.4040 -1.2548
 2916TIP3   OH230238   3.235   0.045  16.180  0.0209 -0.0876  0.1276
 2916TIP3    H130239   3.190   0.012  16.258 -0.4139 -2.7423 -1.1432
 2916TIP3    H230240   3.218   0.139  16.181 -1.9214 -0.3738  1.9967
 2917TIP3   OH230241   2.419   4.786  12.449  0.5115 -0.0709  0.1241
 2917TIP3    H130242   2.392   4.728  12.520  1.2876 -0.8222 -0.1623
 2917TIP3    H230243   2.340   4.797  12.396  0.4516 -1.2728 -0.0726
 2918TIP3   OH230244   0.884   4.322  12.622 -0.1839  0.9798 -0.1448
 2918TIP3    H130245   0.948   4.378  12.666  0.1029  0.0168  0.6965
 2918TIP3    H230246   0.926   4.236  12.619 -1.2417  0.4495 -0.0198
 2919TIP3   OH230247   5.146   4.141   4.087 -0.2701  0.6968 -0.2854
 2919TIP3    H130248   5.155   4.193   4.008  1.1006  1.8791  0.6019
 2919TIP3    H230249   5.225   4.159   4.138 -1.5490  0.8005  1.8146
 2920TIP3   OH230250   2.092   1.497  16.166 -0.5144  0.3856  0.1600
 2920TIP3    H130251   2.078   1.418  16.114 -1.5667  0.8254 -0.2639
 2920TIP3    H230252   2.157   1.547  16.117  0.4400 -0.3526  0.6195
 2921TIP3   OH230253   5.053   2.483  15.282  0.3762  0.6313 -0.3622
 2921TIP3    H130254   4.995   2.448  15.348  1.1209 -0.8200 -0.4338
 2921TIP3    H230255   5.002   2.481  15.201 -0.0823  1.1360 -0.0894
 2922TIP3   OH230256   3.350   4.981   6.218  0.5024  0.2606  0.2721
 2922TIP3    H130257   3.321   4.931   6.294  0.3051  0.4569  0.3278
 2922TIP3    H230258   3.270   5.015   6.179  0.5140 -0.7055 -0.6458
 2923TIP3   OH230259   2.303   5.174  11.252  0.3330  0.0681  0.5796
 2923TIP3    H130260   2.345   5.138  11.173 -0.1291 -2.0599  1.2365
 2923TIP3    H230261   2.212   5.146  11.246  0.2625 -0.0330  1.7924
 2924TIP3   OH230262   5.483   3.546   5.038 -0.3007 -0.3484  0.1508
 2924TIP3    H130263   5.484   3.639   5.016 -0.9864 -0.1652  0.8314
 2924TIP3    H230264   5.551   3.537   5.105  0.0384 -0.4239 -0.1959
 2925TIP3   OH230265   4.568   0.649   0.589  0.1735 -0.2854  0.6151
 2925TIP3    H130266   4.538   0.564   0.555 -2.9566  0.8434  0.2081
 2925TIP3    H230267   4.581   0.702   0.510 -1.2120  0.5529  0.9140
 2926TIP3   OH230268   4.957   0.749  15.416 -0.7111 -0.2144  0.5145
 2926TIP3    H130269   4.908   0.831  15.428 -1.1709 -0.6241  1.5555
 2926TIP3    H230270   4.901   0.682  15.455 -1.0700 -1.2971 -1.6709
 2927TIP3   OH230271   4.377   5.171   0.715 -0.3180 -0.5578 -0.3000
 2927TIP3    H130272   4.451   5.210   0.669 -1.9955  1.2255 -1.6809
 2927TIP3    H230273   4.338   5.111   0.651 -1.5105  0.4491 -0.5691
 2928TIP3   OH230274   5.661   2.843   0.351 -0.2363 -0.4899 -0.4828
 2928TIP3    H130275   5.567   2.829   0.357 -0.0496 -1.3497  1.4050
 2928TIP3    H230276   5.693   2.769   0.299 -0.5310 -0.5343 -0.6048
 2929TIP3   OH230277   4.048   4.346  15.775  0.3090 -0.2214  0.0537
 2929TIP3    H130278   3.999   4.371  15.697  1.0002  0.9297 -0.0378
 2929TIP3    H230279   4.097   4.268  15.749  0.2190 -0.0812 -0.5345
 2930TIP3   OH230280   4.546   4.209   1.082  0.5394 -0.1145  0.7457
 2930TIP3    H130281   4.496   4.284   1.051  0.6503 -0.1861  0.3880
 2930TIP3    H230282   4.508   4.188   1.167 -1.6498 -1.6382 -0.5148
 2931TIP3   OH230283   0.949   3.545   1.798  0.2445  0.3231  0.3051
 2931TIP3    H130284   0.865   3.521   1.759  0.9817 -2.2163  0.1552
 2931TIP3    H230285   0.952   3.497   1.881  1.9472 -0.4736 -0.1616
 2932TIP3   OH230286   0.150   3.356  13.258  0.7784  1.0906 -0.1523
 2932TIP3    H130287   0.103   3.429  13.300  0.3955 -0.5213  2.5001
 2932TIP3    H230288   0.081   3.294  13.234  1.2291  0.7458 -0.5810
 2933TIP3   OH230289   6.129   3.600  13.081 -0.2720 -0.2360 -0.0790
 2933TIP3    H130290   6.133   3.629  13.172 -0.1260 -0.0260 -0.1526
 2933TIP3    H230291   6.037   3.612  13.056 -0.1808  0.3160 -0.1599
 2934TIP3   OH230292   1.038   1.321  17.147 -0.1240 -0.5060  0.3515
 2934TIP3    H130293   0.978   1.255  17.112  0.5209  0.6094 -3.2698
 2934TIP3    H230294   1.124   1.280  17.142  0.0627 -0.0653 -0.1465
 2935TIP3   OH230295   1.786   3.910   3.485 -0.0310 -0.1292  0.2661
 2935TIP3    H130296   1.730   3.836   3.460 -1.1044  1.2303 -1.6218
 2935TIP3    H230297   1.792   3.963   3.405  0.9755  1.6556  1.4598
 2936TIP3   OH230298   3.079   1.812  13.345 -0.2893 -0.3368  0.5812
 2936TIP3    H130299   2.996   1.803  13.393 -0.7044  0.2425 -0.0079
 2936TIP3    H230300   3.143   1.766  13.399 -0.6981  0.4586  1.8024
 2937TIP3   OH230301   3.376   4.895  15.572 -0.1345  0.1654  0.1384
 2937TIP3    H130302   3.307   4.955  15.543  0.1061 -0.3947 -1.7175
 2937TIP3    H230303   3.404   4.850  15.492  0.0101 -2.1140  1.3983
 2938TIP3   OH230304   2.037   0.609   2.846  0.0841  0.4047  0.1095
 2938TIP3    H130305   2.122   0.566   2.841 -0.0181  0.2956 -1.2486
 2938TIP3    H230306   1.995   0.588   2.762 -1.0107  1.0097  0.4824
 2939TIP3   OH230307   2.308   5.401   0.171  0.4902 -0.3836 -0.3458
 2939TIP3    H130308   2.293   5.479   0.117  2.4869 -1.2807 -2.3497
 2939TIP3    H230309   2.309   5.328   0.109  2.1182 -1.5759  0.9908
 2940TIP3   OH230310   3.726   3.927  13.097  0.0515  0.0853  0.1807
 2940TIP3    H130311   3.802   3.978  13.126  1.2510 -1.6829  0.3211
 2940TIP3    H230312   3.719   3.947  13.004  2.0650 -1.3206 -0.3293
 2941TIP3   OH230313   0.013   6.076  15.628  0.4279 -0.2923  0.2487
 2941TIP3    H130314   0.089   6.074  15.570 -0.5445  1.4652 -1.1654
 2941TIP3    H230315   0.044   6.034  15.709  2.9352  0.4461 -0.2347
 2942TIP3   OH230316   1.161   0.676   0.659  0.4051  0.0301  0.6013
 2942TIP3    H130317   1.119   0.590   0.654 -1.4582  0.7379  2.6215
 2942TIP3    H230318   1.196   0.680   0.748  0.4370  1.3725  0.5408
 2943TIP3   OH230319   1.891   6.596   4.267  0.1628 -0.6174 -0.6627
 2943TIP3    H130320   1.968   6.565   4.218 -0.3745  0.7786 -2.5034
 2943TIP3    H230321   1.853   6.516   4.305  1.5101 -1.5495 -1.1974
 2944TIP3   OH230322   1.609   6.805   3.102 -0.1110 -0.3610  0.2252
 2944TIP3    H130323   1.675   6.768   3.160 -0.3931 -3.0339 -1.0458
 2944TIP3    H230324   1.535   6.744   3.107 -1.9145  1.6644  0.3373
 2945TIP3   OH230325   3.624   0.495  12.458  0.1230 -0.0450  0.2592
 2945TIP3    H130326   3.682   0.518  12.386  0.1984 -0.4331  0.1953
 2945TIP3    H230327   3.683   0.477  12.531  0.0601  0.0234  0.3282
 2946TIP3   OH230328   2.854   1.296  15.644 -0.5657  0.9235  0.2695
 2946TIP3    H130329   2.804   1.351  15.583 -0.5018 -0.6062 -1.2124
 2946TIP3    H230330   2.939   1.283  15.602 -0.7405 -0.6817  0.3464
 2947TIP3   OH230331   5.620   2.461   1.198 -0.1635 -0.2642 -0.4735
 2947TIP3    H130332   5.698   2.407   1.183 -1.6655 -2.4815 -0.7339
 2947TIP3    H230333   5.594   2.489   1.110 -0.7361 -1.1611 -0.6036
 2948TIP3   OH230334   2.731   5.787  15.620  0.5027  0.3069 -0.3580
 2948TIP3    H130335   2.667   5.793  15.691 -0.4563 -0.5250 -1.1075
 2948TIP3    H230336   2.801   5.846  15.645 -0.0496  0.4050  1.0332
 2949TIP3   OH230337   4.288   4.014  12.565  0.8824  1.0087  0.3348
 2949TIP3    H130338   4.377   3.995  12.535  0.9627  1.4437  0.2987
 2949TIP3    H230339   4.237   3.938  12.537  0.9114  1.4795 -1.0538
 2950TIP3   OH230340   5.671   5.162   2.841 -0.1851 -0.1480 -0.5942
 2950TIP3    H130341   5.757   5.169   2.799  0.0824  0.9217  0.0881
 2950TIP3    H230342   5.691   5.147   2.934 -0.7326  0.1263 -0.4319
 2951TIP3   OH230343   2.578   5.031  14.080  0.1170  0.4164 -1.0185
 2951TIP3    H130344   2.672   5.017  14.095  0.3089  2.2064 -0.2002
 2951TIP3    H230345   2.553   4.963  14.018  1.6166 -1.0333 -0.1213
 2952TIP3   OH230346   4.898   4.277   1.073  0.1502  0.1998 -0.7498
 2952TIP3    H130347   4.893   4.238   1.160 -1.1032  0.2092 -0.7886
 2952TIP3    H230348   4.991   4.284   1.054  0.4226 -1.4511 -0.1499
 2953TIP3   OH230349   6.254   2.297   3.951  0.6855  0.2602  0.4797
 2953TIP3    H130350   6.235   2.285   3.858 -0.4188  0.0066  0.7319
 2953TIP3    H230351   6.179   2.259   3.996  1.5737 -0.3399  1.4995
 2954TIP3   OH230352   3.645   5.426  10.528  0.2665 -0.2101 -0.7103
 2954TIP3    H130353   3.720   5.460  10.578  0.4021 -1.1757 -0.2313
 2954TIP3    H230354   3.621   5.345  10.573 -1.4614  0.3848 -0.4755
 2955TIP3   OH230355   3.989   2.313  14.299  0.0764 -0.4258  0.0329
 2955TIP3    H130356   4.060   2.371  14.270 -0.6860  0.1295 -0.7787
 2955TIP3    H230357   4.026   2.224  14.290  0.9454 -0.1136  0.4217
 2956TIP3   OH230358   3.378   1.841  12.372  0.3032 -0.0032 -0.3432
 2956TIP3    H130359   3.325   1.821  12.448 -0.4570  0.0821 -0.8405
 2956TIP3    H230360   3.365   1.934  12.357  2.0673  0.4427  0.6244
 2957TIP3   OH230361   3.715   3.280   5.960  0.3274  0.6236 -0.1568
 2957TIP3    H130362   3.758   3.322   6.034  3.1182  0.0264 -1.3029
 2957TIP3    H230363   3.711   3.188   5.984 -2.2340  0.8890  0.7310
 2958TIP3   OH230364   5.392   3.814   4.226  0.0263  0.2769  0.0261
 2958TIP3    H130365   5.358   3.857   4.304 -1.3543  0.7832 -0.8190
 2958TIP3    H230366   5.429   3.885   4.174  0.9737 -0.0633  0.2074
 2959TIP3   OH230367   1.020   6.660   5.738 -0.4288 -0.1467  0.4638
 2959TIP3    H130368   1.001   6.736   5.792  1.7713  0.4091  0.5452
 2959TIP3    H230369   0.972   6.676   5.656 -0.4714  1.0248  0.7040
 2960TIP3   OH230370   1.186   1.558  11.902 -0.2354 -0.4377 -0.7201
 2960TIP3    H130371   1.173   1.465  11.883  0.4710 -1.2438  2.2647
 2960TIP3    H230372   1.272   1.578  11.863  0.4914 -1.5738  0.2452
 2961TIP3   OH230373   1.239   6.615   0.737 -0.1307 -0.2363 -0.2736
 2961TIP3    H130374   1.196   6.540   0.777 -0.9218  0.4443  0.1904
 2961TIP3    H230375   1.173   6.652   0.679 -0.9392  1.9334  1.8414
 2962TIP3   OH230376   2.888   0.722   5.877  0.1192  0.4978  0.7553
 2962TIP3    H130377   2.897   0.771   5.795  1.4829 -0.1269  0.5070
 2962TIP3    H230378   2.878   0.790   5.944  2.2977  1.1899  0.4578
 2963TIP3   OH230379   3.063   5.623  15.868  0.0613 -0.3386  0.5248
 2963TIP3    H130380   3.112   5.704  15.885  0.7836 -0.8532  0.9934
 2963TIP3    H230381   2.973   5.644  15.893  0.1390  0.4624  0.1759
 2964TIP3   OH230382   1.229   0.843   0.108 -0.4361 -0.7381  0.3916
 2964TIP3    H130383   1.134   0.854   0.115 -0.5163 -0.7875 -0.5145
 2964TIP3    H230384   1.241   0.750   0.091 -0.2663 -0.6297 -0.0973
 2965TIP3   OH230385   4.698   6.565   3.412 -0.6394  0.1942  0.2722
 2965TIP3    H130386   4.774   6.593   3.462 -0.4553 -2.7079  1.8734
 2965TIP3    H230387   4.725   6.572   3.320  2.7733 -3.2606  0.7471
 2966TIP3   OH230388   2.707   6.816  16.670 -0.3595  0.3386 -0.2486
 2966TIP3    H130389   2.616   6.832  16.694 -0.1520  0.5785  0.3946
 2966TIP3    H230390   2.750   6.901  16.677  0.1226  0.0578  0.4289
 2967TIP3   OH230391   3.182   6.001   2.906  0.0223  0.0547  0.0883
 2967TIP3    H130392   3.088   5.982   2.914  0.1541 -0.4812  0.4002
 2967TIP3    H230393   3.200   6.062   2.978  0.0148 -0.2340  0.3359
 2968TIP3   OH230394   0.487   1.421  13.693  0.1163 -0.3530  0.0513
 2968TIP3    H130395   0.464   1.500  13.645 -1.5381 -0.0900  1.1557
 2968TIP3    H230396   0.480   1.350  13.629 -0.4218  0.1663 -0.4733
 2969TIP3   OH230397   0.523   2.847   3.440 -0.1438 -0.3841 -0.1594
 2969TIP3    H130398   0.527   2.860   3.535  1.5371 -1.3346 -0.0504
 2969TIP3    H230399   0.587   2.909   3.405 -0.3100 -0.4678 -0.6197
 2970TIP3   OH230400   6.611   1.637   5.792 -0.5389 -0.5936 -0.0506
 2970TIP3    H130401   6.590   1.544   5.805  2.9368 -1.5119  0.1270
 2970TIP3    H230402   6.694   1.636   5.745  0.1579  2.4168  0.9042
 2971TIP3   OH230403   1.783   4.878   6.053 -0.3422  0.5193  0.3162
 2971TIP3    H130404   1.698   4.885   6.009 -0.6401 -0.3940  0.7286
 2971TIP3    H230405   1.782   4.948   6.118 -0.7130  0.6150  0.2077
 2972TIP3   OH230406   0.208   2.898  15.746 -0.4153 -0.4905 -0.9230
 2972TIP3    H130407   0.229   2.834  15.814  0.5544 -1.0015 -1.6922
 2972TIP3    H230408   0.136   2.858  15.697 -0.0999 -0.7996 -1.1342
 2973TIP3   OH230409   4.176   6.499  17.025 -0.4666 -0.6800 -0.3098
 2973TIP3    H130410   4.247   6.522  17.084 -1.7385  1.6131  0.4573
 2973TIP3    H230411   4.159   6.407  17.042  0.9815 -0.7536  0.9239
 2974TIP3   OH230412   1.897   4.420   1.203 -0.0398  0.0414 -0.0622
 2974TIP3    H130413   1.982   4.437   1.242 -0.1018 -0.5623  0.3525
 2974TIP3    H230414   1.910   4.345   1.146 -0.0166  0.7385 -1.0095
 2975TIP3   OH230415   6.774   2.962   1.546 -0.1544 -0.3354  0.3249
 2975TIP3    H130416   6.804   2.981   1.457  2.0473  0.7045  1.2111
 2975TIP3    H230417   6.783   2.867   1.554 -3.0166 -0.8491 -1.3778
 2976TIP3   OH230418   1.631   1.579   6.174  0.0825 -0.4542 -0.0417
 2976TIP3    H130419   1.628   1.487   6.148 -0.2464 -0.7566  1.0163
 2976TIP3    H230420   1.595   1.580   6.263  0.1583  0.6853 -0.0107
 2977TIP3   OH230421   5.244   0.537   3.913  0.4318 -0.2042  0.3956
 2977TIP3    H130422   5.267   0.572   3.999  2.6154 -0.6735  0.0638
 2977TIP3    H230423   5.209   0.449   3.931  1.4990 -0.5667  0.7986
 2978TIP3   OH230424   4.523   5.415   4.873 -0.2705 -0.4325  0.1524
 2978TIP3    H130425   4.459   5.365   4.824  0.3266 -1.6491  0.5775
 2978TIP3    H230426   4.472   5.466   4.935 -1.0671  1.3365 -1.8433
 2979TIP3   OH230427   3.141   5.895  15.858  0.0211 -0.1492  0.0959
 2979TIP3    H130428   3.135   5.960  15.787  1.7870 -1.1602 -1.0817
 2979TIP3    H230429   3.208   5.929  15.916 -0.2221 -0.1337  0.3686
 2980TIP3   OH230430   0.429   3.875  11.130 -0.5377 -0.2271  0.0312
 2980TIP3    H130431   0.524   3.882  11.145 -0.5142 -1.8609  0.7669
 2980TIP3    H230432   0.393   3.953  11.172  0.4823  0.5684 -0.4996
 2981TIP3   OH230433   0.742   5.602   4.291  0.1554 -0.2272  0.2402
 2981TIP3    H130434   0.653   5.584   4.322  0.4530 -1.4823  0.4211
 2981TIP3    H230435   0.795   5.600   4.370  0.4315 -0.0606  0.0589
 2982TIP3   OH230436   1.193   4.612   3.679 -0.0023  0.2633  0.2755
 2982TIP3    H130437   1.181   4.559   3.600 -1.5502  0.3043  0.4691
 2982TIP3    H230438   1.204   4.701   3.646  0.1636  0.1726  0.0768
 2983TIP3   OH230439   4.287   1.298   1.061 -0.0341 -0.0703 -0.1139
 2983TIP3    H130440   4.364   1.242   1.066 -0.8041 -1.2304 -0.7401
 2983TIP3    H230441   4.261   1.294   0.969  0.7838  2.5844 -0.5335
 2984TIP3   OH230442   5.060   1.785  13.978 -0.1223  0.0351  0.1543
 2984TIP3    H130443   5.051   1.712  14.040 -1.5989  0.6278  0.6963
 2984TIP3    H230444   5.088   1.859  14.033  2.9858 -0.4236 -0.6366
 2985TIP3   OH230445   6.032   5.411  13.771  0.0388 -0.3034  0.0961
 2985TIP3    H130446   5.979   5.440  13.845 -0.7356 -1.2556 -0.0541
 2985TIP3    H230447   6.013   5.317  13.764  1.0337 -0.4695 -0.5531
 2986TIP3   OH230448   1.061   1.938  16.510 -0.3837  0.3347 -0.2631
 2986TIP3    H130449   1.033   1.853  16.546 -0.3509  0.5537  0.2924
 2986TIP3    H230450   1.086   1.989  16.587 -1.5510  1.2740 -0.4874
 2987TIP3   OH230451   0.277   5.616   4.264  0.1390  0.1816  0.0834
 2987TIP3    H130452   0.273   5.699   4.216  0.2988  0.4263  0.4878
 2987TIP3    H230453   0.190   5.577   4.252  0.5621 -0.3388 -1.4220
 2988TIP3   OH230454   0.267   0.668  16.200 -0.1289 -0.7207 -0.0596
 2988TIP3    H130455   0.244   0.760  16.205  0.0335 -0.7293  0.8950
 2988TIP3    H230456   0.235   0.640  16.114 -0.9812 -0.0015  0.0182
 2989TIP3   OH230457   0.169   3.827  12.080  0.3124  0.1292  0.4199
 2989TIP3    H130458   0.214   3.911  12.077 -1.4007  1.1310 -2.9609
 2989TIP3    H230459   0.091   3.843  12.134  0.7740  0.2293  1.0624
 2990TIP3   OH230460   6.703   3.487   2.064  0.1243 -0.6186  0.0000
 2990TIP3    H130461   6.745   3.417   2.114 -0.6955 -2.8221 -2.1850
 2990TIP3    H230462   6.770   3.555   2.057  1.7147 -2.0772  0.4272
 2991TIP3   OH230463   4.704   0.987   3.055  0.5793 -0.0605 -0.3514
 2991TIP3    H130464   4.708   1.077   3.085 -2.7546  1.5670 -3.8075
 2991TIP3    H230465   4.657   0.940   3.124  1.2166  1.1611  0.9409
 2992TIP3   OH230466   0.006   4.577  11.511 -0.0856 -0.0131 -0.2869
 2992TIP3    H130467   0.039   4.599  11.424 -0.6937 -0.9809 -0.7763
 2992TIP3    H230468  -0.069   4.635  11.524 -1.8734 -1.8891 -1.6949
 2993TIP3   OH230469   2.362   3.395  13.166 -0.3454  0.1359  0.2125
 2993TIP3    H130470   2.370   3.302  13.189  0.7633  0.1198 -0.1955
 2993TIP3    H230471   2.446   3.433  13.191 -0.4056  0.8162 -0.5896
 2994TIP3   OH230472   2.686   1.634   1.132  0.3081  0.0172 -0.1937
 2994TIP3    H130473   2.695   1.548   1.173 -1.3349 -0.0078  0.2073
 2994TIP3    H230474   2.616   1.623   1.068  0.8520  0.7885 -0.9354
 2995TIP3   OH230475   4.725   2.963  16.134  0.0413  0.2908 -0.3429
 2995TIP3    H130476   4.701   2.946  16.225  1.1666  1.8662  0.2891
 2995TIP3    H230477   4.804   2.911  16.121  0.2783  0.6111 -0.1925
 2996TIP3   OH230478   4.998   1.820   5.837  0.1404  0.2191 -0.2626
 2996TIP3    H130479   5.060   1.891   5.819  0.3376 -0.0958 -0.8725
 2996TIP3    H230480   4.946   1.851   5.910 -0.7857  1.6437 -1.4669
 2997TIP3   OH230481   4.067   2.651   2.614  0.5777 -0.6649 -0.1912
 2997TIP3    H130482   4.162   2.645   2.603  0.7174  1.5647 -0.5634
 2997TIP3    H230483   4.036   2.694   2.535 -0.7823 -1.4243 -0.1026
 2998TIP3   OH230484   6.611   1.596   1.129  0.3322  0.0565 -0.2636
 2998TIP3    H130485   6.656   1.511   1.122 -0.7671 -0.4273 -1.9730
 2998TIP3    H230486   6.542   1.580   1.194  0.0045 -0.4312 -0.7198
 2999TIP3   OH230487   6.430   1.154  16.838 -0.4558 -0.0898  0.3075
 2999TIP3    H130488   6.404   1.124  16.751 -1.4182  1.7887 -0.1229
 2999TIP3    H230489   6.525   1.162  16.834 -0.4456 -0.5123 -0.3889
 3000TIP3   OH230490   2.972   2.505  15.829 -0.0438 -0.1399 -0.1695
 3000TIP3    H130491   2.928   2.435  15.781  1.8734 -2.1591  0.7964
 3000TIP3    H230492   2.919   2.517  15.908  0.4575 -1.7325  0.4478
 3001TIP3   OH230493   3.093   0.038  13.573 -0.5813 -0.2869  0.7950
 3001TIP3    H130494   3.088   0.011  13.665 -0.7441  0.3812  0.9884
 3001TIP3    H230495   3.082  -0.043  13.524  0.2587 -0.7640  1.3712
 3002TIP3   OH230496   1.792   3.004   3.097 -0.0994  0.2648 -0.0042
 3002TIP3    H130497   1.820   2.941   3.031 -0.9478 -0.5836  0.4319
 3002TIP3    H230498   1.765   3.081   3.046  1.8430  0.6845 -0.4913
 3003TIP3   OH230499   1.847   2.349   2.413  0.2130  0.2992  0.1146
 3003TIP3    H130500   1.776   2.295   2.449  0.7906 -0.9656 -0.5822
 3003TIP3    H230501   1.911   2.355   2.485  0.6101 -0.8361 -0.1146
 3004TIP3   OH230502   5.146   5.400  12.574 -0.7960  0.7398 -0.0826
 3004TIP3    H130503   5.121   5.370  12.661 -1.4852 -0.0752 -0.5514
 3004TIP3    H230504   5.142   5.496  12.580 -0.4077  0.7019  0.8985
 3005TIP3   OH230505   2.795   3.540  12.953 -0.0431 -0.3903 -0.1906
 3005TIP3    H130506   2.723   3.602  12.964 -0.5293 -1.1713  1.3987
 3005TIP3    H230507   2.753   3.454  12.948  0.7494 -1.0648  2.6911
 3006TIP3   OH230508   2.731   3.166   2.388 -0.4920 -0.3419 -0.0260
 3006TIP3    H130509   2.646   3.131   2.414 -1.3337  1.9973  0.5608
 3006TIP3    H230510   2.790   3.141   2.459 -1.9059  2.5641  2.3590
 3007TIP3   OH230511   2.515   4.693   5.254  0.4554  0.1801 -0.7029
 3007TIP3    H130512   2.548   4.628   5.192  0.4262 -0.8320  0.3215
 3007TIP3    H230513   2.443   4.649   5.299  0.0411  1.1372 -0.3976
 3008TIP3   OH230514   3.295   6.004   5.884  0.0485  0.2934 -0.0214
 3008TIP3    H130515   3.261   5.987   5.797  0.1648 -0.7008  0.1184
 3008TIP3    H230516   3.222   5.984   5.943  0.1102  0.5325  0.1409
 3009TIP3   OH230517   0.155   4.529  11.780  0.4409  0.4592 -0.1814
 3009TIP3    H130518   0.209   4.462  11.738 -0.6616  0.6751 -2.0547
 3009TIP3    H230519   0.065   4.503  11.761 -0.0290  3.0317 -2.0342
 3010TIP3   OH230520   3.387   6.571   4.318  0.5263 -0.1941 -0.3395
 3010TIP3    H130521   3.463   6.611   4.277  0.8178 -0.9355 -0.5452
 3010TIP3    H230522   3.416   6.483   4.342  0.2328  0.0857  1.1081
 3011TIP3   OH230523   2.622   3.462  13.230 -0.3156 -0.1812 -0.2373
 3011TIP3    H130524   2.656   3.382  13.270 -1.5102  0.1856  1.6245
 3011TIP3    H230525   2.639   3.531  13.294 -1.7421  0.5449 -0.6021
 3012TIP3   OH230526   1.930   1.593  12.817  0.2366  0.2510  0.4546
 3012TIP3    H130527   1.904   1.614  12.907 -0.2425  0.8359  0.1789
 3012TIP3    H230528   1.849   1.567  12.774  0.4062  0.3358  0.0851
 3013TIP3   OH230529   4.754   1.672   4.231  0.0071 -0.8033 -0.4215
 3013TIP3    H130530   4.689   1.714   4.288  0.2492 -2.1645  0.9217
 3013TIP3    H230531   4.717   1.586   4.211  0.4380 -0.7671 -1.4366
 3014TIP3   OH230532   6.086   2.171   5.662 -0.1852  0.0968 -0.9273
 3014TIP3    H130533   6.027   2.188   5.736  0.5106  1.4682 -0.6679
 3014TIP3    H230534   6.139   2.097   5.692 -0.3479  0.2180 -0.3130
 3015TIP3   OH230535   2.312   2.475   0.874 -0.6741  0.3329 -0.2457
 3015TIP3    H130536   2.372   2.485   0.801  1.2039  0.3682  1.2253
 3015TIP3    H230537   2.278   2.386   0.866 -1.8229  0.8653 -2.0401
 3016TIP3   OH230538   5.250   0.434   0.200 -0.2186 -0.2775  0.4583
 3016TIP3    H130539   5.156   0.446   0.186 -0.1593 -1.4591 -1.3027
 3016TIP3    H230540   5.266   0.341   0.181  1.3712  0.0127  0.2098
 3017TIP3   OH230541   6.641   1.418  15.823  0.1623 -0.1457  0.3355
 3017TIP3    H130542   6.718   1.403  15.768 -0.7686 -0.7875 -0.8590
 3017TIP3    H230543   6.620   1.511  15.811  0.9024  0.0921  0.8788
 3018TIP3   OH230544   4.407   6.283   3.764 -0.2780  0.7922 -0.3603
 3018TIP3    H130545   4.391   6.228   3.840  1.8809  0.6927  0.0958
 3018TIP3    H230546   4.396   6.373   3.796 -1.6120  0.7111 -0.5427
 3019TIP3   OH230547   5.474   0.512  15.916 -0.3441 -1.1374  0.1777
 3019TIP3    H130548   5.470   0.424  15.954  0.6264 -1.3226 -0.1292
 3019TIP3    H230549   5.382   0.540  15.911 -0.5529 -1.2760  2.2688
 3020TIP3   OH230550   3.154   2.216  12.893  0.0211 -0.4507  0.5313
 3020TIP3    H130551   3.096   2.152  12.935 -1.2944 -0.2230 -0.8410
 3020TIP3    H230552   3.146   2.294  12.947 -0.9171 -0.4537  0.4232
 3021TIP3   OH230553   4.131   3.625   3.100  0.3888  0.4484  0.4446
 3021TIP3    H130554   4.114   3.646   3.008  1.2534 -1.4177 -0.1986
 3021TIP3    H230555   4.070   3.554   3.119  2.1497 -1.1672  0.3732
 3022TIP3   OH230556   3.947   6.664   3.225  0.2519  0.1716 -0.2626
 3022TIP3    H130557   4.025   6.707   3.260  0.1848 -0.0777  0.2034
 3022TIP3    H230558   3.876   6.691   3.284  0.1631 -0.3740 -0.1103
 3023TIP3   OH230559   5.228   6.537   4.019 -0.1776  0.3291 -0.0286
 3023TIP3    H130560   5.141   6.551   3.982 -0.0473  0.7181 -0.1936
 3023TIP3    H230561   5.217   6.465   4.081 -0.8278  1.0602  0.7141
 3024TIP3   OH230562   3.488   3.171  11.321  0.2847 -0.0084  0.2829
 3024TIP3    H130563   3.470   3.264  11.335  1.3007  0.3327 -0.5046
 3024TIP3    H230564   3.578   3.159  11.351 -0.2013 -1.0083  1.4308
 3025TIP3   OH230565   5.992   4.576   0.178 -0.5623  0.0374 -0.5873
 3025TIP3    H130566   5.954   4.515   0.115 -0.7618  0.5775 -1.0016
 3025TIP3    H230567   6.085   4.579   0.154 -0.7651  0.7820 -1.3275
 3026TIP3   OH230568   5.331   2.405  15.521 -0.5683 -0.2848  0.1266
 3026TIP3    H130569   5.260   2.348  15.550 -0.0083 -0.8215  0.4784
 3026TIP3    H230570   5.330   2.396  15.425 -1.4123  0.2611  0.0779
 3027TIP3   OH230571   6.020   0.113  16.220 -0.1838  0.0782  0.1975
 3027TIP3    H130572   5.934   0.135  16.256 -0.2388 -0.6571  0.5365
 3027TIP3    H230573   6.073   0.088  16.297  0.7104  1.6752  0.1430
 3028TIP3   OH230574   1.725   4.104   2.516  0.2437  0.1059 -0.0544
 3028TIP3    H130575   1.707   4.196   2.533  1.9510  0.5078 -0.2265
 3028TIP3    H230576   1.813   4.090   2.550  0.1293 -1.3954 -0.2939
 3029TIP3   OH230577   5.613   2.633   5.212  0.1313  0.2997 -0.2811
 3029TIP3    H130578   5.519   2.627   5.195  0.0008  1.8995 -0.3399
 3029TIP3    H230579   5.645   2.544   5.204 -1.6044 -0.5014  1.1301
 3030TIP3   OH230580   5.285   1.707   2.201  0.1345  0.0769  0.0728
 3030TIP3    H130581   5.270   1.725   2.108  1.0212  0.5305  0.0044
 3030TIP3    H230582   5.207   1.741   2.244 -0.5129 -0.5986 -0.5479
 3031TIP3   OH230583   0.879   2.847  14.836 -0.1343  0.1926 -0.3240
 3031TIP3    H130584   0.849   2.888  14.917 -1.7887 -0.9192 -0.3330
 3031TIP3    H230585   0.972   2.831  14.851 -0.4654 -0.2981  1.4987
 3032TIP3   OH230586   3.706   3.294   6.814 -0.5729  0.1201 -0.0921
 3032TIP3    H130587   3.752   3.366   6.858  1.1418  0.5941 -2.4713
 3032TIP3    H230588   3.613   3.317   6.824 -0.1870  1.2319  1.4732
 3033TIP3   OH230589   2.679   6.143  15.460  0.2086  0.2649  0.4334
 3033TIP3    H130590   2.600   6.115  15.413  1.7991 -1.7251 -1.2865
 3033TIP3    H230591   2.729   6.062  15.471  3.0005  1.7325 -0.5416
 3034TIP3   OH230592   0.352   5.367   5.873  0.4011 -0.3300  0.0001
 3034TIP3    H130593   0.421   5.308   5.842  1.8258  0.5052  1.4468
 3034TIP3    H230594   0.374   5.383   5.965 -0.9219  1.0917  0.0983
 3035TIP3   OH230595   3.018   0.793  14.538 -0.2686  0.1172 -0.3143
 3035TIP3    H130596   3.053   0.790  14.449  0.5242 -1.6316  0.0229
 3035TIP3    H230597   3.004   0.702  14.561 -1.2634  0.5893  1.0732
 3036TIP3   OH230598   3.735   3.669  15.772 -0.2850 -0.0484  0.1318
 3036TIP3    H130599   3.737   3.577  15.797  0.2570 -0.3830 -1.0780
 3036TIP3    H230600   3.691   3.670  15.687 -1.3164  0.9584  0.6394
 3037TIP3   OH230601   6.229   5.879  12.696 -0.2977 -0.4469 -0.2312
 3037TIP3    H130602   6.140   5.865  12.663 -0.6703  0.8028  0.1964
 3037TIP3    H230603   6.230   5.837  12.782 -0.7895  0.3835  0.1886
 3038TIP3   OH230604   3.861   4.205  14.789  0.1492 -0.5288  0.3749
 3038TIP3    H130605   3.922   4.258  14.737 -0.2945 -1.0190 -0.6676
 3038TIP3    H230606   3.903   4.119  14.796 -0.5578 -0.9698 -0.6334
 3039TIP3   OH230607   1.662   0.761   4.922  0.1184  0.1052 -0.0262
 3039TIP3    H130608   1.587   0.703   4.939  1.1207 -0.8973  1.1784
 3039TIP3    H230609   1.671   0.811   5.003  0.6338  0.3478 -0.2347
 3040TIP3   OH230610   2.470   2.333   4.046 -0.2020  0.2443  0.2605
 3040TIP3    H130611   2.430   2.249   4.022  0.8137 -0.4072  0.8054
 3040TIP3    H230612   2.398   2.381   4.087 -1.1533  0.1878 -1.2558
 3041TIP3   OH230613   6.706   6.529   0.435  0.6533  0.4762 -0.0718
 3041TIP3    H130614   6.622   6.499   0.470  1.7159 -1.9272  0.6857
 3041TIP3    H230615   6.704   6.503   0.343  1.3046 -1.5990  0.4266
 3042TIP3   OH230616   6.644   0.258  14.318 -0.0370 -0.1803 -0.3173
 3042TIP3    H130617   6.646   0.162  14.318  1.0891 -0.1949  1.2787
 3042TIP3    H230618   6.614   0.281  14.406  0.3586  0.9365 -0.4657
 3043TIP3   OH230619   5.226   5.929   5.750 -0.2305  0.3085  0.3135
 3043TIP3    H130620   5.216   5.876   5.671 -1.0348  0.4851  0.2905
 3043TIP3    H230621   5.203   5.871   5.822  0.0524  0.2828  0.3841
 3044TIP3   OH230622   2.668   2.926  16.272  0.0076  0.4686 -0.1156
 3044TIP3    H130623   2.578   2.933  16.238  0.4349  1.8431 -1.0555
 3044TIP3    H230624   2.723   2.937  16.194  0.9947  0.7415  0.6158
 3045TIP3   OH230625   3.291   3.456  12.961 -0.2263  0.3382 -0.2147
 3045TIP3    H130626   3.316   3.516  13.031  1.6852  1.1291 -1.4785
 3045TIP3    H230627   3.233   3.392  13.002 -0.9580  2.0616  1.5578
 3046TIP3   OH230628   0.766   0.845  16.376  0.0130 -0.6038  0.3542
 3046TIP3    H130629   0.701   0.806  16.435 -0.7787  0.2019  0.0336
 3046TIP3    H230630   0.737   0.820  16.289  0.4164 -0.6455  0.2296
 3047TIP3   OH230631   3.453   1.782  12.121  0.2584 -0.6272 -0.4176
 3047TIP3    H130632   3.448   1.808  12.213 -2.8037  1.2337 -0.9576
 3047TIP3    H230633   3.446   1.686  12.123 -1.0099 -0.5465  1.2739
 3048TIP3   OH230634   0.208   4.268  13.775  0.9046  0.4212  0.3859
 3048TIP3    H130635   0.173   4.344  13.821 -1.0222 -1.0581  1.4842
 3048TIP3    H230636   0.181   4.193  13.827  0.8542 -1.1832 -1.8059
 3049TIP3   OH230637   5.093   0.174  11.607 -0.1336  0.0171  0.1385
 3049TIP3    H130638   5.006   0.205  11.630  0.0273 -2.0435  4.5094
 3049TIP3    H230639   5.151   0.249  11.624 -0.8047  0.9638 -1.4813
 3050TIP3   OH230640   0.148   1.645   2.855  0.1177  0.4175  0.2245
 3050TIP3    H130641   0.053   1.650   2.866  0.0510 -0.4286  0.1277
 3050TIP3    H230642   0.162   1.574   2.792  0.7891  1.0164 -0.3259
 3051TIP3   OH230643   4.071   4.734  11.562  0.4129 -0.5480 -0.1451
 3051TIP3    H130644   4.044   4.648  11.595  0.9795 -0.7235 -0.1228
 3051TIP3    H230645   4.137   4.714  11.495  0.9292 -0.1174  0.2266
 3052TIP3   OH230646   2.575   4.537  15.164 -0.2723 -0.7234 -0.4043
 3052TIP3    H130647   2.603   4.606  15.224 -0.8314 -0.7603 -0.0925
 3052TIP3    H230648   2.655   4.487  15.145  0.2700  0.3934 -1.1562
 3053TIP3   OH230649   0.559   1.772  15.058 -0.0010 -0.1002 -0.4253
 3053TIP3    H130650   0.474   1.740  15.025  1.0949 -1.2451 -2.3466
 3053TIP3    H230651   0.566   1.861  15.024 -1.4743  0.9653  1.8633
 3054TIP3   OH230652   5.908   5.097  12.185 -0.1836  1.0566  0.1631
 3054TIP3    H130653   5.938   5.029  12.246  0.9586  1.4180  0.0211
 3054TIP3    H230654   5.871   5.048  12.111 -1.1663  0.6135  0.9285
 3055TIP3   OH230655   1.357   4.794   1.315 -0.4776 -0.3837 -0.3438
 3055TIP3    H130656   1.285   4.806   1.376  0.6518 -2.4023  1.5217
 3055TIP3    H230657   1.342   4.707   1.277  0.7889 -0.6912 -0.1717
 3056TIP3   OH230658   5.961   5.436  16.992 -0.1380 -0.5208  0.2966
 3056TIP3    H130659   5.991   5.362  16.939  0.7840 -1.4484  2.0402
 3056TIP3    H230660   5.996   5.419  17.079 -1.2231  1.1948  1.1154
 3057TIP3   OH230661   3.993   3.403   3.458  0.5355 -0.0395  0.4968
 3057TIP3    H130662   3.932   3.350   3.510 -0.5761 -0.5889 -1.2759
 3057TIP3    H230663   4.037   3.458   3.522  0.6753 -2.0653  2.2581
 3058TIP3   OH230664   0.797   5.529  11.912 -0.4513 -0.3106 -0.4800
 3058TIP3    H130665   0.701   5.525  11.910 -0.4113 -1.1626 -1.7663
 3058TIP3    H230666   0.818   5.525  12.005 -1.6389 -1.5600 -0.2223
 3059TIP3   OH230667   5.327   1.622  14.295 -0.3226  0.5585  0.2519
 3059TIP3    H130668   5.303   1.530  14.281  0.2689  0.3008  0.8871
 3059TIP3    H230669   5.402   1.635  14.237 -0.8169  0.8371 -0.3361
 3060TIP3   OH230670   1.805   0.729   0.782 -0.1868  0.1412  0.3155
 3060TIP3    H130671   1.868   0.751   0.712 -1.2522  3.5971  0.2749
 3060TIP3    H230672   1.860   0.707   0.857  0.9836 -1.3665 -0.9005
 3061TIP3   OH230673   5.097   4.518   2.347  0.2216 -0.6037 -0.0676
 3061TIP3    H130674   5.119   4.434   2.386  0.9057  0.0018  0.8918
 3061TIP3    H230675   5.180   4.566   2.346  0.1694 -0.4710 -1.9948
 3062TIP3   OH230676   4.788   5.856   0.913 -0.0784  0.0528  0.4865
 3062TIP3    H130677   4.861   5.813   0.958  0.9595  0.6985 -0.4940
 3062TIP3    H230678   4.714   5.797   0.924  0.6229 -0.6807  1.4249
 3063TIP3   OH230679   4.316   4.816  12.417  0.4749  0.6504 -0.4875
 3063TIP3    H130680   4.277   4.757  12.481  0.6832 -0.1560 -1.0910
 3063TIP3    H230681   4.397   4.846  12.458  2.8131 -3.0492 -1.8543
 3064TIP3   OH230682   6.123   0.412   5.495  0.4796 -0.1780 -0.3705
 3064TIP3    H130683   6.130   0.497   5.451  2.1044  0.6537  1.3342
 3064TIP3    H230684   6.048   0.421   5.554  1.5745  0.7240  0.9654
 3065TIP3   OH230685   4.171   0.853   0.940 -0.0419  0.0531  0.3549
 3065TIP3    H130686   4.255   0.810   0.920 -1.7729 -2.7919 -1.4439
 3065TIP3    H230687   4.185   0.892   1.026  3.1903 -0.1046  0.0316
 3066TIP3   OH230688   6.360   2.613   6.968  0.4292 -0.1043 -0.3723
 3066TIP3    H130689   6.388   2.531   6.929  2.2592 -1.4995  3.4311
 3066TIP3    H230690   6.287   2.589   7.025  0.3217  1.1008  0.0231
 3067TIP3   OH230691   3.088   6.623  14.000  0.3957 -0.3386 -0.2394
 3067TIP3    H130692   3.014   6.563  14.004  0.3236 -0.1874  1.7497
 3067TIP3    H230693   3.164   6.568  14.017  0.4199 -0.0286  0.6907
 3068TIP3   OH230694   4.779   6.011   1.541 -0.1107  0.2960  0.5875
 3068TIP3    H130695   4.836   6.074   1.585  0.1305  0.6875 -0.2527
 3068TIP3    H230696   4.716   6.066   1.494  0.5110 -0.0398 -0.7047
 3069TIP3   OH230697   2.591   4.858  11.724  0.2031 -0.0009 -0.0572
 3069TIP3    H130698   2.673   4.810  11.719  1.2690  1.8982 -1.6117
 3069TIP3    H230699   2.597   4.908  11.805 -0.4178 -1.4901  0.9618
 3070TIP3   OH230700   0.928   4.767   2.866 -0.3774  0.0432  0.3955
 3070TIP3    H130701   1.018   4.753   2.837  0.3260 -1.9798  3.1093
 3070TIP3    H230702   0.880   4.790   2.787  2.3614  0.4905 -1.2610
 3071TIP3   OH230703   1.259   4.334  15.554  0.0734  0.3926 -0.2777
 3071TIP3    H130704   1.284   4.426  15.546  0.9705  0.0223 -2.0165
 3071TIP3    H230705   1.247   4.321  15.649  2.7321  1.5664  0.3070
 3072TIP3   OH230706   3.474   1.179  14.562 -0.1571  0.0611 -0.1822
 3072TIP3    H130707   3.435   1.260  14.595 -1.6597 -0.3921 -0.7598
 3072TIP3    H230708   3.567   1.199  14.554 -0.5253  1.8088 -0.4968
 3073TIP3   OH230709   5.258   4.745   1.046 -0.3605 -0.0609 -0.6371
 3073TIP3    H130710   5.328   4.689   1.014 -2.1563 -1.2457 -2.7311
 3073TIP3    H230711   5.211   4.692   1.110  0.2555  0.5238  0.3302
 3074TIP3   OH230712   1.212   5.398  14.719  0.0927  0.1131  0.8250
 3074TIP3    H130713   1.243   5.384  14.808 -0.3332 -3.0470  0.5732
 3074TIP3    H230714   1.127   5.441  14.729  0.9739  1.7298  1.7877
 3075TIP3   OH230715   6.538   3.100  13.145  0.2256 -0.1814  0.3705
 3075TIP3    H130716   6.537   3.048  13.065  1.5741  0.0522  0.1707
 3075TIP3    H230717   6.448   3.095  13.178 -0.0104 -1.4577 -0.3812
 3076TIP3   OH230718   4.169   6.189  14.379  0.0927 -0.7920  0.2873
 3076TIP3    H130719   4.238   6.191  14.446  1.2991  0.5483 -0.9307
 3076TIP3    H230720   4.213   6.155  14.301 -0.7695 -0.3937 -0.3825
 3077TIP3   OH230721   0.533   1.754   4.854  0.1189 -0.1433 -0.5127
 3077TIP3    H130722   0.559   1.840   4.888 -0.3409 -0.2808  0.2028
 3077TIP3    H230723   0.586   1.692   4.905  0.9835 -0.2662 -1.5237
 3078TIP3   OH230724   0.443   1.409   4.116  0.4686  0.0306  0.1410
 3078TIP3    H130725   0.499   1.437   4.043  0.9771  0.6914  0.7631
 3078TIP3    H230726   0.475   1.460   4.190 -0.4582 -0.1690  0.6850
 3079TIP3   OH230727   4.900   5.112   1.198 -0.3367 -0.5217  0.3071
 3079TIP3    H130728   4.944   5.134   1.116 -0.7537  0.7645  0.4031
 3079TIP3    H230729   4.972   5.101   1.261 -0.0862  2.3046  0.6417
 3080TIP3   OH230730   0.611   6.564  11.928  0.1533 -0.2455 -0.3505
 3080TIP3    H130731   0.598   6.617  12.007 -0.0048 -1.1383  0.2339
 3080TIP3    H230732   0.566   6.613  11.859 -0.2053  0.2521  0.2264
 3081TIP3   OH230733   3.156   6.554  16.703  0.8563  0.1232 -0.3338
 3081TIP3    H130734   3.131   6.546  16.611  0.5228 -1.4370 -0.1282
 3081TIP3    H230735   3.078   6.589  16.746  0.6851 -0.0632 -0.4911
 3082TIP3   OH230736   2.449   0.123  17.036  0.3578  0.6662 -0.6845
 3082TIP3    H130737   2.500   0.190  17.081 -0.7123  1.0934 -0.0835
 3082TIP3    H230738   2.386   0.093  17.101 -0.6661  0.6918 -1.6378
 3083TIP3   OH230739   3.750   3.394  10.778  0.2313  0.6262 -0.3743
 3083TIP3    H130740   3.710   3.318  10.736 -0.6707  0.4947  0.6750
 3083TIP3    H230741   3.820   3.420  10.719 -0.5873  0.0676 -1.6288
 3084TIP3   OH230742   6.300   4.701  12.768  0.1081 -0.0263  0.2024
 3084TIP3    H130743   6.247   4.752  12.830  1.0218  0.3835  0.6516
 3084TIP3    H230744   6.247   4.700  12.688 -0.0101  1.4928  0.2305
 3085TIP3   OH230745   5.835   0.042  10.566  0.3027 -0.1869  0.3405
 3085TIP3    H130746   5.827   0.096  10.645  0.3169 -0.3085  0.4261
 3085TIP3    H230747   5.928   0.022  10.560  0.2718 -0.3507  0.4094
 3086TIP3   OH230748   4.531   1.472  12.296  0.1505  0.0221  0.1180
 3086TIP3    H130749   4.488   1.522  12.365  0.3913 -0.8196  0.9089
 3086TIP3    H230750   4.570   1.398  12.342  1.0616 -0.0922 -0.8098
 3087TIP3   OH230751   4.327   6.260   4.568 -0.3005  0.4582 -0.1071
 3087TIP3    H130752   4.254   6.199   4.561  2.3138 -2.9574 -0.5467
 3087TIP3    H230753   4.363   6.245   4.655  2.2273 -1.1324 -1.2984
 3088TIP3   OH230754   3.292   6.655   4.820  0.8911 -0.5137  0.6473
 3088TIP3    H130755   3.268   6.748   4.813  0.8463 -0.6083 -0.7557
 3088TIP3    H230756   3.377   6.649   4.776  0.1095 -1.4087 -0.7966
 3089TIP3   OH230757   5.407   4.203  14.339 -0.3313 -0.0180 -0.1231
 3089TIP3    H130758   5.469   4.258  14.290  0.9426 -0.3674  1.0411
 3089TIP3    H230759   5.400   4.245  14.424  0.1656 -1.2806  0.5649
 3090TIP3   OH230760   4.045   6.381   3.374  0.0219 -0.5698 -0.2593
 3090TIP3    H130761   4.067   6.461   3.422  0.9393 -0.5084 -0.7421
 3090TIP3    H230762   4.046   6.312   3.440 -2.2486 -0.0047  0.4412
 3091TIP3   OH230763   5.026   1.908   0.441 -0.0476 -0.8377 -0.4577
 3091TIP3    H130764   4.931   1.895   0.440 -0.1480 -0.2499  0.4251
 3091TIP3    H230765   5.038   2.002   0.424  0.3493 -0.8026 -0.0116
 3092TIP3   OH230766   1.102   4.948  14.502  0.6775  0.1168 -0.0412
 3092TIP3    H130767   1.034   4.966  14.567  0.7097  2.5824 -0.5830
 3092TIP3    H230768   1.075   4.867  14.460 -0.6049 -0.2441  1.4050
 3093TIP3   OH230769   0.645   4.147  17.154  0.2263 -0.1781  0.3364
 3093TIP3    H130770   0.702   4.187  17.220  1.2248 -0.0980 -0.5407
 3093TIP3    H230771   0.559   4.145  17.194  0.5204  1.1894  1.0871
 3094TIP3   OH230772   2.691   3.845   5.662 -0.4167 -0.3906  0.0058
 3094TIP3    H130773   2.741   3.866   5.741 -0.2280 -1.8658  0.2991
 3094TIP3    H230774   2.600   3.843   5.691 -0.3705 -0.6689  0.1359
 3095TIP3   OH230775   4.847   0.200   0.720  0.1413 -0.5118  0.1909
 3095TIP3    H130776   4.912   0.259   0.758 -0.2721 -0.9707  1.6994
 3095TIP3    H230777   4.840   0.128   0.784 -1.8684 -0.4290  0.1213
 3096TIP3   OH230778   0.424   4.030  12.430  0.0039 -0.1349 -0.3116
 3096TIP3    H130779   0.470   4.111  12.406  0.3639 -0.0620  0.5755
 3096TIP3    H230780   0.474   3.996  12.505 -0.7161 -0.6671 -0.0688
 3097TIP3   OH230781   6.508   1.678  13.618  0.5850  0.1534 -0.0514
 3097TIP3    H130782   6.540   1.633  13.696 -2.0632  1.1080  1.7708
 3097TIP3    H230783   6.474   1.761  13.651 -0.7756  0.5393 -2.1945
 3098TIP3   OH230784   3.272   2.269  16.395  0.2492 -0.2631 -0.0005
 3098TIP3    H130785   3.199   2.248  16.453  1.2138  0.8679  1.7315
 3098TIP3    H230786   3.232   2.315  16.321 -0.8218  0.1004  0.7831
 3099TIP3   OH230787   6.351   0.365  13.682  0.2825 -0.0796 -0.0801
 3099TIP3    H130788   6.339   0.441  13.624 -2.3060  0.7269  1.3508
 3099TIP3    H230789   6.430   0.386  13.732  0.3642  1.0380 -0.6463
 3100TIP3   OH230790   3.371   3.981  16.103 -0.0541 -0.2417  0.5699
 3100TIP3    H130791   3.375   3.886  16.115 -0.4478 -0.2488  0.6627
 3100TIP3    H230792   3.463   4.008  16.098  0.0613 -0.7677 -0.6478
 3101TIP3   OH230793   4.578   3.069   1.686  0.2116  0.2513  0.2491
 3101TIP3    H130794   4.666   3.065   1.724 -0.1305 -1.3085  0.9341
 3101TIP3    H230795   4.548   3.157   1.706  1.7766  0.9694 -0.3749
 3102TIP3   OH230796   0.600   5.128  16.090  0.3325 -0.3615  0.1758
 3102TIP3    H130797   0.684   5.165  16.120 -0.2166  1.2880 -0.2385
 3102TIP3    H230798   0.603   5.037  16.120  1.0771  0.3852  2.6707
 3103TIP3   OH230799   4.547   0.635  15.478 -0.4457 -0.0755 -0.0742
 3103TIP3    H130800   4.486   0.573  15.437  0.9113 -1.0206 -0.7517
 3103TIP3    H230801   4.513   0.647  15.567  1.0636 -4.6552  1.4123
 3104TIP3   OH230802   0.509   1.139  14.215  0.2651 -0.1064 -0.5130
 3104TIP3    H130803   0.588   1.136  14.162  0.3043 -2.3329 -0.4340
 3104TIP3    H230804   0.442   1.097  14.161 -0.5700  0.6908 -0.1258
 3105TIP3   OH230805   5.331   3.687  14.216  0.4288 -0.1345  0.1027
 3105TIP3    H130806   5.359   3.779  14.215  0.3353 -0.0659  1.2975
 3105TIP3    H230807   5.235   3.691  14.221  0.4539 -0.2592  0.9629
 3106TIP3   OH230808   5.750   0.683  14.170 -0.9723  0.1864  0.3046
 3106TIP3    H130809   5.680   0.703  14.108 -4.0689  0.2106  3.4309
 3106TIP3    H230810   5.718   0.605  14.217  0.9604  0.3928  2.1134
 3107TIP3   OH230811   2.663   5.436   5.139 -0.0587 -0.0234 -0.5242
 3107TIP3    H130812   2.637   5.399   5.224 -1.0528 -0.1967 -0.8961
 3107TIP3    H230813   2.697   5.523   5.160 -1.0724  0.2635 -0.0345
 3108TIP3   OH230814   2.301   6.456  14.729 -0.9067  0.6380  0.1987
 3108TIP3    H130815   2.222   6.408  14.702  0.1824 -1.9564  1.2821
 3108TIP3    H230816   2.363   6.443  14.657 -0.6412  0.5354  0.4455
 3109TIP3   OH230817   0.707   2.496   4.003 -0.1473  0.3158  0.2505
 3109TIP3    H130818   0.763   2.567   4.035 -1.5325  0.9854  1.3080
 3109TIP3    H230819   0.658   2.468   4.081  0.3341 -1.8066 -0.1351
 3110TIP3   OH230820   4.844   6.455   5.516  0.2586 -0.3025 -0.1470
 3110TIP3    H130821   4.891   6.522   5.565  0.7033 -0.3830 -0.4576
 3110TIP3    H230822   4.859   6.477   5.424 -1.7248  0.6624 -0.2972
 3111TIP3   OH230823   2.097   4.400  14.338  0.2070  0.0049 -0.0693
 3111TIP3    H130824   2.028   4.425  14.399  0.0110  0.6364 -0.5414
 3111TIP3    H230825   2.061   4.325  14.291  1.4643 -2.4710  2.5705
 3112TIP3   OH230826   1.096   5.000   3.891 -0.3675  0.2955  0.3467
 3112TIP3    H130827   1.130   5.013   3.802 -0.5670  0.5971  0.3097
 3112TIP3    H230828   1.002   4.988   3.878 -0.8482  2.9577  0.6895
 3113TIP3   OH230829   2.816   4.148   5.531  0.2696  0.6252 -0.2034
 3113TIP3    H130830   2.788   4.060   5.505  0.7251 -0.3617  2.2925
 3113TIP3    H230831   2.743   4.205   5.507 -0.9173 -0.7723 -0.0371
 3114TIP3   OH230832   5.912   6.317  15.914  0.7185 -0.3199  0.0616
 3114TIP3    H130833   5.952   6.405  15.919  0.3578 -0.0786 -1.0145
 3114TIP3    H230834   5.974   6.260  15.959  2.1364  0.1131 -1.2473
 3115TIP3   OH230835   5.042   0.992  13.957 -0.1314 -0.2402 -0.1307
 3115TIP3    H130836   5.051   1.061  14.023 -1.2998  0.6722 -0.8865
 3115TIP3    H230837   4.973   0.935  13.990 -0.5462  0.0785 -0.4396
 3116TIP3   OH230838   5.510   3.674   2.062  0.4913  0.0495 -0.0930
 3116TIP3    H130839   5.417   3.687   2.042  0.3454  0.2909  0.7248
 3116TIP3    H230840   5.529   3.737   2.131  1.5460  0.7778 -1.0153
 3117TIP3   OH230841   3.332   3.388   2.062  0.2706  0.1244 -0.0217
 3117TIP3    H130842   3.413   3.360   2.018 -0.3838 -1.1473 -0.4587
 3117TIP3    H230843   3.359   3.402   2.153  0.9231 -0.6361 -0.0815
 3118TIP3   OH230844   6.602   2.189  16.059  0.2498  0.4627  0.1832
 3118TIP3    H130845   6.521   2.230  16.028 -0.0604  0.6358  1.1903
 3118TIP3    H230846   6.574   2.106  16.098  0.5776  0.4401  0.3748
 3119TIP3   OH230847   4.147   2.657   5.564  0.1546  0.2585 -0.1550
 3119TIP3    H130848   4.240   2.678   5.564  0.2270  0.0428 -1.6723
 3119TIP3    H230849   4.140   2.577   5.511 -0.7622 -0.3745  0.8813
 3120TIP3   OH230850   3.379   2.059   3.268 -0.0573  0.5622  0.3473
 3120TIP3    H130851   3.299   2.016   3.299  0.1794  1.0221  1.6754
 3120TIP3    H230852   3.431   2.072   3.347  2.2998 -1.5867 -0.7266
 3121TIP3   OH230853   1.191   1.060   4.313  0.2391  0.1605 -0.1055
 3121TIP3    H130854   1.251   1.133   4.328  1.1302 -0.5120 -0.3031
 3121TIP3    H230855   1.165   1.069   4.221  1.8586 -0.8370 -0.6989
 3122TIP3   OH230856   1.163   3.650   5.252  0.8505  0.3145 -0.1929
 3122TIP3    H130857   1.254   3.620   5.257  0.8045 -0.1423 -1.6743
 3122TIP3    H230858   1.161   3.705   5.174  0.3725  2.2892  1.1186
 3123TIP3   OH230859   1.469   3.681  16.556  0.1024  0.3588  0.1213
 3123TIP3    H130860   1.557   3.643  16.559  0.2999  0.8394  0.9473
 3123TIP3    H230861   1.455   3.702  16.464  1.0682  0.7362  0.0447
 3124TIP3   OH230862   4.656   6.257   2.146  0.0860 -0.2043  0.0323
 3124TIP3    H130863   4.636   6.328   2.085  1.0490 -0.1303 -0.2018
 3124TIP3    H230864   4.747   6.270   2.170 -0.0066 -0.8060  0.7386
 3125TIP3   OH230865   5.326   4.619  14.902 -0.1689  0.2325  0.1350
 3125TIP3    H130866   5.366   4.593  14.985  0.0353  1.1514  0.3321
 3125TIP3    H230867   5.372   4.699  14.877  0.0923 -0.2732 -1.1014
 3126TIP3   OH230868   6.072   4.193   1.104  0.5925 -0.2453  0.0224
 3126TIP3    H130869   6.110   4.129   1.164  4.4751  1.6173 -0.1159
 3126TIP3    H230870   6.133   4.195   1.030 -0.5281  2.1147 -0.9332
 3127TIP3   OH230871   3.367   6.245   3.892 -0.1696 -0.3622  0.3766
 3127TIP3    H130872   3.455   6.209   3.906 -0.2965 -0.4986  0.8148
 3127TIP3    H230873   3.352   6.301   3.967  0.5533  1.6877 -0.9102
 3128TIP3   OH230874   1.268   6.422  12.123  0.7454 -0.5362 -0.2634
 3128TIP3    H130875   1.222   6.474  12.057  0.0771  0.7691  1.1686
 3128TIP3    H230876   1.211   6.346  12.137 -0.2534  0.3071  0.3920
 3129TIP3   OH230877   3.177   1.672  14.158  0.0151 -0.0294 -0.4883
 3129TIP3    H130878   3.104   1.615  14.185 -1.4872  1.5203 -1.0620
 3129TIP3    H230879   3.240   1.612  14.118 -1.8977 -1.2272 -1.9242
 3130TIP3   OH230880   5.135   2.755   1.892 -0.2559  0.3337  0.3397
 3130TIP3    H130881   5.208   2.811   1.918 -0.4441  0.3621  0.8104
 3130TIP3    H230882   5.176   2.683   1.844 -0.0610  1.2156 -0.8875
 3131TIP3   OH230883   5.874   0.153   4.101 -0.1943 -0.1025  0.8613
 3131TIP3    H130884   5.913   0.163   4.014 -1.8434 -0.0277  0.0728
 3131TIP3    H230885   5.788   0.114   4.083 -0.7133  0.2597  2.4398
 3132TIP3   OH230886   6.445   3.286   5.712  0.1859  0.1457  0.1130
 3132TIP3    H130887   6.456   3.202   5.667 -1.3620 -0.1194  0.1719
 3132TIP3    H230888   6.443   3.351   5.642 -0.4182 -0.0721 -0.0773
 3133TIP3   OH230889   5.128   2.728   2.963 -0.2695 -0.4434  0.5396
 3133TIP3    H130890   5.047   2.763   2.926 -0.2787  0.0667  1.0381
 3133TIP3    H230891   5.197   2.783   2.926 -0.3233  0.4254  1.6981
 3134TIP3   OH230892   6.148   5.575   6.167  0.7924 -0.7986 -0.2800
 3134TIP3    H130893   6.070   5.629   6.178  0.4625 -1.7423  3.0495
 3134TIP3    H230894   6.202   5.624   6.105 -1.6041  0.7987 -1.2521
 3135TIP3   OH230895   2.517   3.105   3.468 -0.3445 -0.3087 -0.5781
 3135TIP3    H130896   2.509   3.135   3.377 -1.5436  0.2685 -0.3078
 3135TIP3    H230897   2.470   3.022   3.470 -0.9231  0.0166 -0.3467
 3136TIP3   OH230898   4.715   0.565  10.347 -0.8891  0.0642 -0.1271
 3136TIP3    H130899   4.755   0.503  10.287 -1.7221 -0.3190 -0.3023
 3136TIP3    H230900   4.621   0.543  10.346 -1.0877  0.8335  0.3828
 3137TIP3   OH230901   5.600   0.647  12.818  0.1558  0.1253  0.0461
 3137TIP3    H130902   5.523   0.703  12.820  0.4752  0.6578 -1.4488
 3137TIP3    H230903   5.667   0.695  12.867  0.0912  0.5430 -0.2709
 3138TIP3   OH230904   1.181   5.643   5.705 -0.2577 -0.3714  0.1373
 3138TIP3    H130905   1.167   5.622   5.613  1.0761  0.8399 -0.3847
 3138TIP3    H230906   1.139   5.571   5.753 -1.8580 -0.4997 -1.3698
 3139TIP3   OH230907   0.740   2.839   2.788  0.3585  0.5666  0.2581
 3139TIP3    H130908   0.820   2.824   2.738  1.3185 -0.0540  1.8900
 3139TIP3    H230909   0.713   2.928   2.766  2.3083  1.3280  0.7324
 3140TIP3   OH230910   5.738   5.972   0.561 -0.4924 -0.3648  0.1789
 3140TIP3    H130911   5.650   5.933   0.564 -0.5750 -0.1036  1.5206
 3140TIP3    H230912   5.792   5.911   0.611  0.3829 -1.1466 -1.6031
 3141TIP3   OH230913   3.233   3.064  11.889  0.8931 -0.0356  0.1991
 3141TIP3    H130914   3.303   3.011  11.851 -1.9897 -2.6917 -1.8533
 3141TIP3    H230915   3.255   3.154  11.864  1.8981 -1.1220 -3.3810
 3142TIP3   OH230916   6.039   5.441   6.377 -0.3634  1.2865 -0.2643
 3142TIP3    H130917   6.077   5.471   6.294  0.3069  1.9059  0.2578
 3142TIP3    H230918   6.078   5.355   6.391 -1.0220  0.8611 -0.9327
 3143TIP3   OH230919   3.934   5.565  16.707  0.3901 -0.3253  0.4834
 3143TIP3    H130920   4.007   5.517  16.668  0.4926  0.4661 -0.3212
 3143TIP3    H230921   3.876   5.496  16.741  0.7431 -1.0061 -0.2629
 3144TIP3   OH230922   0.009   0.243   4.959  0.3094 -0.1897  0.5454
 3144TIP3    H130923  -0.029   0.316   4.911  0.7149 -1.3420 -1.6779
 3144TIP3    H230924  -0.065   0.202   5.003  0.2102  2.0671  2.7110
 3145TIP3   OH230925   3.288   1.693   2.948  0.1935 -0.1830 -0.4697
 3145TIP3    H130926   3.305   1.647   2.866  3.0835  1.3041 -0.8541
 3145TIP3    H230927   3.346   1.652   3.011  1.2345  1.4614 -0.3037
 3146TIP3   OH230928   0.351   6.078  16.985 -0.5929  0.1312 -0.1346
 3146TIP3    H130929   0.397   6.033  17.056 -0.5034  0.6598  0.1509
 3146TIP3    H230930   0.387   6.167  16.986 -1.2812  0.4174 -0.2084
 3147TIP3   OH230931   1.920   4.299  11.353  0.1726  0.0253  0.1907
 3147TIP3    H130932   1.878   4.352  11.285  1.6025  1.2878  0.2313
 3147TIP3    H230933   1.982   4.359  11.394  1.5790 -1.5783  0.5113
 3148TIP3   OH230934   0.456   3.504   3.385 -0.3460 -0.2073 -0.0690
 3148TIP3    H130935   0.544   3.536   3.406 -0.6617  2.3775 -2.1721
 3148TIP3    H230936   0.410   3.507   3.469  0.7147  1.5600  0.5203
 3149TIP3   OH230937   4.237   3.027  13.815  0.1484 -0.0649  0.4563
 3149TIP3    H130938   4.260   2.952  13.760 -0.6387 -1.1207  1.5100
 3149TIP3    H230939   4.308   3.090  13.801 -0.0632 -0.2522 -1.7833
 3150TIP3   OH230940   0.617   4.950   4.092  1.0990  0.2513 -0.1660
 3150TIP3    H130941   0.647   4.972   4.180  1.1572  0.5044 -0.2475
 3150TIP3    H230942   0.648   4.861   4.078 -0.7146 -0.5834  0.8751
 3151TIP3   OH230943   1.217   1.215   3.411 -0.0950  0.6010 -0.0413
 3151TIP3    H130944   1.287   1.225   3.475 -0.8597  1.6795  0.6734
 3151TIP3    H230945   1.137   1.213   3.464 -0.6116 -0.5526 -0.8416
 3152TIP3   OH230946   0.472   1.883   0.099  0.1562 -0.1464  0.2139
 3152TIP3    H130947   0.477   1.973   0.132  2.3412 -0.4183  0.8162
 3152TIP3    H230948   0.385   1.876   0.060 -0.2397  2.0779  0.5671
 3153TIP3   OH230949   5.697   3.241   2.868  0.5327 -0.0767  0.4430
 3153TIP3    H130950   5.623   3.292   2.899 -0.6265 -1.4480  0.0413
 3153TIP3    H230951   5.684   3.234   2.774  0.9049 -0.7129  0.4313
 3154TIP3   OH230952   0.195   6.283  12.177  0.0845 -0.0464  0.1092
 3154TIP3    H130953   0.211   6.373  12.150  0.9630 -0.0036  0.7186
 3154TIP3    H230954   0.117   6.256  12.129 -1.3463  1.6626  1.3849
 3155TIP3   OH230955   5.212   5.989  13.084  0.0489 -0.0242  0.0245
 3155TIP3    H130956   5.134   6.006  13.030 -1.4163 -0.2021  1.9614
 3155TIP3    H230957   5.221   6.067  13.137  1.6076  0.2432 -0.6025
 3156TIP3   OH230958   2.305   3.296   4.873 -0.5038 -0.3192 -0.2041
 3156TIP3    H130959   2.270   3.377   4.835 -3.1720 -0.5560  1.4878
 3156TIP3    H230960   2.396   3.292   4.842 -0.8706  2.2927 -1.9119
 3157TIP3   OH230961   6.812   4.171   2.969  0.4687  0.3534  0.1357
 3157TIP3    H130962   6.766   4.227   2.907 -1.3435 -1.9502 -0.7651
 3157TIP3    H230963   6.828   4.090   2.921  2.8548 -0.0376  1.4068
 3158TIP3   OH230964   4.440   6.708  13.550 -0.3458  0.1624  0.2618
 3158TIP3    H130965   4.502   6.646  13.588 -0.4776 -0.5282 -0.6242
 3158TIP3    H230966   4.354   6.673  13.573 -0.4395  1.1110  1.4780
 3159TIP3   OH230967   3.081   0.093   5.719 -0.5415  0.0334  0.3556
 3159TIP3    H130968   2.988   0.115   5.708 -0.2596  1.6807  0.9771
 3159TIP3    H230969   3.122   0.175   5.745  0.8242 -1.0148  1.6889
 3160TIP3   OH230970   2.730   2.018  14.916 -0.2901 -0.8051 -0.0191
 3160TIP3    H130971   2.687   2.099  14.888  0.1599 -0.3852  0.4707
 3160TIP3    H230972   2.748   2.032  15.009  2.2164 -0.3396 -0.4918
 3161TIP3   OH230973   0.997   1.607  16.426  0.1828 -0.4081  0.4458
 3161TIP3    H130974   0.988   1.654  16.509 -1.8350  0.5481 -0.2580
 3161TIP3    H230975   0.987   1.675  16.359  0.7556 -1.3195 -0.5903
 3162TIP3   OH230976   2.265   2.397   4.779  0.0588 -0.1223  0.1978
 3162TIP3    H130977   2.223   2.358   4.702  2.4740  1.8151 -2.3113
 3162TIP3    H230978   2.315   2.325   4.818 -0.3958 -0.9218 -0.6623
 3163TIP3   OH230979   6.208   0.052  12.321 -0.3312 -0.2775  0.2987
 3163TIP3    H130980   6.249  -0.034  12.313  2.0812  0.7919  0.4003
 3163TIP3    H230981   6.259   0.108  12.262 -1.7364  1.1244  0.3610
 3164TIP3   OH230982   5.938   0.749  14.963  0.4141  0.2416  0.4184
 3164TIP3    H130983   6.022   0.730  15.005  0.3338  0.6721  0.7841
 3164TIP3    H230984   5.959   0.818  14.900  0.1328  1.1964  1.3386
 3165TIP3   OH230985   6.724   0.384  15.943  0.5948  0.4671  0.1962
 3165TIP3    H130986   6.726   0.354  16.034 -2.1725  0.4027  0.3241
 3165TIP3    H230987   6.633   0.412  15.929 -0.2679 -3.1645 -3.6394
 3166TIP3   OH230988   0.765   4.272  14.684 -0.5838  0.4916  0.5220
 3166TIP3    H130989   0.720   4.290  14.602 -0.5752 -1.5992 -0.0128
 3166TIP3    H230990   0.704   4.301  14.752 -1.4277  0.4778 -0.2093
 3167TIP3   OH230991   6.108   0.895   1.639 -0.4069  0.1231  0.1252
 3167TIP3    H130992   6.057   0.889   1.558 -2.4078  1.0449  1.2616
 3167TIP3    H230993   6.101   0.986   1.665  0.8887  0.0159  0.9466
 3168TIP3   OH230994   6.056   2.090  16.945 -0.0558  0.7164 -0.2815
 3168TIP3    H130995   6.118   2.026  16.981 -2.0396 -1.0672  0.1439
 3168TIP3    H230996   6.099   2.123  16.867  1.7733  0.1485  0.4313
 3169TIP3   OH230997   6.530   0.195   3.011  0.3114 -0.0531  0.0726
 3169TIP3    H130998   6.581   0.116   2.992 -0.0406 -0.0485 -0.9639
 3169TIP3    H230999   6.469   0.202   2.937  2.0093  2.5975 -1.2564
 3170TIP3   OH231000   6.780   5.749   2.094  0.1853  0.1886 -0.7878
 3170TIP3    H131001   6.828   5.666   2.085  1.5796  0.9140 -0.4366
 3170TIP3    H231002   6.714   5.746   2.026  0.7923 -0.8365 -1.3690
 3171TIP3   OH231003   5.134   6.422  14.025  0.1633 -0.1636 -0.2199
 3171TIP3    H131004   5.068   6.368  13.982 -0.9996  0.1823  1.0693
 3171TIP3    H231005   5.138   6.388  14.114  1.7342 -0.1501 -0.2478
 3172TIP3   OH231006   0.778   6.783   0.312 -0.3921 -0.2349  0.0235
 3172TIP3    H131007   0.787   6.832   0.393 -0.3730 -3.2936  2.0345
 3172TIP3    H231008   0.865   6.746   0.296  0.0253  1.5372 -2.3352
 3173TIP3   OH231009   0.336   4.863   5.345  0.1810 -0.1374  0.5340
 3173TIP3    H131010   0.340   4.957   5.326 -4.0068  0.4352  1.4947
 3173TIP3    H231011   0.303   4.858   5.435  1.0259 -2.5756  0.7747
 3174TIP3   OH231012   3.927   1.926  16.385  0.3677 -0.1079  0.1536
 3174TIP3    H131013   4.012   1.937  16.342  0.2878 -1.3114 -0.3192
 3174TIP3    H231014   3.949   1.908  16.476  0.7049 -2.1187 -0.2920
 3175TIP3   OH231015   0.771   5.092  16.532  0.0897  0.4727 -0.2612
 3175TIP3    H131016   0.812   5.098  16.445  0.6074 -0.7124 -0.1102
 3175TIP3    H231017   0.820   5.154  16.585  0.3385  0.5756 -0.6028
 3176TIP3   OH231018   6.144   5.960   2.789  0.3935  0.2665  0.0924
 3176TIP3    H131019   6.160   6.052   2.812  1.1076 -0.3080  2.0565
 3176TIP3    H231020   6.150   5.913   2.872 -0.5381 -1.5025 -0.7893
 3177TIP3   OH231021   1.110   6.644  13.820 -0.5744  0.0119  0.0973
 3177TIP3    H131022   1.160   6.608  13.747 -0.7167 -0.5473  0.2695
 3177TIP3    H231023   1.093   6.734  13.796  1.0526  0.4063  0.3075
 3178TIP3   OH231024   2.071   5.725   1.932 -0.0463 -0.2696 -0.3114
 3178TIP3    H131025   2.037   5.647   1.888 -1.0567 -1.6623  2.6581
 3178TIP3    H231026   1.993   5.766   1.970  0.8051  0.6821  0.4331
 3179TIP3   OH231027   1.105   4.153  15.391 -0.0895  0.5031  0.4515
 3179TIP3    H131028   1.120   4.063  15.419  0.4742  0.0043 -1.3106
 3179TIP3    H231029   1.176   4.203  15.431 -0.3444  0.1597  1.3497
 3180TIP3   OH231030   5.169   3.769  14.623 -0.0899  0.6748 -0.2689
 3180TIP3    H131031   5.154   3.805  14.711 -0.5688  0.1145 -0.1115
 3180TIP3    H231032   5.262   3.751  14.620 -0.3617 -1.2049  0.8921
 3181TIP3   OH231033   4.821   2.406  12.108 -0.1568  0.4172 -0.6830
 3181TIP3    H131034   4.780   2.326  12.073 -0.4323 -1.2958  3.0797
 3181TIP3    H231035   4.748   2.453  12.149  0.5698  0.8399  0.1324
 3182TIP3   OH231036   3.194   1.150   3.166 -0.0295 -0.1470 -0.2598
 3182TIP3    H131037   3.104   1.182   3.161  0.0472 -0.0884 -2.1376
 3182TIP3    H231038   3.230   1.167   3.079  0.9488 -2.6459 -0.4299
 3183TIP3   OH231039   3.183   0.179  16.809 -0.5157  0.8851 -0.0414
 3183TIP3    H131040   3.130   0.131  16.746 -1.6051 -0.1210  1.5452
 3183TIP3    H231041   3.145   0.267  16.810 -0.3968  0.9476 -0.8840
 3184TIP3   OH231042   2.439   6.685   2.532 -0.0075  0.1283 -0.6831
 3184TIP3    H131043   2.442   6.667   2.626  0.3352  0.4082 -0.6362
 3184TIP3    H231044   2.477   6.608   2.491 -1.4674 -0.6145 -0.6870
 3185TIP3   OH231045   2.907   2.292   5.577  0.0027  0.1178 -0.6442
 3185TIP3    H131046   2.872   2.203   5.582 -0.8143  0.5176  2.2833
 3185TIP3    H231047   2.882   2.321   5.489 -1.1243 -1.9579 -1.1000
 3186TIP3   OH231048   0.615   2.634  17.152  0.0403 -0.2369  0.9530
 3186TIP3    H131049   0.548   2.667  17.213 -0.8275  0.8546 -0.5373
 3186TIP3    H231050   0.695   2.679  17.178 -0.9927  2.8256 -0.6716
 3187TIP3   OH231051   6.801   2.475   2.037 -0.0936 -0.7739  0.5385
 3187TIP3    H131052   6.732   2.488   2.102  0.8108  0.8554  1.2532
 3187TIP3    H231053   6.861   2.548   2.052  0.5626 -0.8088 -1.6354
 3188TIP3   OH231054   1.472   0.159   5.183 -0.1628 -0.1309  0.1186
 3188TIP3    H131055   1.388   0.198   5.160 -0.0832 -0.2114 -0.3254
 3188TIP3    H231056   1.492   0.194   5.269 -0.5785  0.0081  0.1620
 3189TIP3   OH231057   5.587   1.282  15.442 -0.1538  0.1851  0.7533
 3189TIP3    H131058   5.582   1.343  15.367  1.9331  1.4492  1.5586
 3189TIP3    H231059   5.512   1.224  15.430 -0.3233  0.7959 -1.9236
 3190TIP3   OH231060   4.643   5.692  14.020 -0.4471 -0.2963  0.1393
 3190TIP3    H131061   4.559   5.660  13.987  1.1509 -3.1289 -1.5805
 3190TIP3    H231062   4.702   5.618  14.011  2.4809  1.8153  0.5063
 3191TIP3   OH231063   1.973   3.188   2.814 -0.1373 -0.1232  0.6350
 3191TIP3    H131064   1.913   3.125   2.773  1.9554 -1.2678 -0.8755
 3191TIP3    H231065   1.917   3.243   2.868 -2.5685 -0.9260 -0.9231
 3192TIP3   OH231066   2.362   4.239   2.173 -0.2936 -0.1491 -0.1658
 3192TIP3    H131067   2.346   4.167   2.233  1.2965  1.0714  1.8692
 3192TIP3    H231068   2.404   4.199   2.097  0.9655 -1.3198  1.1099
 3193TIP3   OH231069   4.491   4.866  12.207  0.6985  0.6535  0.2464
 3193TIP3    H131070   4.418   4.860  12.269 -0.6758 -0.2163 -1.3748
 3193TIP3    H231071   4.552   4.799  12.235  0.7644  1.1926  1.4567
 3194TIP3   OH231072   1.899   5.779   0.340 -0.4215 -0.2212  0.2947
 3194TIP3    H131073   1.961   5.804   0.271  0.4686  0.6989  1.3774
 3194TIP3    H231074   1.827   5.737   0.294  1.9126 -3.2682 -0.8440
 3195TIP3   OH231075   0.854   2.360   5.170 -0.1656  0.3313 -0.6472
 3195TIP3    H131076   0.784   2.425   5.169  0.6764  1.2610 -0.6367
 3195TIP3    H231077   0.934   2.412   5.173  0.5076 -0.7225  0.0521
 3196TIP3   OH231078   3.100   0.075   3.191  0.2018 -0.0093 -0.1627
 3196TIP3    H131079   3.014   0.111   3.171  0.1730  2.3225  3.4196
 3196TIP3    H231080   3.083  -0.016   3.214 -1.1195  0.1272 -0.5016
 3197TIP3   OH231081   3.391   3.114   4.017  0.3326  0.6803 -0.1627
 3197TIP3    H131082   3.356   3.133   3.931 -0.4529  0.5178  0.1149
 3197TIP3    H231083   3.439   3.032   4.006 -2.6552 -1.2851  0.2476
 3198TIP3   OH231084   1.078   0.217   0.303 -0.2775  0.3127  0.1426
 3198TIP3    H131085   1.115   0.153   0.242  0.2706 -1.1593  1.9092
 3198TIP3    H231086   1.132   0.295   0.292  1.4689 -0.7803  0.5074
 3199TIP3   OH231087   0.264   1.494   1.546  0.0125 -0.2233 -0.5573
 3199TIP3    H131088   0.269   1.488   1.451  1.0659 -0.8409 -0.4742
 3199TIP3    H231089   0.297   1.582   1.567 -0.8578  0.1714 -0.7898
 3200TIP3   OH231090   0.493   3.952  15.084 -0.0862 -0.0035 -0.2280
 3200TIP3    H131091   0.493   3.933  14.990  0.6004 -2.4434  0.2071
 3200TIP3    H231092   0.401   3.949  15.110 -0.3825  1.6854 -0.9584
 3201TIP3   OH231093   6.796   3.431  16.548  0.3257 -0.3733  0.7996
 3201TIP3    H131094   6.886   3.449  16.522  0.3326  0.9888  1.6840
 3201TIP3    H231095   6.768   3.509  16.596 -0.9551 -1.2185  1.4995
 3202TIP3   OH231096   0.188   0.581  10.541 -0.2072  0.2142 -0.5077
 3202TIP3    H131097   0.129   0.521  10.495 -1.7509 -0.9747  2.7098
 3202TIP3    H231098   0.215   0.533  10.619  0.5674  2.7919  0.9366
 3203TIP3   OH231099   1.701   2.965  15.080  0.1881 -0.5855  0.1467
 3203TIP3    H131100   1.626   2.963  15.139 -0.4833  0.8448 -0.6077
 3203TIP3    H231101   1.664   2.948  14.994  0.7606 -0.1439 -0.1943
 3204TIP3   OH231102   4.343   3.657   3.835  0.7888  0.1113 -0.5865
 3204TIP3    H131103   4.273   3.622   3.781 -0.2523  1.7838 -0.4149
 3204TIP3    H231104   4.341   3.752   3.818  1.8894  0.4006  0.7026
 3205TIP3   OH231105   5.219   3.946   4.402 -0.2177  1.1260  0.0475
 3205TIP3    H131106   5.206   3.881   4.471  0.0676  0.5405 -0.4417
 3205TIP3    H231107   5.276   4.012   4.442 -0.5241  1.0865  0.5533
 3206TIP3   OH231108   0.936   6.660  11.374 -0.7120  0.0819 -0.2100
 3206TIP3    H131109   0.957   6.717  11.300  1.5613  0.4601  0.6337
 3206TIP3    H231110   0.882   6.714  11.431  0.6829  1.1648  0.1624
 3207TIP3   OH231111   2.767   5.193  12.045 -0.4172 -0.0902 -0.3007
 3207TIP3    H131112   2.735   5.216  12.132 -0.1212 -1.5283  0.2144
 3207TIP3    H231113   2.753   5.272  11.993 -1.6180  0.4364  0.7617
 3208TIP3   OH231114   0.478   0.386   5.334 -0.5481 -0.3297  0.6060
 3208TIP3    H131115   0.383   0.381   5.325 -0.3051 -1.2395 -2.3197
 3208TIP3    H231116   0.495   0.362   5.425 -3.2204  2.5715  2.0808
 3209TIP3   OH231117   3.297   4.343   3.601 -0.4161  0.5275 -0.2524
 3209TIP3    H131118   3.269   4.354   3.510  3.6923  0.9864 -1.6942
 3209TIP3    H231119   3.348   4.422   3.619 -2.2646  1.1349  3.0717
 3210TIP3   OH231120   0.268   6.312   1.559 -0.7786  1.2219  0.4350
 3210TIP3    H131121   0.191   6.280   1.606 -0.8641 -0.2339 -0.6324
 3210TIP3    H231122   0.331   6.332   1.628 -0.5145 -1.8518  1.2444
 3211TIP3   OH231123   2.097   3.160   4.232 -0.0901  0.2495  0.4308
 3211TIP3    H131124   2.030   3.204   4.180  0.3444 -0.2126 -0.5347
 3211TIP3    H231125   2.128   3.089   4.177 -0.0729 -0.6647  1.5881
 3212TIP3   OH231126   5.279   2.589   2.150  0.1425 -0.5741 -0.2991
 3212TIP3    H131127   5.257   2.674   2.187 -0.6364 -0.6118 -0.6649
 3212TIP3    H231128   5.263   2.527   2.221  1.4872 -0.3461  0.2307
 3213TIP3   OH231129   3.660   5.237   5.040  0.1918 -0.0730 -0.2236
 3213TIP3    H131130   3.685   5.304   5.103  1.6179 -1.0086  0.2732
 3213TIP3    H231131   3.670   5.278   4.955  1.1556  0.3197  0.0679
 3214TIP3   OH231132   5.620   2.602  12.137  0.3968  0.4886 -0.7502
 3214TIP3    H131133   5.608   2.666  12.207  1.0690  0.1837 -0.3504
 3214TIP3    H231134   5.710   2.615  12.107  0.4485 -0.0877 -0.8529
 3215TIP3   OH231135   6.193   6.186  11.522 -0.1342 -0.2670 -0.0547
 3215TIP3    H131136   6.201   6.091  11.514 -1.0221 -0.2709 -1.1397
 3215TIP3    H231137   6.155   6.200  11.609 -2.2554 -1.0857 -0.7917
 3216TIP3   OH231138   2.899   4.453   5.315 -0.6465 -0.0977  0.0274
 3216TIP3    H131139   2.950   4.388   5.267 -1.9169 -1.7997  0.9008
 3216TIP3    H231140   2.814   4.456   5.270 -0.0144  2.4932 -1.2325
 3217TIP3   OH231141   2.732   1.915   1.048  0.2112  0.7899 -0.4956
 3217TIP3    H131142   2.704   1.851   1.114  0.3897  1.7834  0.5712
 3217TIP3    H231143   2.767   1.988   1.099 -0.3632  1.9184 -1.6607
 3218TIP3   OH231144   2.846   4.753   2.348 -0.3712  0.1755 -0.6655
 3218TIP3    H131145   2.799   4.671   2.366  1.4772 -0.8630 -0.3293
 3218TIP3    H231146   2.870   4.786   2.434 -0.8074  0.9101 -0.8196
 3219TIP3   OH231147   3.117   5.789   5.370  0.2784 -0.0046  0.2847
 3219TIP3    H131148   3.026   5.779   5.343  0.6490 -0.7309 -0.8090
 3219TIP3    H231149   3.148   5.866   5.322 -0.1972  1.2639  1.9550
 3220TIP3   OH231150   3.392   6.083  10.823 -0.4010  0.9704 -0.0714
 3220TIP3    H131151   3.315   6.064  10.876 -1.0532 -1.4969 -1.7322
 3220TIP3    H231152   3.466   6.059  10.879 -0.9494  0.6778  0.5466
 3221TIP3   OH231153   0.227   3.932  12.857 -0.6460 -0.2759  0.2443
 3221TIP3    H131154   0.206   3.906  12.768 -0.4042 -1.2438  0.4662
 3221TIP3    H231155   0.162   4.000  12.878 -0.4832  0.2054 -0.7766
 3222TIP3   OH231156   2.743   1.106  16.117  0.0045 -0.0320  0.0433
 3222TIP3    H131157   2.675   1.140  16.174 -1.1618 -0.4010 -1.0799
 3222TIP3    H231158   2.710   1.122  16.028  2.8159  2.7738 -0.6974
 3223TIP3   OH231159   0.059   3.614  14.517 -0.1717 -0.4675 -0.1048
 3223TIP3    H131160   0.123   3.617  14.446  0.0360  1.1556  0.1280
 3223TIP3    H231161   0.105   3.647  14.593 -0.8983 -0.5605  0.3870
 3224TIP3   OH231162   5.825   4.735  14.509 -0.3906  0.7263  0.6238
 3224TIP3    H131163   5.748   4.680  14.493 -0.2319  0.6089  0.2721
 3224TIP3    H231164   5.859   4.755  14.422 -0.3520  1.2482  0.7609
 3225TIP3   OH231165   1.973   1.931  13.017  0.3034  0.4675  0.0618
 3225TIP3    H131166   1.883   1.900  13.004  0.3663  0.7801 -1.3147
 3225TIP3    H231167   1.963   2.024  13.036  0.3227  0.4608  0.1034
 3226TIP3   OH231168   3.370   5.037  11.448  0.4896  0.4702  0.6303
 3226TIP3    H131169   3.311   5.098  11.404  2.6194  1.3959 -1.1242
 3226TIP3    H231170   3.359   5.056  11.541 -1.9158  0.5788  0.3943
 3227TIP3   OH231171   1.072   5.242  14.033  0.2653 -0.0367  0.2840
 3227TIP3    H131172   1.082   5.217  14.125 -0.8136  0.7574  0.6453
 3227TIP3    H231173   1.102   5.333  14.029  1.9859 -0.5934 -0.5424
 3228TIP3   OH231174   4.252   5.302   2.567  0.5608  0.4398 -0.1905
 3228TIP3    H131175   4.212   5.324   2.651 -0.2822  0.9495 -0.7038
 3228TIP3    H231176   4.334   5.351   2.565 -0.2108  1.7645 -0.3524
 3229TIP3   OH231177   2.855   1.967   2.742  0.2535  0.5658 -0.2863
 3229TIP3    H131178   2.762   1.982   2.727  0.4268  1.6193 -0.3401
 3229TIP3    H231179   2.876   1.893   2.684 -0.4324  0.6291 -0.6298
 3230TIP3   OH231180   0.643   6.754  16.015  0.5976 -0.3555 -0.0470
 3230TIP3    H131181   0.612   6.809  16.088  0.6282 -0.1980 -0.1511
 3230TIP3    H231182   0.638   6.665  16.048  1.3006 -0.2332  0.4001
 3231TIP3   OH231183   4.109   6.670  12.185  0.5062  0.2456  0.1472
 3231TIP3    H131184   4.154   6.733  12.241 -0.9148  1.5703 -0.1308
 3231TIP3    H231185   4.077   6.603  12.245  0.4184  0.7803  0.7104
 3232TIP3   OH231186   0.752   5.296  13.351 -0.0407  0.3140  0.2734
 3232TIP3    H131187   0.798   5.299  13.434 -0.5642 -0.8848  0.6266
 3232TIP3    H231188   0.806   5.240  13.295  0.1111  0.8002 -0.0722
 3233TIP3   OH231189   0.337   3.775   0.800 -0.5254  0.1650  0.3754
 3233TIP3    H131190   0.429   3.759   0.816 -0.0607  2.4830  0.3822
 3233TIP3    H231191   0.305   3.817   0.880 -0.6846  2.5147 -0.8352
 3234TIP3   OH231192   0.220   1.768  15.902  0.2836  0.6507 -0.5006
 3234TIP3    H131193   0.213   1.672  15.909  1.7256  0.6610  2.7714
 3234TIP3    H231194   0.131   1.800  15.916 -0.2104 -0.1549 -1.6135
 3235TIP3   OH231195   5.332   3.976   0.683 -0.0736 -0.1378  0.1907
 3235TIP3    H131196   5.413   4.010   0.722  0.1454 -0.6750  0.2135
 3235TIP3    H231197   5.338   3.881   0.694 -1.3902 -0.1042  1.5369
 3236TIP3   OH231198   4.987   4.166   4.901 -0.1442  0.4287 -0.3890
 3236TIP3    H131199   4.995   4.238   4.838 -0.1638  1.1071  0.3718
 3236TIP3    H231200   4.893   4.148   4.904 -0.1728  0.5757 -0.3619
 3237TIP3   OH231201   0.961   3.771   6.505 -0.1557 -0.0863 -0.6640
 3237TIP3    H131202   0.969   3.813   6.419 -0.0563  0.8515 -0.2111
 3237TIP3    H231203   0.922   3.686   6.487  0.1503 -0.0267 -1.6720
 3238TIP3   OH231204   1.919   3.431   1.417 -0.0490  1.0059  0.0002
 3238TIP3    H131205   1.908   3.369   1.490  1.4010 -0.5280 -1.0092
 3238TIP3    H231206   1.840   3.485   1.419 -0.3669  0.5464  2.2641
 3239TIP3   OH231207   6.456   3.851  13.681  0.1335  0.9538  0.5984
 3239TIP3    H131208   6.408   3.916  13.630  0.0805  1.4543  1.2762
 3239TIP3    H231209   6.537   3.838  13.633 -0.4425  0.4824 -0.2820
 3240TIP3   OH231210   2.157   2.431   5.063  0.6378  1.0144  0.5615
 3240TIP3    H131211   2.066   2.403   5.050  0.5752  0.1655  2.4195
 3240TIP3    H231212   2.172   2.496   4.995 -0.7878 -0.1133 -0.9194
 3241TIP3   OH231213   2.750   0.476   5.822  1.1638 -0.0263 -0.5222
 3241TIP3    H131214   2.760   0.559   5.775  0.9956  0.2288 -0.1097
 3241TIP3    H231215   2.831   0.467   5.873  0.8730  0.2409 -0.0084
 3242TIP3   OH231216   2.553   2.003  14.141  0.5966 -0.3595 -0.5121
 3242TIP3    H131217   2.470   2.050  14.143  0.9650  0.3817  2.4566
 3242TIP3    H231218   2.619   2.069  14.164  1.9597 -1.0508 -2.2359
 3243TIP3   OH231219   5.630   0.256  12.954 -0.2458 -0.5662 -0.5508
 3243TIP3    H131220   5.544   0.269  12.912 -0.7608  0.4763  0.7525
 3243TIP3    H231221   5.633   0.162  12.973 -1.2565 -0.5658 -0.3105
 3244TIP3   OH231222   5.942   1.618   3.634  0.0852  0.3289 -0.2941
 3244TIP3    H131223   5.847   1.620   3.649  0.3058 -0.4513  1.3414
 3244TIP3    H231224   5.958   1.694   3.578 -1.6388 -0.1440 -1.5644
 3245TIP3   OH231225   1.058   3.654   3.598  0.3292  0.1706 -0.4838
 3245TIP3    H131226   1.098   3.729   3.641  0.2474 -0.1060  0.0796
 3245TIP3    H231227   1.059   3.677   3.505 -1.9055  1.9188 -0.1521
 3246TIP3   OH231228   0.652   4.060   6.278  0.3772  0.4416  0.1504
 3246TIP3    H131229   0.564   4.030   6.254  0.0506 -0.2276  2.0287
 3246TIP3    H231230   0.705   3.980   6.276  1.2439  1.0036 -2.0236
 3247TIP3   OH231231   4.308   0.759  14.374  0.2213  0.0579 -0.6654
 3247TIP3    H131232   4.274   0.837  14.418  1.6180  0.1057  0.4057
 3247TIP3    H231233   4.314   0.783  14.282  0.0611  1.0127 -0.4302
 3248TIP3   OH231234   6.223   6.034   5.831  0.4543 -0.4878 -0.2771
 3248TIP3    H131235   6.311   6.068   5.849  0.7104 -0.3314 -1.6706
 3248TIP3    H231236   6.170   6.112   5.816  0.0343 -0.5777  0.6866
 3249TIP3   OH231237   0.498   4.469  12.279  0.4814 -0.6626  0.5075
 3249TIP3    H131238   0.512   4.548  12.332 -0.0644  0.9250 -1.5408
 3249TIP3    H231239   0.410   4.481  12.242  1.5478 -0.6158 -2.2896
 3250TIP3   OH231240   4.772   6.128  13.297  0.1785 -0.1412  0.0743
 3250TIP3    H131241   4.827   6.059  13.334 -0.7954 -0.1256  1.6516
 3250TIP3    H231242   4.683   6.091  13.297 -0.0930  0.4767 -0.7234
 3251TIP3   OH231243   3.648   1.098   3.306  0.2002  0.2926 -0.2248
 3251TIP3    H131244   3.570   1.043   3.304  0.3000  0.1494 -0.1464
 3251TIP3    H231245   3.674   1.106   3.214  0.4194 -0.1219 -0.2019
 3252TIP3   OH231246   4.280   1.417  16.113  0.1359  0.3722 -0.1037
 3252TIP3    H131247   4.291   1.379  16.026 -0.3772  1.5461 -0.7122
 3252TIP3    H231248   4.186   1.410  16.131  0.3650 -0.6758  0.7584
 3253TIP3   OH231249   6.374   0.238  12.167 -0.4895 -0.2865  0.5306
 3253TIP3    H131250   6.454   0.200  12.130 -1.0839 -1.4056  0.3388
 3253TIP3    H231251   6.358   0.317  12.115  0.4611 -0.0735  0.5465
 3254TIP3   OH231252   0.380   5.797   3.767 -0.3589  0.7154 -0.3350
 3254TIP3    H131253   0.401   5.827   3.678 -0.6296 -1.8135 -1.3092
 3254TIP3    H231254   0.465   5.798   3.812 -0.1333  1.5242 -0.7392
 3255TIP3   OH231255   0.858   3.950  14.682  0.2434  0.0570 -0.0050
 3255TIP3    H131256   0.866   3.860  14.650 -0.4347  0.1224 -0.3799
 3255TIP3    H231257   0.885   4.004  14.608  0.2562  0.1669  0.0802
 3256TIP3   OH231258   6.753   3.553  15.761  0.7959  0.0833 -0.2080
 3256TIP3    H131259   6.841   3.518  15.776  1.1140  1.5437  1.6088
 3256TIP3    H231260   6.724   3.584  15.846 -2.5072 -2.4581 -0.1754
 3257TIP3   OH231261   4.390   2.437   4.321 -0.1095 -0.3844  0.8763
 3257TIP3    H131262   4.463   2.410   4.265 -0.0452  1.2763  0.0790
 3257TIP3    H231263   4.418   2.417   4.410  0.9754 -0.4966  0.5174
 3258TIP3   OH231264   0.705   3.402  16.276 -0.4703 -0.0580 -0.9610
 3258TIP3    H131265   0.727   3.312  16.252 -1.7893 -1.1235  1.4355
 3258TIP3    H231266   0.786   3.451  16.261  0.5266 -1.8000 -1.5910
 3259TIP3   OH231267   3.339   2.097  14.024  0.4094  0.0363  0.0810
 3259TIP3    H131268   3.267   2.042  14.053  0.0485 -0.3940 -1.5033
 3259TIP3    H231269   3.405   2.035  13.992  1.4645  0.4266  1.4288
 3260TIP3   OH231270   0.969   1.427   5.721  0.0177 -0.2467  0.1536
 3260TIP3    H131271   0.893   1.457   5.771 -0.6009  0.3097 -1.0918
 3260TIP3    H231272   0.981   1.336   5.749  0.2923  0.3062  2.0130
 3261TIP3   OH231273   2.369   2.649  16.050  0.7033 -0.2752 -0.0340
 3261TIP3    H131274   2.390   2.720  16.111  1.4479 -0.6904  0.1990
 3261TIP3    H231275   2.441   2.649  15.987  0.4477 -0.4979 -0.3304
 3262TIP3   OH231276   4.639   3.686  16.366 -0.2934 -0.2024  0.5936
 3262TIP3    H131277   4.654   3.661  16.457 -1.1879  2.2537  1.4879
 3262TIP3    H231278   4.564   3.632  16.338  0.6113 -1.6953  0.9286
 3263TIP3   OH231279   3.495   0.117  12.989  0.0265  0.3630 -0.5172
 3263TIP3    H131280   3.537   0.155  12.911  1.4872  1.5324  0.7757
 3263TIP3    H231281   3.564   0.065  13.030 -0.3834  0.6672  0.5911
 3264TIP3   OH231282   2.718   0.501   3.784 -0.2946 -0.6849  0.3296
 3264TIP3    H131283   2.675   0.542   3.859 -0.3436  1.2997 -0.6874
 3264TIP3    H231284   2.810   0.524   3.794 -0.6526  2.0959 -1.5587
 3265TIP3   OH231285   5.719   0.792  13.256  0.3620 -0.2930  0.2427
 3265TIP3    H131286   5.627   0.807  13.238 -0.1412 -0.2547  2.5046
 3265TIP3    H231287   5.766   0.855  13.201 -0.7864 -1.4911 -2.2646
 3266TIP3   OH231288   3.430   2.895   0.092 -0.8532  0.1842  0.5322
 3266TIP3    H131289   3.364   2.884   0.024 -0.4514  0.0986  0.1528
 3266TIP3    H231290   3.385   2.943   0.162 -1.9104 -1.5990  1.1383
 3267TIP3   OH231291   3.808   4.505   1.411 -0.1101  0.4439 -0.1121
 3267TIP3    H131292   3.790   4.536   1.323 -0.9318 -1.1897 -0.5492
 3267TIP3    H231293   3.897   4.469   1.406 -0.8658 -1.4104 -0.8098
 3268TIP3   OH231294   3.220   1.702  11.465  0.2563  0.0636 -0.2820
 3268TIP3    H131295   3.180   1.764  11.404  0.8278 -0.2406 -0.9843
 3268TIP3    H231296   3.292   1.663  11.415 -1.2469 -2.6081 -0.5462
 3269TIP3   OH231297   4.794   3.359  17.151  0.3267 -0.8182  0.2117
 3269TIP3    H131298   4.882   3.348  17.116  0.4838 -0.0123  0.3175
 3269TIP3    H231299   4.786   3.454  17.165 -1.1967 -0.6406 -1.5024
 3270TIP3   OH231300   2.532   2.911  16.756 -0.2556 -0.0780  0.5027
 3270TIP3    H131301   2.477   2.905  16.678 -0.1745 -0.3669  0.4660
 3270TIP3    H231302   2.616   2.874  16.729 -0.5353 -1.1183  1.0193
 3271TIP3   OH231303   3.886   0.588  13.004 -0.2985 -0.4434  0.3667
 3271TIP3    H131304   3.975   0.579  12.971  0.2768  1.3458  1.2817
 3271TIP3    H231305   3.897   0.624  13.092 -1.9192  2.5251 -0.4988
 3272TIP3   OH231306   5.940   4.341   1.582 -0.7175  0.1144 -0.1652
 3272TIP3    H131307   5.951   4.348   1.487 -0.9888  0.8063 -0.1474
 3272TIP3    H231308   6.028   4.325   1.615 -0.2962  1.8310 -0.3667
 3273TIP3   OH231309   3.212   2.774  13.124 -0.4206  0.2917  0.3999
 3273TIP3    H131310   3.127   2.819  13.129 -0.5576 -0.0932  1.9442
 3273TIP3    H231311   3.260   2.822  13.057 -1.6926  0.7987 -0.1947
 3274TIP3   OH231312   1.559   3.437  16.844 -0.5610  0.3716 -0.4080
 3274TIP3    H131313   1.469   3.426  16.876  0.0415  0.6338  1.4443
 3274TIP3    H231314   1.612   3.381  16.900  0.3921 -0.3243 -1.9204
 3275TIP3   OH231315   2.937   0.053   0.484 -1.2452  0.2812  0.4221
 3275TIP3    H131316   3.016   0.023   0.528 -0.9565 -0.7054 -0.7491
 3275TIP3    H231317   2.865   0.015   0.535 -0.9115 -0.8493  0.0678
 3276TIP3   OH231318   6.511   1.311  14.133  0.3434 -0.3720  0.3202
 3276TIP3    H131319   6.600   1.331  14.105  0.4595  0.0934  1.0241
 3276TIP3    H231320   6.486   1.384  14.189 -1.3755  0.7619 -1.7648
 3277TIP3   OH231321   2.762   5.024  14.349  1.0030  0.6494 -0.1616
 3277TIP3    H131322   2.770   4.995  14.259  0.9917 -0.0046  0.0407
 3277TIP3    H231323   2.758   5.119  14.344 -0.6105  0.5788 -0.9768
 3278TIP3   OH231324   6.670   3.787  11.924 -0.1941 -0.2824  0.1252
 3278TIP3    H131325   6.575   3.788  11.914 -0.0919  0.7766 -1.0279
 3278TIP3    H231326   6.688   3.851  11.993 -0.3036 -0.3800  0.2444
 3279TIP3   OH231327   2.290   0.117   5.828  0.0312  0.2170 -0.3547
 3279TIP3    H131328   2.202   0.127   5.865 -0.4841 -0.6020 -1.2960
 3279TIP3    H231329   2.348   0.149   5.896 -0.9498 -0.0790  0.6665
 3280TIP3   OH231330   3.848   1.360   3.162 -0.4371  0.0459 -0.2018
 3280TIP3    H131331   3.910   1.317   3.103  1.0231  2.2271 -0.3774
 3280TIP3    H231332   3.899   1.378   3.241 -0.3581  2.9584 -0.7913
 3281TIP3   OH231333   0.690   2.532  15.725 -0.4109  0.3934 -0.5918
 3281TIP3    H131334   0.769   2.587  15.728 -0.2226  0.2165 -1.8182
 3281TIP3    H231335   0.722   2.446  15.698 -0.9563  0.1980 -0.6195
 3282TIP3   OH231336   5.507   5.572  10.748 -0.5293 -0.3614 -0.1295
 3282TIP3    H131337   5.581   5.564  10.808 -0.8513 -0.4024  0.2648
 3282TIP3    H231338   5.528   5.649  10.695 -0.9470  0.5939  1.0454
 3283TIP3   OH231339   6.805   4.025   1.020  0.8693 -0.0793  0.4674
 3283TIP3    H131340   6.747   3.992   0.952 -0.9729  1.1296  1.3654
 3283TIP3    H231341   6.757   4.010   1.101  3.0579 -1.6040  1.6010
 3284TIP3   OH231342   3.699   2.653  15.326  0.3083 -0.1774  0.3571
 3284TIP3    H131343   3.665   2.608  15.249  1.5043 -0.2096 -0.1694
 3284TIP3    H231344   3.639   2.628  15.397 -0.9461  0.0348 -0.5878
 3285TIP3   OH231345   2.712   1.964  12.782 -0.0222 -0.5763 -0.3058
 3285TIP3    H131346   2.746   1.908  12.713 -0.9372 -1.6104  0.0501
 3285TIP3    H231347   2.627   1.926  12.805  0.2232 -0.2254  1.3332
 3286TIP3   OH231348   2.656   4.012  16.880  0.3947 -0.0356  0.2972
 3286TIP3    H131349   2.666   3.925  16.920  0.7472  0.1646  0.6446
 3286TIP3    H231350   2.575   4.005  16.830 -0.1152 -0.2551  1.1358
 3287TIP3   OH231351   4.668   2.920  12.257  0.5030  0.3056 -0.5536
 3287TIP3    H131352   4.579   2.914  12.291  0.6075 -0.7868 -0.4318
 3287TIP3    H231353   4.656   2.937  12.163  0.2067  2.1693 -0.2158
 3288TIP3   OH231354   4.171   1.608  11.466  0.5246 -0.1304  0.2892
 3288TIP3    H131355   4.183   1.535  11.406 -0.4619  1.0791 -1.4702
 3288TIP3    H231356   4.125   1.570  11.542 -0.6733 -1.2034 -0.9258
 3289TIP3   OH231357   5.927   6.135   3.967  0.7935  0.0524  0.4788
 3289TIP3    H131358   5.996   6.117   3.904  1.3806 -0.4158  1.2394
 3289TIP3    H231359   5.888   6.050   3.986  2.5444 -0.3389  2.8931
 3290TIP3   OH231360   3.980   4.162  14.347 -0.0402 -0.2536 -0.2749
 3290TIP3    H131361   3.914   4.232  14.346 -0.8453 -0.9965  0.0257
 3290TIP3    H231362   3.967   4.119  14.431  1.1359 -0.1345 -0.0171
 3291TIP3   OH231363   0.320   1.591  14.667  0.4100 -0.4572 -0.0837
 3291TIP3    H131364   0.330   1.503  14.703  0.2436 -0.7861 -0.8101
 3291TIP3    H231365   0.274   1.577  14.584 -2.8035  0.5907  1.3423
 3292TIP3   OH231366   5.127   4.791   0.076  0.3476  0.4941  0.0768
 3292TIP3    H131367   5.046   4.740   0.069  1.9719 -2.1925 -0.8160
 3292TIP3    H231368   5.098   4.882   0.074 -2.6578 -0.3340  0.2151
 3293TIP3   OH231369   4.071   4.284   2.032  0.4745  0.3034 -0.0001
 3293TIP3    H131370   4.059   4.375   2.060 -0.2573 -0.0487  0.8560
 3293TIP3    H231371   4.102   4.238   2.110 -1.6245 -0.6943  0.3225
 3294TIP3   OH231372   6.071   4.642   0.475 -0.4804  0.4530  0.2942
 3294TIP3    H131373   6.012   4.715   0.455  0.8948  1.6071  0.2617
 3294TIP3    H231374   6.159   4.677   0.458  0.5182 -0.0175  3.7009
 3295TIP3   OH231375   6.094   6.007  16.241 -0.0768  0.5132 -0.4110
 3295TIP3    H131376   6.116   6.023  16.149  0.6097 -0.5240 -0.4309
 3295TIP3    H231377   6.173   6.029  16.289 -0.4919  1.2335 -0.0295
 3296TIP3   OH231378   4.167   1.826   0.792 -0.1031 -0.3294 -0.0931
 3296TIP3    H131379   4.164   1.750   0.734 -1.3767  0.2054 -0.7680
 3296TIP3    H231380   4.261   1.842   0.804  0.1895 -1.6702 -0.3655
 3297TIP3   OH231381   2.113   2.558  12.353 -0.1196 -0.3408  0.0506
 3297TIP3    H131382   2.063   2.590  12.278  0.2134  0.5581  0.2042
 3297TIP3    H231383   2.088   2.466  12.360 -0.9271 -0.1820 -0.5367
 3298TIP3   OH231384   6.568   5.116   4.225  0.3969 -0.8394 -0.2876
 3298TIP3    H131385   6.505   5.052   4.192  1.7351 -0.7978 -3.2580
 3298TIP3    H231386   6.608   5.154   4.146  1.7789  1.5291  1.4007
 3299TIP3   OH231387   0.652   4.532   3.501  0.7718 -0.3186 -0.0654
 3299TIP3    H131388   0.686   4.471   3.566  2.4952 -0.3371 -0.9256
 3299TIP3    H231389   0.687   4.617   3.528  0.2666 -0.0745 -0.1580
 3300TIP3   OH231390   1.822   4.451  12.831  0.3785 -0.1154 -0.1199
 3300TIP3    H131391   1.782   4.413  12.753  1.1522 -0.2670 -0.4561
 3300TIP3    H231392   1.750   4.463  12.893  0.1565 -2.5866  0.1891
 3301TIP3   OH231393   2.373   6.191  13.211  0.7557 -0.2289  0.3188
 3301TIP3    H131394   2.378   6.239  13.128  1.6254 -1.4139 -0.3553
 3301TIP3    H231395   2.424   6.244  13.272  0.2051  0.6012  0.0846
 3302TIP3   OH231396   5.275   2.556  16.606  0.2946 -0.0087 -0.2484
 3302TIP3    H131397   5.232   2.474  16.630 -1.7815  0.8602 -0.8293
 3302TIP3    H231398   5.304   2.594  16.689 -1.8617  0.3094  0.4148
 3303TIP3   OH231399   0.633   1.086   0.850 -0.1169 -0.3064  0.4502
 3303TIP3    H131400   0.538   1.080   0.856 -0.2109 -0.3024 -0.8528
 3303TIP3    H231401   0.665   1.022   0.914 -0.9623  0.6609  1.9080
 3304TIP3   OH231402   1.598   0.366   0.481 -0.5889  0.6618  0.4003
 3304TIP3    H131403   1.601   0.306   0.556  2.0380  0.8167  0.5083
 3304TIP3    H231404   1.594   0.310   0.404 -2.1044  0.4832  0.5733
 3305TIP3   OH231405   1.970   6.600   2.691  0.3492  0.5730  0.0320
 3305TIP3    H131406   1.984   6.534   2.624 -0.7235  0.0899  0.2656
 3305TIP3    H231407   1.955   6.681   2.642 -1.4000  0.0412 -0.3728
 3306TIP3   OH231408   2.912   4.145  13.621 -0.1218 -0.0521  0.0128
 3306TIP3    H131409   2.843   4.085  13.593 -0.1886  0.7840 -1.7025
 3306TIP3    H231410   2.993   4.106  13.589  0.2012 -0.7555  1.5623
 3307TIP3   OH231411   0.019   3.258  14.841 -0.7179 -0.1458  0.0887
 3307TIP3    H131412   0.100   3.236  14.796 -1.5908 -3.5049 -0.0894
 3307TIP3    H231413   0.047   3.315  14.913  1.8955 -1.5462  0.3180
 3308TIP3   OH231414   3.275   3.534   5.812 -0.0400  0.0858  0.0356
 3308TIP3    H131415   3.325   3.503   5.736  1.1613  3.1001 -0.5403
 3308TIP3    H231416   3.317   3.492   5.887  0.5665 -0.7752 -0.7599
 3309TIP3   OH231417   5.117   0.048   2.643  0.7586 -0.2350 -0.2992
 3309TIP3    H131418   5.173   0.005   2.708 -0.2507 -1.1059  0.0113
 3309TIP3    H231419   5.035   0.064   2.689  0.8504  1.3796 -0.6340
 3310TIP3   OH231420   1.360   3.812  16.763  1.1951  0.5200  0.0227
 3310TIP3    H131421   1.400   3.785  16.846  1.3372  0.9623  0.1023
 3310TIP3    H231422   1.414   3.772  16.696  0.6437 -0.4639  0.1397
 3311TIP3   OH231423   5.098   5.806  16.526 -0.5095  0.3060 -0.2479
 3311TIP3    H131424   5.080   5.823  16.434 -2.0069 -2.4018 -0.5584
 3311TIP3    H231425   5.178   5.753  16.525 -1.3415 -1.0141 -0.1931
 3312TIP3   OH231426   3.235   3.658   0.116 -0.0229 -0.7635 -0.3716
 3312TIP3    H131427   3.237   3.750   0.143  2.2784 -0.7232 -0.4784
 3312TIP3    H231428   3.165   3.620   0.169 -0.1145  0.7622  0.6941
 3313TIP3   OH231429   5.126   6.740   1.951 -0.1218  0.5909 -0.6063
 3313TIP3    H131430   5.098   6.819   1.998 -0.7631 -0.2015  0.3838
 3313TIP3    H231431   5.219   6.731   1.972  0.0429  1.2575 -1.0054
 3314TIP3   OH231432   6.487   2.805  15.471 -0.1140  0.4798 -0.1614
 3314TIP3    H131433   6.580   2.830  15.470  0.1496 -0.4421 -0.3033
 3314TIP3    H231434   6.480   2.745  15.546 -0.5465  0.3741 -0.2838
 3315TIP3   OH231435   0.667   2.848   4.241  0.0154  0.4691 -0.5573
 3315TIP3    H131436   0.647   2.931   4.197 -0.0927  1.2515  0.8836
 3315TIP3    H231437   0.583   2.819   4.277  0.2681  0.3492 -0.0529
 3316TIP3   OH231438   2.298   1.969  13.911  0.1669 -0.1109  0.6577
 3316TIP3    H131439   2.204   1.978  13.927  0.3213  0.2746  1.4081
 3316TIP3    H231440   2.336   2.050  13.945  0.6619  0.2571 -0.7037
 3317TIP3   OH231441   1.598   1.211   0.358 -0.4720  0.3686 -0.3115
 3317TIP3    H131442   1.643   1.208   0.442  0.1981 -0.6708 -0.7060
 3317TIP3    H231443   1.514   1.168   0.374 -1.0196  1.5838  0.2123
 3318TIP3   OH231444   5.333   1.918  13.931  0.0991 -0.4363 -0.0296
 3318TIP3    H131445   5.370   2.003  13.952  1.2653 -0.9724  0.2169
 3318TIP3    H231446   5.301   1.883  14.014  1.3072 -0.9888  0.2316
 3319TIP3   OH231447   6.572   3.143   2.905  0.3393 -0.2872  0.4267
 3319TIP3    H131448   6.607   3.066   2.860  1.4608  0.6050 -0.2847
 3319TIP3    H231449   6.596   3.131   2.997  2.7849  0.3623 -0.0483
 3320TIP3   OH231450   0.805   4.242   4.789 -0.5418 -0.1453 -0.1649
 3320TIP3    H131451   0.747   4.189   4.734  0.3598  0.1965 -1.5008
 3320TIP3    H231452   0.755   4.257   4.870 -1.6071 -1.3014 -0.5804
 3321TIP3   OH231453   3.930   5.484   3.312 -0.0301  0.3531 -0.6521
 3321TIP3    H131454   3.983   5.418   3.268 -1.0965 -1.2552  0.3672
 3321TIP3    H231455   3.853   5.437   3.343 -1.7496  2.4483 -1.4379
 3322TIP3   OH231456   5.391   4.422  13.445 -0.0937  0.7173  0.2109
 3322TIP3    H131457   5.296   4.413  13.441  0.0090 -0.3631 -2.9221
 3322TIP3    H231458   5.421   4.343  13.491 -0.6676  0.7363  0.6280
 3323TIP3   OH231459   1.629   1.893  15.756 -0.2479 -0.4073 -0.1819
 3323TIP3    H131460   1.617   1.840  15.835 -0.8816  0.7533  0.5322
 3323TIP3    H231461   1.553   1.951  15.755  1.0987  1.4359 -0.1653
 3324TIP3   OH231462   4.860   0.883   1.929 -0.3826  0.0868 -0.1195
 3324TIP3    H131463   4.928   0.860   1.865 -0.0979  1.4430 -0.3410
 3324TIP3    H231464   4.909   0.921   2.002 -0.9024  1.3217 -0.3909
 3325TIP3   OH231465   5.055   3.255   1.883 -0.1178  0.0207  0.0350
 3325TIP3    H131466   5.110   3.261   1.806  0.6121 -3.5139  0.1253
 3325TIP3    H231467   5.116   3.242   1.956 -0.9445 -1.9321  0.4218
 3326TIP3   OH231468   4.757   4.261  15.035  0.6588  1.0805  0.0674
 3326TIP3    H131469   4.829   4.199  15.045 -0.5732 -0.5328 -0.6136
 3326TIP3    H231470   4.720   4.271  15.123  0.3491  0.1545  0.0572
 3327TIP3   OH231471   0.924   0.273   4.065 -0.0851  0.0525 -0.2071
 3327TIP3    H131472   0.895   0.199   4.120 -1.7233 -0.3272 -1.5113
 3327TIP3    H231473   0.991   0.317   4.118  0.1818 -1.7443  1.0450
 3328TIP3   OH231474   1.717   3.991   0.228  0.1248  0.1575  0.7752
 3328TIP3    H131475   1.764   3.908   0.217 -0.2298  0.1528 -1.0483
 3328TIP3    H231476   1.783   4.051   0.263  1.0086 -0.3482  0.0452
 3329TIP3   OH231477   0.549   6.025   2.470  0.7201 -0.0955  0.0808
 3329TIP3    H131478   0.528   5.969   2.395  0.8885  0.3949 -0.3387
 3329TIP3    H231479   0.616   6.085   2.437  1.0006 -0.0604  0.7103
 3330TIP3   OH231480   1.057   0.381   3.670  0.5481 -0.7012 -0.0332
 3330TIP3    H131481   1.009   0.321   3.726 -1.0000 -0.3447 -0.9216
 3330TIP3    H231482   1.096   0.326   3.603  2.8950 -1.2079  1.6071
 3331TIP3   OH231483   1.478   2.805  14.338 -0.2984 -0.0076  0.5203
 3331TIP3    H131484   1.560   2.834  14.298 -1.0819 -0.1281 -1.2937
 3331TIP3    H231485   1.423   2.780  14.264 -1.9092 -0.1339  1.6980
 3332TIP3   OH231486   6.576   1.356  13.465  0.1659 -0.0167  0.0987
 3332TIP3    H131487   6.659   1.312  13.451  0.6785  0.2470  2.0292
 3332TIP3    H231488   6.594   1.449  13.447  0.5010  0.1445  1.2004
 3333TIP3   OH231489   1.825   3.154  14.335  0.2924  0.1070 -0.1826
 3333TIP3    H131490   1.875   3.146  14.417 -1.4160  2.2684  1.1886
 3333TIP3    H231491   1.782   3.069  14.325  1.6837 -0.6963  0.3176
 3334TIP3   OH231492   1.271   4.071   0.914 -0.6179 -0.3324 -0.3680
 3334TIP3    H131493   1.276   3.976   0.909 -0.9321 -0.3136 -1.0897
 3334TIP3    H231494   1.316   4.102   0.835  0.8647  0.1673  0.6197
 3335TIP3   OH231495   1.119   1.746   0.222 -0.4312 -0.0947  0.4221
 3335TIP3    H131496   1.190   1.720   0.163 -0.7673  0.0117 -0.0315
 3335TIP3    H231497   1.054   1.788   0.165  1.0713  3.9716  1.3433
 3336TIP3   OH231498   6.231   2.880   3.821  0.4078 -0.3721  0.1154
 3336TIP3    H131499   6.284   2.955   3.796 -1.3451  2.0156  2.8853
 3336TIP3    H231500   6.222   2.888   3.916 -0.7996 -3.4989  0.3669
 3337TIP3   OH231501   5.280   1.856   1.455  0.0613  0.5246 -0.0431
 3337TIP3    H131502   5.243   1.780   1.499  1.2146  0.4999  0.9268
 3337TIP3    H231503   5.216   1.926   1.471 -0.4873  0.0247 -0.0246
 3338TIP3   OH231504   2.031   6.263  11.597 -0.2806  0.3663 -0.3451
 3338TIP3    H131505   1.992   6.264  11.510 -0.1972  1.7602 -0.3987
 3338TIP3    H231506   2.122   6.291  11.583  0.5191 -1.9305 -0.1085
 3339TIP3   OH231507   0.880   3.868  12.067 -0.4996  0.1044  0.0440
 3339TIP3    H131508   0.861   3.921  12.144  0.8940  0.6985  0.0097
 3339TIP3    H231509   0.814   3.799  12.068 -1.0483  0.6187  1.2609
 3340TIP3   OH231510   3.296   4.724   0.202 -0.0107 -0.3140  0.3930
 3340TIP3    H131511   3.388   4.709   0.180  0.0211  0.7599 -0.3393
 3340TIP3    H231512   3.263   4.639   0.229  1.1104 -0.7889  0.3229
 3341TIP3   OH231513   2.776   1.789   5.079  0.2665  0.0457 -0.6579
 3341TIP3    H131514   2.684   1.773   5.101  0.7634  0.4964  2.0084
 3341TIP3    H231515   2.825   1.720   5.124  1.4314  1.5484  0.4904
 3342TIP3   OH231516   1.009   2.669   2.886 -0.2459 -0.4634  0.2330
 3342TIP3    H131517   1.078   2.733   2.867 -1.1901  0.2103 -1.0817
 3342TIP3    H231518   1.057   2.587   2.901  0.9155  0.2883  0.8026
 3343TIP3   OH231519   2.635   5.973  12.769 -0.1750  1.1905  0.1689
 3343TIP3    H131520   2.552   5.940  12.734  1.2926 -1.3790 -1.2359
 3343TIP3    H231521   2.687   5.994  12.692  1.1978  0.7399  0.9316
 3344TIP3   OH231522   0.716   3.251  10.925 -0.6011  0.2809  0.2615
 3344TIP3    H131523   0.645   3.232  10.864 -0.7251 -0.1582  0.5401
 3344TIP3    H231524   0.729   3.346  10.919  0.3456  0.0793 -1.5226
 3345TIP3   OH231525   5.952   2.612  15.509 -0.3256 -0.2671 -0.6489
 3345TIP3    H131526   5.874   2.642  15.555  0.3039  1.6404 -0.7416
 3345TIP3    H231527   5.993   2.550  15.569 -0.9575  0.0951  0.1682
 3346TIP3   OH231528   0.918   4.659   3.810  0.0451 -0.1152  0.2902
 3346TIP3    H131529   0.992   4.610   3.774 -0.1515 -0.0552 -0.1920
 3346TIP3    H231530   0.946   4.750   3.809 -1.3424  0.4250 -3.3110
 3347TIP3   OH231531   4.276   6.157  14.121  0.0184  0.1760  0.1172
 3347TIP3    H131532   4.259   6.069  14.091 -1.6935  0.3254  0.5634
 3347TIP3    H231533   4.370   6.171  14.105  0.4559 -1.9291  0.6308
 3348TIP3   OH231534   2.578   3.705   3.781 -0.0070  0.4909  0.3811
 3348TIP3    H131535   2.567   3.797   3.805 -0.7106  0.2869  0.8602
 3348TIP3    H231536   2.658   3.704   3.728 -0.8080  1.5889 -0.8987
 3349TIP3   OH231537   3.662   4.116  13.976 -0.2599  0.1902 -0.0015
 3349TIP3    H131538   3.694   4.199  14.012 -0.1493  1.3298 -2.4968
 3349TIP3    H231539   3.567   4.127  13.973 -0.2185  0.4340 -0.7112
 3350TIP3   OH231540   1.545   3.705  12.835 -0.1969 -0.0495 -0.1622
 3350TIP3    H131541   1.548   3.699  12.740 -0.7100  0.7901 -0.2428
 3350TIP3    H231542   1.595   3.629  12.866  0.8124  0.2068 -1.1041
 3351TIP3   OH231543   0.650   4.275   2.989 -0.1026  0.4368 -0.2447
 3351TIP3    H131544   0.715   4.226   2.939  1.0555  1.4116  0.2506
 3351TIP3    H231545   0.597   4.320   2.923 -0.9925 -1.1849 -0.6914
 3352TIP3   OH231546   2.265   0.491   3.505  0.1427  0.2737  0.2848
 3352TIP3    H131547   2.260   0.533   3.419 -1.0981 -0.2792  0.0586
 3352TIP3    H231548   2.324   0.547   3.555 -0.4692  1.5941 -0.3988
 3353TIP3   OH231549   5.921   6.202  13.372  0.1440  0.6823 -0.1999
 3353TIP3    H131550   5.868   6.154  13.436 -0.0031 -0.2679 -1.0013
 3353TIP3    H231551   5.911   6.294  13.396 -2.0615  0.5556 -0.4404
 3354TIP3   OH231552   6.432   3.476  11.059 -0.1351 -0.1372 -0.2216
 3354TIP3    H131553   6.352   3.451  11.104 -0.5953 -0.4573 -1.1878
 3354TIP3    H231554   6.448   3.404  10.997 -0.1305  0.7986 -1.3326
 3355TIP3   OH231555   1.291   1.153  14.035 -0.3162  0.9008  0.0257
 3355TIP3    H131556   1.337   1.070  14.047 -2.3888 -0.2447  0.5903
 3355TIP3    H231557   1.266   1.153  13.943  0.2087  1.1992 -0.1190
 3356TIP3   OH231558   0.726   3.322   2.616 -0.2095 -0.4782  0.3866
 3356TIP3    H131559   0.809   3.369   2.624 -1.1925  1.2097  1.1643
 3356TIP3    H231560   0.661   3.381   2.653 -1.5771 -2.3524  1.1370
 3357TIP3   OH231561   4.594   0.378  15.020  0.1221 -0.0931  0.5083
 3357TIP3    H131562   4.501   0.377  15.042  0.0629 -0.0357  0.2547
 3357TIP3    H231563   4.637   0.346  15.099 -0.2166 -1.5989  0.1077
 3358TIP3   OH231564   0.824   5.705  14.671 -0.0529 -0.1985 -0.0202
 3358TIP3    H131565   0.888   5.770  14.641  0.7416 -1.1358 -0.4036
 3358TIP3    H231566   0.790   5.741  14.753  0.9186  0.3491  0.1604
 3359TIP3   OH231567   5.048   1.206  11.259 -0.2841 -0.0814  0.5204
 3359TIP3    H131568   5.119   1.215  11.322 -0.9653  0.3962  1.2333
 3359TIP3    H231569   5.060   1.119  11.222  1.9525  0.7514 -0.9766
 3360TIP3   OH231570   6.647   4.550   3.829 -0.2578  0.0633 -0.3469
 3360TIP3    H131571   6.661   4.619   3.765  0.5588  1.3463  1.1591
 3360TIP3    H231572   6.721   4.557   3.890 -1.3441 -0.6549  1.1292
 3361TIP3   OH231573   0.538   5.920   5.300  0.9317  0.3815 -0.0545
 3361TIP3    H131574   0.504   5.983   5.363  1.0266  1.6922 -1.2882
 3361TIP3    H231575   0.545   5.968   5.218  4.3246 -0.2155 -0.2554
 3362TIP3   OH231576   3.441   2.485  15.762  0.2489 -0.4204  0.0342
 3362TIP3    H131577   3.527   2.451  15.735 -1.1934 -2.7104 -2.0820
 3362TIP3    H231578   3.450   2.580  15.757  3.0323 -0.5170  1.2860
 3363TIP3   OH231579   0.460   0.582  13.013 -0.2656  0.3955  0.1159
 3363TIP3    H131580   0.443   0.520  13.084 -0.6056 -0.2780 -0.5414
 3363TIP3    H231581   0.507   0.531  12.948  1.5258  1.4131  0.5233
 3364TIP3   OH231582   4.707   2.405   3.885  0.3420  0.4915 -0.0451
 3364TIP3    H131583   4.712   2.487   3.934 -1.8753 -0.5387  2.0855
 3364TIP3    H231584   4.781   2.353   3.917 -1.0899 -0.1805  2.4138
 3365TIP3   OH231585   3.053   5.398   1.358 -0.2674  0.0558 -0.0758
 3365TIP3    H131586   3.097   5.358   1.434 -0.4654 -1.1630 -0.5803
 3365TIP3    H231587   3.012   5.477   1.394 -0.2537 -0.4290  1.0635
 3366TIP3   OH231588   2.030   2.268   2.214 -0.1999 -0.6080  0.7559
 3366TIP3    H131589   2.124   2.257   2.228 -0.0999 -0.2057  0.4400
 3366TIP3    H231590   1.993   2.276   2.302  0.1480 -0.1238  0.8618
 3367TIP3   OH231591   6.498   4.340   3.587 -0.1065  0.8548  0.8230
 3367TIP3    H131592   6.593   4.349   3.598 -0.2989  1.9371  1.8567
 3367TIP3    H231593   6.468   4.302   3.669 -0.4000 -1.1555 -0.1619
 3368TIP3   OH231594   5.048   5.402   5.240  0.5759 -0.4347  0.0116
 3368TIP3    H131595   5.131   5.355   5.227  2.0808  1.6611  1.2940
 3368TIP3    H231596   5.025   5.434   5.153  2.2630  0.6449 -0.0861
 3369TIP3   OH231597   6.381   5.614   1.447  0.0671  0.4261 -0.0373
 3369TIP3    H131598   6.390   5.520   1.465  0.1258  0.4568  0.0946
 3369TIP3    H231599   6.459   5.636   1.396  1.3979  0.9312  2.0539
 3370TIP3   OH231600   4.363   2.377   1.483 -0.0874  0.0931  0.4569
 3370TIP3    H131601   4.337   2.319   1.412 -0.7371  0.7313  0.1629
 3370TIP3    H231602   4.288   2.436   1.495 -0.5291 -0.7816  2.5165
 3371TIP3   OH231603   2.199   1.124   0.515  0.3864  0.0784 -1.0196
 3371TIP3    H131604   2.181   1.030   0.516 -1.9158  0.2338  4.1240
 3371TIP3    H231605   2.112   1.165   0.520  1.3147  2.0678  2.2457
 3372TIP3   OH231606   3.403   0.602   5.962 -0.2263 -0.7555  0.1762
 3372TIP3    H131607   3.463   0.665   6.003 -0.5932 -0.8353  0.8692
 3372TIP3    H231608   3.402   0.626   5.870  3.2079 -2.6275 -0.5107
 3373TIP3   OH231609   2.465   4.188   1.002 -0.0175 -0.2647 -0.0196
 3373TIP3    H131610   2.527   4.260   1.017 -0.1413  0.0781 -1.0319
 3373TIP3    H231611   2.514   4.124   0.950 -0.1317 -0.5752  0.2532
 3374TIP3   OH231612   6.231   3.590  11.227 -0.8481 -0.1073  0.2243
 3374TIP3    H131613   6.146   3.560  11.193 -0.6691  1.3245 -1.6614
 3374TIP3    H231614   6.209   3.646  11.302 -1.7833  1.6684 -1.2774
 3375TIP3   OH231615   5.012   3.395   2.188  0.1983 -0.1854  0.6832
 3375TIP3    H131616   4.938   3.341   2.162 -0.3770  0.1026  1.6731
 3375TIP3    H231617   5.027   3.453   2.112 -1.2474  0.4393  0.8355
 3376TIP3   OH231618   4.207   4.531  15.671 -0.2751  0.1345  0.3648
 3376TIP3    H131619   4.160   4.493  15.746  0.2958 -1.4596 -0.0319
 3376TIP3    H231620   4.237   4.454  15.621  2.0929  1.0901  0.2019
 3377TIP3   OH231621   5.974   0.932   3.705 -0.1515 -0.3379  0.5721
 3377TIP3    H131622   5.893   0.882   3.709  0.9421 -2.3698 -0.6623
 3377TIP3    H231623   6.006   0.934   3.796 -0.3319 -1.7670  0.6878
 3378TIP3   OH231624   4.377   6.556  11.116  0.0812 -0.5311  0.3162
 3378TIP3    H131625   4.465   6.520  11.123 -0.8037 -2.6219  1.5042
 3378TIP3    H231626   4.341   6.515  11.037  0.5320  1.3073 -0.9165
 3379TIP3   OH231627   5.483   5.728   5.379 -0.0372 -0.1812  0.0602
 3379TIP3    H131628   5.524   5.715   5.293  0.8800 -0.0599  0.4739
 3379TIP3    H231629   5.426   5.804   5.367  1.3354  0.8671 -0.0222
 3380TIP3   OH231630   0.287   2.545  13.665  0.2560 -0.2765 -0.4832
 3380TIP3    H131631   0.335   2.594  13.732 -0.3960 -0.4697  0.1383
 3380TIP3    H231632   0.235   2.482  13.714 -2.1124  1.1637 -0.9593
 3381TIP3   OH231633   3.369   2.921   1.819  0.0160 -0.0836 -0.1717
 3381TIP3    H131634   3.456   2.915   1.861 -0.1402 -2.8941 -0.0596
 3381TIP3    H231635   3.388   2.927   1.726  0.3326  0.2640 -0.0880
 3382TIP3   OH231636   1.140   5.802   3.672 -0.4699 -0.4223 -0.3263
 3382TIP3    H131637   1.096   5.739   3.729  0.1425 -1.5913 -1.0920
 3382TIP3    H231638   1.195   5.748   3.615 -0.2187  0.7929 -1.2757
 3383TIP3   OH231639   0.659   4.909   2.944  0.0145 -0.0078  0.1328
 3383TIP3    H131640   0.702   4.848   3.004 -1.8698 -1.2726  0.2715
 3383TIP3    H231641   0.676   4.872   2.857 -0.3910 -0.2533  0.1563
 3384TIP3   OH231642   5.623   0.648  16.949  0.1930 -0.2605 -0.0880
 3384TIP3    H131643   5.561   0.720  16.959 -0.3839 -0.7778  0.1143
 3384TIP3    H231644   5.695   0.670  17.008  0.0493  0.1773 -0.0711
 3385TIP3   OH231645   3.569   4.960   3.017  0.4125  0.5594  0.5785
 3385TIP3    H131646   3.499   5.021   2.993  0.9172  1.3976  1.2218
 3385TIP3    H231647   3.619   4.948   2.936 -1.3312 -1.2754 -0.3470
 3386TIP3   OH231648   2.139   0.095  16.349  0.4446  0.3781  0.6866
 3386TIP3    H131649   2.189   0.043  16.412 -0.4804  0.5476  1.6039
 3386TIP3    H231650   2.189   0.175  16.338  1.1228 -0.0747  0.4251
 3387TIP3   OH231651   0.158   0.961  13.337  0.4493 -0.5283  0.0381
 3387TIP3    H131652   0.119   0.874  13.342  1.9303 -1.3176 -1.3344
 3387TIP3    H231653   0.126   0.997  13.254 -0.6766  0.5474  0.8942
 3388TIP3   OH231654   2.969   4.626   4.694  0.0708  0.0591  0.4930
 3388TIP3    H131655   2.995   4.718   4.688  0.4651 -0.1178 -1.1226
 3388TIP3    H231656   3.047   4.580   4.724  0.5074  0.0173 -0.6548
 3389TIP3   OH231657   2.469   5.903  12.972 -0.4056  0.3425  0.3681
 3389TIP3    H131658   2.539   5.929  12.912 -0.0932  0.6223  0.8541
 3389TIP3    H231659   2.505   5.916  13.059 -0.7654 -0.3209  0.6255
 3390TIP3   OH231660   4.713   2.779   4.693 -0.0113  0.2841 -0.2287
 3390TIP3    H131661   4.672   2.711   4.746  1.6471 -0.4782  0.1543
 3390TIP3    H231662   4.702   2.749   4.603 -0.3908  0.1523 -0.1403
 3391TIP3   OH231663   4.368   5.713  12.790 -0.0804 -0.3912  0.0682
 3391TIP3    H131664   4.364   5.804  12.763 -1.3005 -0.0027  1.4112
 3391TIP3    H231665   4.319   5.665  12.723  0.0145  0.0273 -0.2982
 3392TIP3   OH231666   6.280   6.092   2.308 -0.1122  0.5624  0.1870
 3392TIP3    H131667   6.220   6.043   2.252  0.8094  0.3496 -0.6286
 3392TIP3    H231668   6.297   6.034   2.382 -1.6455  0.9986  0.9340
 3393TIP3   OH231669   0.187   2.848  13.883  0.0626  0.3783 -0.2617
 3393TIP3    H131670   0.191   2.938  13.915  0.5745  0.7631 -1.3441
 3393TIP3    H231671   0.112   2.810  13.928 -0.3641  1.4481 -0.0289
 3394TIP3   OH231672   0.780   2.230   0.412  0.3868 -0.1771 -0.2100
 3394TIP3    H131673   0.790   2.325   0.423 -0.2457  0.0327 -1.3521
 3394TIP3    H231674   0.700   2.209   0.461  0.6650 -0.1764  0.2568
 3395TIP3   OH231675   3.861   3.324  12.121  0.5261  0.3065  0.7856
 3395TIP3    H131676   3.831   3.373  12.198  0.7218  0.1638  0.9552
 3395TIP3    H231677   3.875   3.391  12.054 -1.9510  0.2156  0.0903
 3396TIP3   OH231678   5.444   5.673   1.810 -0.1450  0.3742  0.4102
 3396TIP3    H131679   5.532   5.665   1.847  0.1396 -0.6939 -0.4320
 3396TIP3    H231680   5.389   5.620   1.868 -0.3452  1.4434  1.2241
 3397TIP3   OH231681   6.296   4.777  16.636  0.5184  0.0102 -0.0774
 3397TIP3    H131682   6.357   4.772  16.710  1.4610 -0.2334 -0.8441
 3397TIP3    H231683   6.331   4.714  16.573 -0.5256 -0.1087 -0.5490
 3398TIP3   OH231684   0.841   3.294   3.231 -0.3915 -0.1182  0.0595
 3398TIP3    H131685   0.833   3.381   3.271 -0.2787 -1.3159  2.9074
 3398TIP3    H231686   0.924   3.297   3.184  0.2576  0.9555  1.2038
 3399TIP3   OH231687   1.234   5.409  16.591 -0.8578 -0.0495  0.0829
 3399TIP3    H131688   1.234   5.396  16.685 -2.7095 -2.0748 -0.1035
 3399TIP3    H231689   1.265   5.326  16.555 -1.1625  0.3152 -1.0943
 3400TIP3   OH231690   2.590   3.268   4.856  0.0881  0.1231  0.4970
 3400TIP3    H131691   2.587   3.178   4.822  0.0534  0.2729  0.0948
 3400TIP3    H231692   2.629   3.319   4.784 -2.2838  0.8931 -0.3267
 3401TIP3   OH231693   3.415   5.570  14.328  0.0978 -0.0439  0.5204
 3401TIP3    H131694   3.409   5.527  14.242  0.3795  2.1636 -0.6968
 3401TIP3    H231695   3.327   5.563  14.365 -0.5041  0.4642 -0.7540
 3402TIP3   OH231696   2.992   0.977   4.328 -0.0990  0.0020 -0.1514
 3402TIP3    H131697   3.036   0.966   4.244 -0.7695  1.0426 -0.6643
 3402TIP3    H231698   2.954   0.891   4.347  0.2663 -0.3031 -0.7975
 3403TIP3   OH231699   1.578   3.625  13.933 -0.4340  0.0508 -0.4450
 3403TIP3    H131700   1.504   3.681  13.909  0.3661  1.9107  1.1784
 3403TIP3    H231701   1.543   3.567  14.001 -0.4627  0.7794  0.1671
 3404TIP3   OH231702   2.714   0.031  12.818  0.2863  0.3461  0.1808
 3404TIP3    H131703   2.776  -0.021  12.767  0.0404 -0.9956  1.1938
 3404TIP3    H231704   2.634   0.031  12.765  0.3165 -0.2604  0.1199
 3405TIP3   OH231705   0.834   3.102  10.724 -0.2145 -0.3267 -0.2949
 3405TIP3    H131706   0.826   3.116  10.818 -0.4137 -1.6175 -0.0998
 3405TIP3    H231707   0.811   3.187  10.685 -2.7578 -0.4554  0.7180
 3406TIP3   OH231708   1.172   2.567  17.186 -0.0947  0.1972  0.3197
 3406TIP3    H131709   1.221   2.647  17.203 -0.5948  0.7037 -0.5708
 3406TIP3    H231710   1.106   2.592  17.121 -0.2977 -0.9166  0.0737
 3407TIP3   OH231711   0.872   6.366  15.835 -0.2473  0.0110  0.7397
 3407TIP3    H131712   0.865   6.271  15.842  1.5225 -0.1703  0.4436
 3407TIP3    H231713   0.867   6.397  15.926  1.5426 -0.5948  1.0943
 3408TIP3   OH231714   4.685   0.969  16.225  0.1242  0.5307 -1.3229
 3408TIP3    H131715   4.764   0.942  16.178 -0.2635  1.4046 -2.5305
 3408TIP3    H231716   4.615   0.921  16.183  0.0615 -0.8581  0.2737
 3409TIP3   OH231717   1.535   6.529   2.964  0.4445  0.0109  0.1091
 3409TIP3    H131718   1.616   6.496   2.926 -0.0867 -0.1926 -0.8828
 3409TIP3    H231719   1.496   6.582   2.894  0.5931  1.6137  1.1887
 3410TIP3   OH231720   1.137   3.179  10.395 -0.5657  0.1434 -0.3661
 3410TIP3    H131721   1.187   3.097  10.398 -1.8924 -0.6620  0.9286
 3410TIP3    H231722   1.056   3.159  10.442 -0.7795  2.3049  0.2517
 3411TIP3   OH231723   1.190   3.198   5.223  0.5851  0.1314 -0.5726
 3411TIP3    H131724   1.187   3.276   5.168  0.3042 -0.3453 -1.2383
 3411TIP3    H231725   1.202   3.125   5.162  0.7987 -0.3533  0.0369
 3412TIP3   OH231726   0.469   6.706   5.857 -0.1598 -0.3210  0.0755
 3412TIP3    H131727   0.470   6.631   5.916 -2.0596 -0.7149 -0.3218
 3412TIP3    H231728   0.514   6.775   5.905 -3.0637 -0.1019  2.7548
 3413TIP3   OH231729   6.624   5.917  11.479 -0.8104  0.1597  0.1823
 3413TIP3    H131730   6.669   5.864  11.412  0.2087  1.1394  0.0614
 3413TIP3    H231731   6.560   5.969  11.429 -1.4137 -0.5274  0.2300
 3414TIP3   OH231732   0.737   6.776  11.519 -0.3059 -0.3280  0.4388
 3414TIP3    H131733   0.663   6.833  11.536  0.5624  0.7000  0.8873
 3414TIP3    H231734   0.779   6.764  11.604 -0.0903 -1.1112  0.2372
 3415TIP3   OH231735   1.176   3.105   5.840  0.2226 -0.5096 -0.0124
 3415TIP3    H131736   1.168   3.032   5.901 -0.8200 -1.4701 -1.2382
 3415TIP3    H231737   1.268   3.131   5.846  0.5535 -1.7366  0.6475
 3416TIP3   OH231738   0.710   6.058  11.386  0.6196  0.3615  0.1234
 3416TIP3    H131739   0.691   6.094  11.472  0.2255  1.2262 -0.3089
 3416TIP3    H231740   0.804   6.037  11.389  0.8681  1.4166  0.4134
 3417TIP3   OH231741   1.416   0.632   4.825 -0.9828  0.3696 -0.0070
 3417TIP3    H131742   1.388   0.548   4.787 -1.2627  0.5510 -0.2018
 3417TIP3    H231743   1.375   0.635   4.911  0.7847 -0.6937  0.9332
 3418TIP3   OH231744   5.939   5.704   4.872  0.4984  0.0909 -0.5762
 3418TIP3    H131745   5.977   5.681   4.787 -0.3579 -0.3310 -0.8632
 3418TIP3    H231746   5.927   5.619   4.915 -2.6434 -0.1462 -1.6127
 3419TIP3   OH231747   5.344   1.557  14.708 -0.3585 -0.0708  0.1602
 3419TIP3    H131748   5.311   1.573  14.620 -0.5055 -1.3367 -0.0344
 3419TIP3    H231749   5.414   1.492  14.696 -1.6792 -1.7640  1.1369
 3420TIP3   OH231750   1.188   0.047   0.102  0.2815  0.4238 -0.4156
 3420TIP3    H131751   1.105   0.060   0.056  0.3910  1.4658 -0.3276
 3420TIP3    H231752   1.247   0.012   0.035  0.4715  2.0223 -1.1372
 3421TIP3   OH231753   2.109   5.206  13.093  0.4633  0.4654  0.1293
 3421TIP3    H131754   2.065   5.188  13.011  0.2748  0.4810  0.2263
 3421TIP3    H231755   2.108   5.123  13.141 -1.5745  1.0149  1.1301
 3422TIP3   OH231756   1.047   4.398  14.748 -0.9561  0.0990 -0.0085
 3422TIP3    H131757   0.969   4.379  14.801 -1.0818  0.4606 -0.0626
 3422TIP3    H231758   1.060   4.320  14.695 -1.0524 -0.1172  0.2860
 3423TIP3   OH231759   0.575   1.802  13.209  0.0329  0.5612  0.0154
 3423TIP3    H131760   0.495   1.851  13.187 -0.3910 -0.2543 -0.3170
 3423TIP3    H231761   0.579   1.733  13.143  0.7044  0.2375  0.3871
 3424TIP3   OH231762   6.499   5.032   3.919  0.5523 -0.3984 -1.0166
 3424TIP3    H131763   6.447   4.961   3.957  0.4333 -0.4667 -1.3091
 3424TIP3    H231764   6.464   5.043   3.831  0.5697  0.0300 -0.9695
 3425TIP3   OH231765   0.507   5.577  11.898 -0.0966  0.2559 -0.3864
 3425TIP3    H131766   0.474   5.533  11.977  2.3918  0.4867  0.8981
 3425TIP3    H231767   0.514   5.669  11.924  0.0214  0.4617 -1.1412
 3426TIP3   OH231768   0.158   4.118  16.007 -0.3622 -0.1276  0.1952
 3426TIP3    H131769   0.237   4.107  16.060  0.4590 -1.3150 -1.1848
 3426TIP3    H231770   0.192   4.136  15.919 -1.6237  4.6767  0.4183
 3427TIP3   OH231771   4.236   6.397  16.477  0.3805 -0.1553 -0.2186
 3427TIP3    H131772   4.192   6.459  16.535 -0.1455 -0.1202 -0.6428
 3427TIP3    H231773   4.313   6.445  16.444  1.5424 -0.6725  1.5816
 3428TIP3   OH231774   5.527   5.813  11.702  0.2601 -0.3169  0.1408
 3428TIP3    H131775   5.542   5.773  11.788 -1.4033 -0.9848  0.1747
 3428TIP3    H231776   5.490   5.742  11.649 -1.6266  0.8198 -0.1777
 3429TIP3   OH231777   5.416   4.502   5.814 -0.4425  0.3391 -0.1156
 3429TIP3    H131778   5.402   4.594   5.837 -1.5030 -0.1588  1.4423
 3429TIP3    H231779   5.387   4.495   5.723 -3.0670  1.0360  0.5577
 3430TIP3   OH231780   4.128   4.244   3.609  0.3101  0.1797 -0.3816
 3430TIP3    H131781   4.146   4.321   3.555 -2.8833  2.6626  1.7870
 3430TIP3    H231782   4.089   4.278   3.689 -0.4495 -3.6818  1.1269
 3431TIP3   OH231783   0.918   4.624   3.103  0.0901  0.9770  0.8229
 3431TIP3    H131784   0.919   4.659   3.014 -0.1414 -0.4669  0.2379
 3431TIP3    H231785   0.896   4.699   3.158 -0.2739  1.7688 -0.3787
 3432TIP3   OH231786   6.626   2.347   0.681  0.1440  0.4094 -0.0160
 3432TIP3    H131787   6.547   2.318   0.635  0.3077  0.1163 -0.1185
 3432TIP3    H231788   6.680   2.268   0.688 -0.4477  0.1382  1.8707
 3433TIP3   OH231789   6.058   4.045  16.525 -0.1160 -0.5285 -0.0505
 3433TIP3    H131790   6.018   3.975  16.577 -0.3738 -1.0301 -0.9131
 3433TIP3    H231791   6.153   4.031  16.535  0.1565  2.2130  4.1780
 3434TIP3   OH231792   6.416   1.616   2.613  0.3197  0.7390 -0.1492
 3434TIP3    H131793   6.442   1.543   2.557 -0.2044 -0.9874  1.7232
 3434TIP3    H231794   6.360   1.670   2.558 -0.5292 -1.1090 -1.2099
 3435TIP3   OH231795   6.217   0.177  16.047 -0.6068  0.5758 -0.1327
 3435TIP3    H131796   6.136   0.149  16.089  0.8377 -0.0627  2.5054
 3435TIP3    H231797   6.250   0.247  16.104  0.9291  0.4603 -0.8382
 3436TIP3   OH231798   6.707   1.690  16.111  0.0286  0.9156 -0.6188
 3436TIP3    H131799   6.789   1.722  16.150  0.5533 -0.9121 -0.0760
 3436TIP3    H231800   6.726   1.683  16.018  1.2054 -1.2539 -0.2870
 3437TIP3   OH231801   5.736   3.104   4.147 -0.1083  0.5325 -0.1691
 3437TIP3    H131802   5.777   3.100   4.233 -0.4559  0.6313  0.0005
 3437TIP3    H231803   5.682   3.183   4.149 -2.8172 -1.2027  0.7477
 3438TIP3   OH231804   1.164   5.071  11.603  0.4476  0.1107 -0.5716
 3438TIP3    H131805   1.212   4.992  11.578 -1.0996 -1.5295  1.2436
 3438TIP3    H231806   1.211   5.143  11.560  2.0340 -1.7513 -2.1525
 3439TIP3   OH231807   3.005   1.948   0.977 -0.2559  0.9456 -0.1888
 3439TIP3    H131808   2.997   1.982   0.888 -0.9841  0.9718 -0.1194
 3439TIP3    H231809   2.959   2.011   1.032 -0.6558  0.4255  0.0841
 3440TIP3   OH231810   3.402   4.996  13.051 -0.2398 -0.2955  0.1342
 3440TIP3    H131811   3.466   4.950  12.998 -0.4837 -1.4862  0.8321
 3440TIP3    H231812   3.352   4.927  13.095 -2.2673  0.5619 -0.6781
 3441TIP3   OH231813   5.358   0.447   2.492  0.3213 -0.0144  0.2745
 3441TIP3    H131814   5.378   0.502   2.568  0.4747 -0.4372  0.5456
 3441TIP3    H231815   5.361   0.507   2.418 -1.7522  0.8327  0.7979
 3442TIP3   OH231816   3.563   6.825   1.803  0.2311 -0.4912  0.5747
 3442TIP3    H131817   3.591   6.916   1.809  0.4015 -0.3212 -1.8470
 3442TIP3    H231818   3.474   6.824   1.839  0.7613  0.3182  1.9540
 3443TIP3   OH231819   0.474   2.335   3.517  0.1707  0.3211  0.3330
 3443TIP3    H131820   0.493   2.282   3.594  2.2361 -0.0470 -0.3643
 3443TIP3    H231821   0.415   2.404   3.548  0.0704 -0.4732  1.9660
 3444TIP3   OH231822   4.755   5.009  16.737 -0.0744 -0.0623 -0.4543
 3444TIP3    H131823   4.718   4.961  16.811 -0.1668  0.2099 -0.3220
 3444TIP3    H231824   4.696   4.991  16.664 -0.4074  0.2810 -0.2718
 3445TIP3   OH231825   4.216   6.143   2.870  0.3231  0.0853  0.5702
 3445TIP3    H131826   4.220   6.238   2.887 -0.8174  0.0357  1.2465
 3445TIP3    H231827   4.184   6.136   2.780  1.3143  0.3354  0.1868
 3446TIP3   OH231828   0.270   2.173   1.799  0.2393  0.1511 -0.2759
 3446TIP3    H131829   0.218   2.104   1.839  1.5108 -0.3602  0.5150
 3446TIP3    H231830   0.361   2.146   1.809  0.7579  1.7406 -0.2982
 3447TIP3   OH231831   4.079   2.054   5.635  0.1001  0.3514  0.3358
 3447TIP3    H131832   4.067   2.035   5.542  0.3166 -0.9176  0.5567
 3447TIP3    H231833   3.990   2.071   5.667 -0.1694 -0.7607  0.2130
 3448TIP3   OH231834   3.136   5.863   6.088  0.1609 -0.8264 -0.4742
 3448TIP3    H131835   3.113   5.928   6.155  2.3345  0.7918 -1.1905
 3448TIP3    H231836   3.078   5.789   6.106 -1.3998  0.7155  1.3057
 3449TIP3   OH231837   0.395   6.372   1.209  0.2502 -0.2568 -0.2740
 3449TIP3    H131838   0.454   6.305   1.243 -0.4937 -0.7273  0.1247
 3449TIP3    H231839   0.405   6.446   1.268 -1.9761 -1.5157  1.8617
 3450TIP3   OH231840   1.169   6.174  12.181 -0.5409 -0.0487 -0.9043
 3450TIP3    H131841   1.085   6.206  12.148 -0.5611  1.2550  0.3151
 3450TIP3    H231842   1.152   6.154  12.274  0.7348  1.3001 -0.3486
 3451TIP3   OH231843   1.466   2.067   4.032 -0.1185  0.4288  0.3385
 3451TIP3    H131844   1.443   2.153   3.997 -2.9220 -0.8696 -1.3804
 3451TIP3    H231845   1.415   2.060   4.113 -3.9823 -1.2433 -1.9165
 3452TIP3   OH231846   1.969   1.296  16.862 -0.7092  0.1139  0.0818
 3452TIP3    H131847   2.059   1.268  16.846 -1.0135 -1.5318  0.9705
 3452TIP3    H231848   1.974   1.345  16.945 -0.7147 -0.5130  0.4571
 3453TIP3   OH231849   5.262   5.029  10.383  0.4632  0.2234  0.2755
 3453TIP3    H131850   5.173   5.063  10.394 -0.3771 -1.4626 -0.8327
 3453TIP3    H231851   5.278   4.977  10.462 -0.6610 -1.6793 -0.6639
 3454TIP3   OH231852   0.483   3.778   0.559 -0.1825 -0.8423  0.3241
 3454TIP3    H131853   0.430   3.782   0.638 -1.5815  1.1503 -0.6495
 3454TIP3    H231854   0.431   3.725   0.498 -0.6688  0.3578 -0.3298
 3455TIP3   OH231855   6.557   1.462   6.090  0.3405 -0.1330 -0.3935
 3455TIP3    H131856   6.513   1.378   6.084 -0.1005 -0.1195  1.7102
 3455TIP3    H231857   6.645   1.445   6.058  1.1549 -2.2015  2.4669
 3456TIP3   OH231858   0.264   6.244  12.917 -0.1803 -0.0832 -0.1870
 3456TIP3    H131859   0.179   6.286  12.907 -0.3767  0.0366  1.6177
 3456TIP3    H231860   0.291   6.223  12.827 -2.3301 -0.6021 -0.7849
 3457TIP3   OH231861   6.534   2.663   3.959 -0.0297 -0.5385 -0.4775
 3457TIP3    H131862   6.488   2.631   3.882  0.5446  0.6444 -1.3354
 3457TIP3    H231863   6.493   2.748   3.978  0.5243 -0.3519 -0.1076
 3458TIP3   OH231864   0.065   6.594  10.633  0.1247 -0.3760 -0.2930
 3458TIP3    H131865  -0.021   6.629  10.657  0.2329 -0.1279 -0.2569
 3458TIP3    H231866   0.059   6.579  10.539  0.8348  2.0380 -0.8091
 3459TIP3   OH231867   4.056   4.081   2.252 -0.3188 -0.1219  0.4451
 3459TIP3    H131868   4.041   4.015   2.319  2.9156 -0.3605  1.1235
 3459TIP3    H231869   4.029   4.164   2.292 -1.9549 -0.6693  0.5505
 3460TIP3   OH231870   0.937   5.103   1.540  0.2339  0.3815  0.1282
 3460TIP3    H131871   0.898   5.023   1.506  0.6907 -0.8378  2.3482
 3460TIP3    H231872   0.984   5.140   1.464 -3.1379  0.7275 -2.0172
 3461TIP3   OH231873   5.088   2.586   3.600 -0.4916  0.6853  0.2280
 3461TIP3    H131874   5.108   2.574   3.692 -1.2811 -3.9166 -0.0033
 3461TIP3    H231875   4.993   2.594   3.597 -0.5647 -0.2778 -0.2385
 3462TIP3   OH231876   0.697   4.522  16.092  0.0895 -0.4207  0.1232
 3462TIP3    H131877   0.637   4.488  16.157 -1.7358 -0.0677 -1.2796
 3462TIP3    H231878   0.683   4.617  16.094 -0.7738 -0.4751 -1.4233
 3463TIP3   OH231879   1.772   2.086   5.448  0.2962 -0.0875 -0.2207
 3463TIP3    H131880   1.687   2.126   5.466  0.9048  0.8089  0.8464
 3463TIP3    H231881   1.800   2.051   5.532  1.0385 -0.2498 -0.5256
 3464TIP3   OH231882   3.638   0.804  16.505  0.0025 -0.0446  0.2455
 3464TIP3    H131883   3.619   0.721  16.548  0.3853  0.0711  0.6498
 3464TIP3    H231884   3.715   0.785  16.451 -2.1555 -0.9605 -2.7091
 3465TIP3   OH231885   0.820   0.257  14.299 -0.1437 -0.1385  0.3318
 3465TIP3    H131886   0.890   0.201  14.264  1.7363  2.4017 -0.2298
 3465TIP3    H231887   0.838   0.261  14.393  0.4867  0.5239  0.1857
 3466TIP3   OH231888   1.307   1.851   5.105  0.0881 -0.3819 -0.0741
 3466TIP3    H131889   1.378   1.788   5.118  0.3333 -0.7229 -2.7113
 3466TIP3    H231890   1.319   1.885   5.017 -0.4503  2.9114  0.9772
 3467TIP3   OH231891   3.225   1.617  12.928 -0.0615  0.3598  0.6593
 3467TIP3    H131892   3.156   1.678  12.902 -0.0200  0.1016 -0.0585
 3467TIP3    H231893   3.236   1.633  13.022 -1.6564 -0.1333  0.9774
 3468TIP3   OH231894   1.868   1.885   1.875 -0.0426  0.4826 -0.0220
 3468TIP3    H131895   1.824   1.938   1.942 -1.6032 -0.7135 -0.0364
 3468TIP3    H231896   1.799   1.829   1.839  1.1042 -0.0798 -1.4851
 3469TIP3   OH231897   3.416   6.661   5.209 -0.1126 -0.2625  0.5309
 3469TIP3    H131898   3.415   6.709   5.291  0.0622 -0.1927  0.4928
 3469TIP3    H231899   3.436   6.727   5.143  3.2715 -0.8503  0.8033
 3470TIP3   OH231900   4.682   3.658   2.319 -0.5559 -0.7099 -0.6231
 3470TIP3    H131901   4.637   3.622   2.242 -0.4255  0.8051 -1.4439
 3470TIP3    H231902   4.685   3.585   2.381 -1.8833 -1.5766 -1.5212
 3471TIP3   OH231903   3.588   4.379   0.279 -0.8480 -0.2431 -0.0301
 3471TIP3    H131904   3.617   4.400   0.368 -1.2101 -1.7763  0.4706
 3471TIP3    H231905   3.669   4.377   0.228 -0.4203 -1.1423  0.6533
 3472TIP3   OH231906   6.695   1.707   2.984 -0.1236  0.3427  0.1183
 3472TIP3    H131907   6.692   1.793   2.941  0.7698  0.5846  0.5213
 3472TIP3    H231908   6.749   1.721   3.061  0.7628 -0.7842 -0.2776
 3473TIP3   OH231909   3.097   6.098   4.559 -0.1980 -0.7511 -0.1395
 3473TIP3    H131910   3.029   6.149   4.514  0.8081  0.3580 -0.4439
 3473TIP3    H231911   3.178   6.121   4.514  0.6113 -0.8504  1.2178
 3474TIP3   OH231912   1.113   3.045   3.373  0.0455  0.4632  0.3793
 3474TIP3    H131913   1.136   3.025   3.464 -1.2578  1.5230  0.9904
 3474TIP3    H231914   1.041   3.108   3.381 -0.3229  0.3029 -1.3955
 3475TIP3   OH231915   5.841   3.927  15.866  0.3387  0.4573 -0.7613
 3475TIP3    H131916   5.869   4.019  15.865  0.7808  0.3852  1.0618
 3475TIP3    H231917   5.845   3.902  15.958  3.3861 -2.3242 -1.4433
 3476TIP3   OH231918   5.677   5.954  15.826 -0.0357  0.4143 -0.4911
 3476TIP3    H131919   5.700   5.979  15.736 -0.3247 -2.0918 -1.3574
 3476TIP3    H231920   5.725   5.873  15.841 -0.5261  0.4243  1.4042
 3477TIP3   OH231921   1.259   4.598   3.156  0.0245 -0.1700  0.0146
 3477TIP3    H131922   1.190   4.595   3.090  0.0031  0.6326 -0.0051
 3477TIP3    H231923   1.255   4.512   3.199 -0.0435 -0.6478 -0.9302
 3478TIP3   OH231924   0.082   6.511   2.041  0.5681 -0.6606 -0.3945
 3478TIP3    H131925   0.128   6.443   2.090 -0.2298 -0.6663  0.3590
 3478TIP3    H231926   0.148   6.547   1.982  2.2487  0.9986  2.3177
 3479TIP3   OH231927   6.788   4.370  15.857  0.1382 -0.0569 -0.7709
 3479TIP3    H131928   6.781   4.306  15.786  1.3798 -0.3180 -0.6849
 3479TIP3    H231929   6.710   4.425  15.848 -0.3235 -0.8312 -1.5962
 3480TIP3   OH231930   1.326   1.461   2.528 -0.0878 -0.4937 -0.4803
 3480TIP3    H131931   1.394   1.503   2.474 -2.1699  0.9661 -2.1183
 3480TIP3    H231932   1.296   1.387   2.474 -0.9196 -0.1337 -0.5199
 3481TIP3   OH231933   2.454   5.256  13.956  0.0514 -0.0807 -0.0006
 3481TIP3    H131934   2.395   5.201  13.906  0.3161 -0.2415 -0.1370
 3481TIP3    H231935   2.525   5.198  13.982 -0.6048 -0.2658  1.4711
 3482TIP3   OH231936   2.998   5.731  14.235  0.6355  0.4882  0.0463
 3482TIP3    H131937   2.906   5.739  14.260 -0.1921 -0.9071 -2.3108
 3482TIP3    H231938   3.043   5.709  14.317 -1.6543 -2.1542  0.7215
 3483TIP3   OH231939   2.923   5.826  13.723  0.1085  0.2068 -0.1800
 3483TIP3    H131940   2.972   5.752  13.758 -1.2424 -0.6783 -0.0487
 3483TIP3    H231941   2.849   5.786  13.676 -0.4214  1.4600 -0.4715
 3484TIP3   OH231942   0.934   1.245  14.820 -0.2809 -0.4567 -0.4892
 3484TIP3    H131943   1.018   1.274  14.783  0.5480  2.7759  3.3239
 3484TIP3    H231944   0.869   1.298  14.775  0.3768  1.1311  0.3582
 3485TIP3   OH231945   3.926   5.158  12.197  0.2190  0.0922 -0.2290
 3485TIP3    H131946   3.947   5.231  12.138  0.2791  0.2884  0.0307
 3485TIP3    H231947   3.956   5.188  12.283  1.4844 -0.7816 -0.3409
 3486TIP3   OH231948   6.624   2.348  12.116  0.0768 -0.0872  0.0378
 3486TIP3    H131949   6.588   2.273  12.163 -0.1221  1.3437  2.3668
 3486TIP3    H231950   6.605   2.331  12.024 -0.0167 -2.8095  0.4853
 3487TIP3   OH231951   3.091   5.233  11.614 -0.1312 -0.1712 -0.4874
 3487TIP3    H131952   2.998   5.212  11.612  0.0219 -0.9200 -0.1111
 3487TIP3    H231953   3.130   5.165  11.669  0.3026  1.4763  1.3565
 3488TIP3   OH231954   3.064   4.398  15.958  0.6623 -0.4308 -0.0017
 3488TIP3    H131955   3.137   4.406  16.019  0.3383 -0.6202  0.4145
 3488TIP3    H231956   3.070   4.476  15.904 -0.9931  1.4748  2.3969
 3489TIP3   OH231957   2.650   1.900   0.392  0.3449 -0.0008  0.3952
 3489TIP3    H131958   2.648   1.996   0.396  1.9871  0.0492  0.5558
 3489TIP3    H231959   2.570   1.877   0.345  0.6853  1.5482 -1.0739
 3490TIP3   OH231960   4.685   5.426  11.003  0.3810  0.1571 -0.3733
 3490TIP3    H131961   4.616   5.423  11.069 -0.0165  0.0716 -0.7907
 3490TIP3    H231962   4.656   5.492  10.940  0.4110 -0.2639 -0.8359
 3491TIP3   OH231963   4.116   2.055   2.049 -0.0620  0.4128  0.4649
 3491TIP3    H131964   4.121   2.074   1.955 -0.5853 -1.3464  0.0525
 3491TIP3    H231965   4.036   2.099   2.078 -1.6117 -1.5356 -0.6093
 3492TIP3   OH231966   3.282   1.430  16.385 -0.2797 -0.2962 -0.0503
 3492TIP3    H131967   3.298   1.343  16.348 -0.4861 -1.0251  1.5107
 3492TIP3    H231968   3.351   1.485  16.347  1.3582 -1.6944  0.7743
 3493TIP3   OH231969   2.618   5.983   5.999  0.3113 -0.0692  0.3503
 3493TIP3    H131970   2.669   6.064   5.996  1.0721 -0.5607 -0.1131
 3493TIP3    H231971   2.653   5.936   6.075  1.4858 -1.0060 -0.7455
 3494TIP3   OH231972   3.747   1.332   5.073 -0.1332 -0.3040  0.0739
 3494TIP3    H131973   3.658   1.330   5.037  0.3511 -0.0013 -1.1909
 3494TIP3    H231974   3.737   1.302   5.164 -1.4224 -0.9414 -0.2535
 3495TIP3   OH231975   2.242   4.964  15.073  0.1790 -0.0667 -0.4310
 3495TIP3    H131976   2.159   4.925  15.048  0.6731 -0.2096 -1.9560
 3495TIP3    H231977   2.219   5.048  15.113 -0.6538  0.7598 -2.5004
 3496TIP3   OH231978   1.352   4.370  11.174  0.0793 -0.2951 -0.1542
 3496TIP3    H131979   1.429   4.323  11.143 -0.6274 -0.9920 -0.9470
 3496TIP3    H231980   1.367   4.461  11.148  0.8022 -0.3472  0.0632
 3497TIP3   OH231981   3.931   5.957   1.266  0.1751 -0.5338 -0.3094
 3497TIP3    H131982   3.847   5.921   1.294 -0.2662  1.3925  1.0656
 3497TIP3    H231983   3.917   6.052   1.265  2.6921 -0.0591  1.2790
 3498TIP3   OH231984   0.754   1.247   0.444  0.3109 -0.0089 -0.0040
 3498TIP3    H131985   0.771   1.324   0.498 -1.3027 -1.1091  2.2295
 3498TIP3    H231986   0.748   1.175   0.507  2.5292 -2.1830 -2.0459
 3499TIP3   OH231987   4.780   5.068   2.999  0.1455 -0.1967  0.2411
 3499TIP3    H131988   4.691   5.095   2.978  0.9664  1.6309 -1.2498
 3499TIP3    H231989   4.814   5.138   3.055  1.0546 -0.1549 -0.3284
 3500TIP3   OH231990   0.856   2.415   5.842  0.6551 -0.6691 -0.2098
 3500TIP3    H131991   0.900   2.355   5.903  0.2420 -0.6299  0.1357
 3500TIP3    H231992   0.871   2.502   5.880  1.2514 -0.5432 -0.7083
 3501TIP3   OH231993   2.582   1.577   2.157 -0.0163 -0.0092  0.1185
 3501TIP3    H131994   2.599   1.493   2.115 -1.0823  0.1089 -0.5956
 3501TIP3    H231995   2.536   1.628   2.091 -1.3720  0.3363  1.2631
 3502TIP3   OH231996   0.363   1.178  15.777 -0.2641 -0.2898 -0.2079
 3502TIP3    H131997   0.367   1.218  15.690  0.0338 -0.6559 -0.3638
 3502TIP3    H231998   0.275   1.141  15.783 -0.3063 -0.2087 -0.3253
 3503TIP3   OH231999   1.836   5.730   6.274 -0.2976  0.3947 -0.5119
 3503TIP3    H132000   1.917   5.681   6.262 -0.9370 -0.6295 -0.7705
 3503TIP3    H232001   1.839   5.760   6.365  0.1626 -0.0250 -0.3831
 3504TIP3   OH232002   6.007   6.474  12.783  0.0746 -1.0047 -0.2854
 3504TIP3    H132003   5.940   6.409  12.762 -1.5086 -0.1572  1.7868
 3504TIP3    H232004   5.968   6.526  12.854  2.5005  0.2545  0.2119
 3505TIP3   OH232005   5.972   4.025   1.632 -0.0612  0.0650 -0.3969
 3505TIP3    H132006   5.977   4.056   1.722 -0.2790  2.1998 -1.0474
 3505TIP3    H232007   6.052   3.974   1.620  1.1670  1.6923  0.3708
 3506TIP3   OH232008   1.258   6.034   2.474 -0.4391  0.8277 -0.6402
 3506TIP3    H132009   1.256   6.116   2.523  0.5675  0.0896  0.7243
 3506TIP3    H232010   1.285   5.969   2.538  1.2429 -0.1583 -2.2248
 3507TIP3   OH232011   2.728   5.762   4.776  0.2690  0.4653 -0.0588
 3507TIP3    H132012   2.774   5.813   4.709 -1.2243  1.2892 -0.4964
 3507TIP3    H232013   2.652   5.726   4.731 -1.7783  2.4921  1.4996
 3508TIP3   OH232014   4.251   0.690  12.063  0.1640  0.4880 -0.7197
 3508TIP3    H132015   4.300   0.708  11.983  1.3044 -2.1211 -0.7285
 3508TIP3    H232016   4.298   0.617  12.103 -1.9277 -0.0334  0.9614
 3509TIP3   OH232017   3.090   5.226  16.821  0.6373 -0.8436 -0.3060
 3509TIP3    H132018   3.009   5.269  16.848  0.0912 -0.1199 -2.8077
 3509TIP3    H232019   3.149   5.299  16.799  1.7235 -1.3741  0.7179
 3510TIP3   OH232020   5.904   0.314  12.984  0.2985 -0.2731 -0.2221
 3510TIP3    H132021   5.934   0.266  12.907  0.5345 -0.7515  0.1583
 3510TIP3    H232022   5.812   0.288  12.994  0.0981  0.2474 -0.6819
 3511TIP3   OH232023   5.161   2.693   3.868  0.2778  0.4252  0.2870
 3511TIP3    H132024   5.082   2.656   3.907  0.4213 -0.4672 -0.2472
 3511TIP3    H232025   5.228   2.683   3.935  0.3548 -0.4402  0.0812
 3512TIP3   OH232026   5.440   4.673   3.524  0.6330 -0.6176 -0.2905
 3512TIP3    H132027   5.357   4.687   3.571  0.8768  2.7081 -0.5656
 3512TIP3    H232028   5.495   4.626   3.586 -0.4232 -0.0298  1.1694
 3513TIP3   OH232029   2.049   5.175   5.351 -0.0244 -0.7989  0.2191
 3513TIP3    H132030   2.001   5.197   5.271  1.6077 -1.2759 -0.9281
 3513TIP3    H232031   1.983   5.137   5.409 -1.0784 -1.1692 -1.1873
 3514TIP3   OH232032   5.597   0.127   4.652 -0.4866  0.0541 -0.6304
 3514TIP3    H132033   5.614   0.038   4.622  0.6144 -0.2303  0.7339
 3514TIP3    H232034   5.682   0.159   4.684 -0.7274  1.8099 -1.6028
 3515TIP3   OH232035   3.642   1.600  11.633  0.4236 -0.2552  0.5362
 3515TIP3    H132036   3.679   1.676  11.677  0.5331  0.0597 -0.0906
 3515TIP3    H232037   3.696   1.589  11.554  0.1295 -0.7044  0.3949
 3516TIP3   OH232038   3.703   0.488   3.574  0.1131 -0.5435  0.1027
 3516TIP3    H132039   3.632   0.549   3.593  0.5379  0.0814 -0.3070
 3516TIP3    H232040   3.766   0.501   3.645  1.8002  1.9421 -1.7015
 3517TIP3   OH232041   1.058   6.801  14.890 -0.3719 -0.2073 -0.5256
 3517TIP3    H132042   1.148   6.833  14.895  0.2924 -2.0566  0.2881
 3517TIP3    H232043   1.029   6.796  14.981 -1.3542  0.4473 -0.7859
 3518TIP3   OH232044   1.938   1.739  16.989  0.0222  0.2563  0.2386
 3518TIP3    H132045   1.964   1.679  16.920  0.7683  1.0165 -0.1607
 3518TIP3    H232046   2.019   1.757  17.037 -0.3160  0.4530  0.7490
 3519TIP3   OH232047   4.506   1.655   3.339  0.4046 -0.4889  0.3149
 3519TIP3    H132048   4.498   1.750   3.335  2.6959 -0.0936  2.6199
 3519TIP3    H232049   4.451   1.629   3.412  0.6128 -0.7887  0.3657
 3520TIP3   OH232050   1.787   1.104  14.577 -0.3311  0.7174  0.5127
 3520TIP3    H132051   1.821   1.103  14.667  0.6271  1.1349  0.1742
 3520TIP3    H232052   1.809   1.017  14.543  1.4961  1.3503 -0.0655
 3521TIP3   OH232053   1.626   5.141   0.082  0.0302  0.7783  0.4356
 3521TIP3    H132054   1.621   5.197   0.159  0.5266  0.1503  0.9315
 3521TIP3    H232055   1.535   5.125   0.058 -0.1380  0.6501  1.1367
 3522TIP3   OH232056   5.417   2.455   4.656 -0.1133  0.0908  0.1948
 3522TIP3    H132057   5.332   2.414   4.638  0.4299 -0.5524 -1.0004
 3522TIP3    H232058   5.401   2.510   4.733 -1.5700 -0.1430  0.0881
 3523TIP3   OH232059   0.847   2.477  13.838 -0.2658  0.6719  0.1009
 3523TIP3    H132060   0.838   2.489  13.743 -1.1183  0.3190  0.1195
 3523TIP3    H232061   0.826   2.563  13.875  0.7161  0.9861 -0.0493
 3524TIP3   OH232062   6.095   5.195   1.321  0.4284 -0.1051  0.0276
 3524TIP3    H132063   6.055   5.137   1.257 -0.7329  1.8466 -1.1526
 3524TIP3    H232064   6.116   5.274   1.272  0.4435  1.0848  1.8330
 3525TIP3   OH232065   5.381   0.866   1.023  0.4598 -1.1421 -0.2031
 3525TIP3    H132066   5.384   0.849   1.117 -0.9850 -1.0805 -0.1196
 3525TIP3    H232067   5.368   0.960   1.016 -0.8807 -1.3252 -0.4094
 3526TIP3   OH232068   4.732   3.780  14.983 -0.3147 -0.0656  0.5543
 3526TIP3    H132069   4.759   3.691  14.959  0.0468 -0.0327  0.8278
 3526TIP3    H232070   4.637   3.780  14.970 -0.0884  0.1333 -1.4069
 3527TIP3   OH232071   6.181   2.570   2.400 -0.1577  0.1928  0.3334
 3527TIP3    H132072   6.140   2.497   2.448 -0.7075  0.9889  1.1095
 3527TIP3    H232073   6.241   2.609   2.463 -0.3385  0.7971  0.1374
 3528TIP3   OH232074   4.105   2.299   6.187  0.4001  0.0771 -0.9181
 3528TIP3    H132075   4.080   2.207   6.176  3.2133 -0.5467 -3.2518
 3528TIP3    H232076   4.027   2.348   6.160 -0.4248 -1.6554 -1.8854
 3529TIP3   OH232077   4.422   1.542  12.562 -0.5630  0.1878  0.1627
 3529TIP3    H132078   4.494   1.547  12.625 -1.4632  0.5410  1.1965
 3529TIP3    H232079   4.382   1.456  12.577 -0.1809 -0.1397 -0.6263
 3530TIP3   OH232080   0.632   1.306   5.706  0.1107  0.3038 -0.2332
 3530TIP3    H132081   0.560   1.273   5.760  0.8496  1.3724  1.4706
 3530TIP3    H232082   0.698   1.237   5.710  0.3261  0.5443  0.5996
 3531TIP3   OH232083   1.658   4.335   2.650  0.0431 -0.2424 -0.1168
 3531TIP3    H132084   1.565   4.347   2.670  0.3202 -0.7094  1.5438
 3531TIP3    H232085   1.686   4.262   2.705  1.3376 -0.3263 -0.8316
 3532TIP3   OH232086   3.384   6.479   1.882 -0.2118  0.4496 -0.0154
 3532TIP3    H132087   3.290   6.464   1.884 -0.4282  1.7591  0.6537
 3532TIP3    H232088   3.403   6.501   1.791 -0.6826  0.9006 -0.0101
 3533TIP3   OH232089   6.125   5.410  15.754  0.6383  0.0068 -0.5845
 3533TIP3    H132090   6.068   5.404  15.678  2.0131  0.4528 -1.6869
 3533TIP3    H232091   6.115   5.500  15.785 -1.9544 -0.8607  1.4768
 3534TIP3   OH232092   2.519   4.619   4.964  0.2961 -0.4767 -0.2313
 3534TIP3    H132093   2.574   4.686   4.922 -2.4734  0.8806 -1.9483
 3534TIP3    H232094   2.439   4.665   4.988 -1.4067 -2.9677 -0.7120
 3535TIP3   OH232095   5.180   0.518   0.732 -0.6084  0.3488 -0.9093
 3535TIP3    H132096   5.258   0.571   0.742  1.2514 -2.4519  0.7272
 3535TIP3    H232097   5.165   0.515   0.637  1.6835  0.4379 -1.3202
 3536TIP3   OH232098   0.742   1.954  11.232 -0.2544 -0.5793 -0.0502
 3536TIP3    H132099   0.761   1.968  11.325  1.0111 -2.9572  0.1349
 3536TIP3    H232100   0.820   1.909  11.199 -1.8730 -2.4691 -1.5359
 3537TIP3   OH232101   5.607   5.632  13.353 -0.2264  0.0852 -0.4381
 3537TIP3    H132102   5.702   5.637  13.357 -0.1513 -1.1441 -0.2106
 3537TIP3    H232103   5.584   5.565  13.418 -1.0023 -1.7819 -2.5046
 3538TIP3   OH232104   0.828   4.092   2.888  0.1726  0.1640 -0.0655
 3538TIP3    H132105   0.815   4.083   2.794  3.2813  0.0963 -0.5720
 3538TIP3    H232106   0.840   4.002   2.919  0.9350  0.3163  0.0886
 3539TIP3   OH232107   5.608   1.784   1.339  1.0254 -0.3729  0.4054
 3539TIP3    H132108   5.595   1.879   1.334 -0.3133 -0.4466  1.8292
 3539TIP3    H232109   5.628   1.758   1.249  0.3673  1.1197 -0.2067
 3540TIP3   OH232110   1.731   4.876  15.426  0.0340  0.1526  0.0435
 3540TIP3    H132111   1.806   4.852  15.372 -0.6606 -2.5832  0.1302
 3540TIP3    H232112   1.745   4.829  15.508  0.4695  3.2808  1.9367
 3541TIP3   OH232113   0.858   1.472  14.148  0.2190  1.0212 -0.2638
 3541TIP3    H132114   0.908   1.395  14.118 -1.2731 -0.9969  2.0080
 3541TIP3    H232115   0.917   1.515  14.211  0.4668  0.7700 -0.3193
 3542TIP3   OH232116   5.237   3.388   0.387 -0.2100 -0.5084 -0.2300
 3542TIP3    H132117   5.277   3.339   0.458  2.0594  0.6381 -0.6125
 3542TIP3    H232118   5.203   3.321   0.328 -0.0643 -1.5290  0.8082
 3543TIP3   OH232119   3.810   1.667  16.550  0.1832  0.3487  0.1550
 3543TIP3    H132120   3.868   1.738  16.576 -1.1708  0.7757  2.2063
 3543TIP3    H232121   3.724   1.709  16.540 -0.6827 -0.9705  1.6103
 3544TIP3   OH232122   1.413   3.004  15.991 -0.3123 -0.1019  0.6734
 3544TIP3    H132123   1.338   2.967  16.037 -1.1157 -0.5783 -0.9354
 3544TIP3    H232124   1.376   3.035  15.908  1.5691 -2.0568 -0.9936
 3545TIP3   OH232125   2.380   3.796   3.297  0.0510 -0.5482  0.3412
 3545TIP3    H132126   2.378   3.744   3.377 -0.1600  3.0774  2.9103
 3545TIP3    H232127   2.466   3.840   3.298 -0.0833 -0.1587 -1.2683
 3546TIP3   OH232128   2.840   4.541  13.954 -0.3548  0.7332 -0.1991
 3546TIP3    H132129   2.795   4.510  14.032 -0.8277  1.0381 -0.3498
 3546TIP3    H232130   2.925   4.571  13.985 -0.2774  0.2162  0.0953
 3547TIP3   OH232131   6.561   6.085   5.501  0.3380  0.9450 -0.5397
 3547TIP3    H132132   6.579   6.043   5.417  1.4163  1.1638 -0.4288
 3547TIP3    H232133   6.466   6.077   5.512  0.3483 -0.1708 -1.1954
 3548TIP3   OH232134   0.324   1.992   0.816 -0.0896  0.4175 -0.2773
 3548TIP3    H132135   0.327   1.928   0.887  0.0454  0.9236  0.1775
 3548TIP3    H232136   0.408   1.980   0.770 -0.3322 -0.1606 -0.5838
 3549TIP3   OH232137   6.420   5.884   1.882  0.7723  0.2472 -0.2076
 3549TIP3    H132138   6.498   5.917   1.927  0.3357  2.3232 -0.8599
 3549TIP3    H232139   6.398   5.953   1.819 -1.5820 -0.2915 -0.0622
 3550TIP3   OH232140   0.387   5.147   5.221 -0.0533 -0.1309 -0.0499
 3550TIP3    H132141   0.473   5.131   5.261 -0.0061 -0.7176 -0.3723
 3550TIP3    H232142   0.407   5.175   5.131 -0.2043 -0.8304 -0.3106
 3551TIP3   OH232143   2.657   0.416   1.642 -0.2181 -0.3158 -0.1697
 3551TIP3    H132144   2.681   0.421   1.550  0.4137  0.2921  0.0183
 3551TIP3    H232145   2.645   0.507   1.669 -0.6089 -0.4963  0.2995
 3552TIP3   OH232146   0.001   4.809   6.391  0.2583  0.6659 -0.1930
 3552TIP3    H132147   0.034   4.781   6.476  2.5485 -0.5438 -1.3918
 3552TIP3    H232148  -0.010   4.903   6.399  1.9697  0.8053  0.9849
 3553TIP3   OH232149   3.994   1.837  16.624 -0.8523  0.0014  0.2051
 3553TIP3    H132150   4.084   1.806  16.633 -1.7022 -2.7128  0.1111
 3553TIP3    H232151   3.983   1.900  16.696  1.6276  1.9214 -0.9549
 3554TIP3   OH232152   4.534   5.563   5.833  0.4896  0.2399 -0.0263
 3554TIP3    H132153   4.465   5.557   5.898  0.7577  0.2784  0.2626
 3554TIP3    H232154   4.511   5.498   5.767 -0.6707  1.3176 -0.7415
 3555TIP3   OH232155   0.221   5.858  11.576  0.1494 -0.7939  0.3441
 3555TIP3    H132156   0.181   5.838  11.492  0.7848  1.4498 -0.5753
 3555TIP3    H232157   0.308   5.892  11.554  0.5036 -0.5776  1.9205
 3556TIP3   OH232158   2.972   2.180  11.265  0.2149 -0.4552  0.8478
 3556TIP3    H132159   2.921   2.111  11.307  2.6852 -1.5223  2.3004
 3556TIP3    H232160   3.064   2.156  11.281  1.2333  1.3064 -1.6647
 3557TIP3   OH232161   3.577   6.272   0.958 -0.1377 -0.0387 -0.3919
 3557TIP3    H132162   3.537   6.282   0.872 -1.3075  0.2426  0.1632
 3557TIP3    H232163   3.503   6.276   1.020  0.6960  0.0268  0.6365
 3558TIP3   OH232164   5.662   3.205   2.583 -1.0009  0.4908  0.0169
 3558TIP3    H132165   5.696   3.128   2.537 -1.5265 -0.8991  1.8442
 3558TIP3    H232166   5.708   3.279   2.543  1.9077 -1.0239  0.2991
 3559TIP3   OH232167   0.626   1.561  14.365 -0.3210 -0.1339  0.4060
 3559TIP3    H132168   0.564   1.488  14.373 -0.4872 -0.3135 -1.7515
 3559TIP3    H232169   0.609   1.596  14.277  1.4127  0.9672  0.4700
 3560TIP3   OH232170   2.764   6.177  13.676  0.0787  0.5925  0.2625
 3560TIP3    H132171   2.804   6.142  13.755  0.7949  0.2361 -0.2358
 3560TIP3    H232172   2.767   6.105  13.613  2.2587  1.6841 -1.0303
 3561TIP3   OH232173   3.588   5.958   3.716 -0.0781 -0.4168  0.5406
 3561TIP3    H132174   3.546   5.989   3.636 -0.0407 -0.5123  0.4834
 3561TIP3    H232175   3.644   6.030   3.744 -0.4745 -0.1916  0.7570
 3562TIP3   OH232176   1.707   2.972  17.152 -0.3695 -0.4906  0.2627
 3562TIP3    H132177   1.671   2.886  17.134 -0.2044 -0.3182 -0.9624
 3562TIP3    H232178   1.707   3.017  17.068 -0.6550  0.7926  0.9107
 3563TIP3   OH232179   0.496   2.872   5.708 -0.2773  0.0222  0.2112
 3563TIP3    H132180   0.500   2.782   5.742  0.6970 -0.0700 -0.1127
 3563TIP3    H232181   0.453   2.863   5.623 -1.3824  0.0546  0.7494
 3564TIP3   OH232182   3.778   0.900   2.700  0.1003  0.0237 -0.1977
 3564TIP3    H132183   3.802   0.909   2.608  0.7076  0.3220 -0.0163
 3564TIP3    H232184   3.687   0.930   2.704  0.7571  2.2466 -0.3389
 3565TIP3   OH232185   5.987   5.201  14.142  1.0461 -0.6266  0.3042
 3565TIP3    H132186   5.962   5.294  14.137 -0.2433 -0.6654  3.3318
 3565TIP3    H232187   5.903   5.154  14.138  1.6783 -1.6901 -1.0973
 3566TIP3   OH232188   0.692   2.292  12.565 -0.7944 -0.1752  0.0660
 3566TIP3    H132189   0.723   2.233  12.634 -1.3871 -0.1109  0.3992
 3566TIP3    H232190   0.615   2.247  12.529 -0.6719 -0.0592 -0.3361
 3567TIP3   OH232191   5.324   2.410   0.301  0.2980 -0.0447  0.3001
 3567TIP3    H132192   5.387   2.471   0.264  0.3051  1.2694  2.3393
 3567TIP3    H232193   5.378   2.345   0.347  0.2377 -0.8078 -0.6726
 3568TIP3   OH232194   2.765   4.958   0.133  0.2354 -0.0799  0.3636
 3568TIP3    H132195   2.806   5.022   0.191  0.4192 -0.4969  0.6978
 3568TIP3    H232196   2.796   4.873   0.165  0.0236 -0.3347 -0.0985
 3569TIP3   OH232197   0.110   0.603   2.883 -0.4223  0.5293  0.0530
 3569TIP3    H132198   0.060   0.655   2.946  0.6659 -0.4935  1.8492
 3569TIP3    H232199   0.188   0.656   2.865 -1.3246  1.3974 -1.4923
 3570TIP3   OH232200   6.526   2.585   1.368  0.2454 -0.1430 -0.2211
 3570TIP3    H132201   6.518   2.679   1.385  0.5815 -0.2574  0.6085
 3570TIP3    H232202   6.479   2.572   1.285  0.4014  0.7914 -0.4748
 3571TIP3   OH232203   5.589   6.649   5.622 -0.2214  0.5025 -0.7020
 3571TIP3    H132204   5.518   6.594   5.590  0.0347 -0.4117  0.2320
 3571TIP3    H232205   5.655   6.645   5.552 -0.2571 -0.2919 -0.7079
 3572TIP3   OH232206   4.592   0.397   0.118 -0.5933  0.4031  0.0704
 3572TIP3    H132207   4.586   0.476   0.065 -0.5324 -0.4884 -1.3144
 3572TIP3    H232208   4.664   0.347   0.079 -0.6972 -0.3815  0.8535
 3573TIP3   OH232209   1.478   4.916   3.346  0.0996 -0.4761  0.2318
 3573TIP3    H132210   1.385   4.941   3.349  0.2964  0.2009  0.8939
 3573TIP3    H232211   1.488   4.874   3.260 -0.8705 -0.7769  0.2496
 3574TIP3   OH232212   0.403   5.796  16.435 -0.6166  0.6192  0.5048
 3574TIP3    H132213   0.347   5.740  16.382 -0.2301  0.9212 -0.2244
 3574TIP3    H232214   0.449   5.851  16.372  1.4342 -0.4463  1.0028
 3575TIP3   OH232215   0.472   0.529  11.087 -0.1955 -0.2341  0.2837
 3575TIP3    H132216   0.464   0.558  11.178  0.6545 -0.2379  0.3716
 3575TIP3    H232217   0.384   0.538  11.051  0.1999  3.7952 -0.0917
 3576TIP3   OH232218   4.765   2.146   6.035  0.2709  0.1673  0.2368
 3576TIP3    H132219   4.703   2.076   6.057  0.4565 -0.2344 -0.4930
 3576TIP3    H232220   4.846   2.101   6.015  1.1258  0.7524  2.1769
 3577TIP3   OH232221   0.498   2.727   1.751 -0.8971  0.4070 -0.4000
 3577TIP3    H132222   0.520   2.662   1.818  0.2328  0.4720 -0.6908
 3577TIP3    H232223   0.561   2.711   1.681 -1.5201  0.8993 -1.0773
 3578TIP3   OH232224   0.482   0.234   3.173  0.0967  0.1405 -0.0975
 3578TIP3    H132225   0.534   0.165   3.133 -2.2002 -2.4325  1.0389
 3578TIP3    H232226   0.425   0.266   3.103 -1.2635 -1.6611  0.1309
 3579TIP3   OH232227   4.894   5.904   5.452 -0.0299  0.4854 -0.1692
 3579TIP3    H132228   4.917   5.945   5.369  3.4670  0.5565  0.6608
 3579TIP3    H232229   4.979   5.880   5.491 -1.6400 -3.2884  1.5309
 3580TIP3   OH232230   1.637   6.766   0.927 -0.2311  0.0014 -0.1158
 3580TIP3    H132231   1.721   6.812   0.939 -0.0059  0.6906 -3.3497
 3580TIP3    H232232   1.662   6.674   0.918  0.1674  0.1770 -0.8573
 3581TIP3   OH232233   4.181   3.324   4.345 -0.0788  1.1118  0.1048
 3581TIP3    H132234   4.142   3.348   4.429  1.9335  1.9144  0.8573
 3581TIP3    H232235   4.167   3.400   4.289 -2.5874  0.1002 -0.8099
 3582TIP3   OH232236   5.001   6.505  15.772 -0.3320  0.0412 -0.1039
 3582TIP3    H132237   4.948   6.502  15.693 -1.5074 -0.6182  0.6830
 3582TIP3    H232238   5.090   6.524  15.741 -0.9227  0.6473 -1.4872
 3583TIP3   OH232239   2.149   6.140   1.256 -0.4541  0.1907 -0.0710
 3583TIP3    H132240   2.123   6.198   1.184  0.4345  0.3176 -0.3088
 3583TIP3    H232241   2.215   6.083   1.217  0.5698  0.7407  0.8254
 3584TIP3   OH232242   2.256   1.692  13.887 -0.2086 -0.1126 -0.0512
 3584TIP3    H132243   2.280   1.784  13.899 -0.8674  0.1643 -0.7896
 3584TIP3    H232244   2.268   1.653  13.973  1.1391  0.4137  0.0243
 3585TIP3   OH232245   3.013   6.041  15.002  0.1257 -0.1090 -0.2135
 3585TIP3    H132246   2.959   6.023  15.079 -1.3704 -1.0153 -1.4430
 3585TIP3    H232247   3.092   6.083  15.038 -0.9882  0.4501  1.6979
 3586TIP3   OH232248   5.537   2.067  16.332  0.2695 -0.1336 -0.3019
 3586TIP3    H132249   5.501   2.060  16.244 -1.1678 -0.4653  0.2765
 3586TIP3    H232250   5.471   2.025  16.388  1.4912 -0.6010  0.8504
 3587TIP3   OH232251   0.023   2.525   6.378  0.1943  0.3335 -0.1413
 3587TIP3    H132252  -0.051   2.484   6.333 -0.4821  0.6107  0.6797
 3587TIP3    H232253   0.045   2.463   6.448  0.9334  0.1206 -0.5527
 3588TIP3   OH232254   5.288   6.257  15.914 -0.4743 -0.0811  0.2579
 3588TIP3    H132255   5.348   6.331  15.900 -1.6892  0.6912 -1.0117
 3588TIP3    H232256   5.337   6.181  15.884 -0.1003  0.5296 -0.7078
 3589TIP3   OH232257   3.493   6.710  13.513 -0.0325  0.2190 -0.3157
 3589TIP3    H132258   3.555   6.639  13.499  0.1850  0.1641  0.8847
 3589TIP3    H232259   3.466   6.702  13.604 -1.7767  0.2771 -0.7946
 3590TIP3   OH232260   6.546   0.428   2.194  0.6129  0.3257  0.1799
 3590TIP3    H132261   6.560   0.522   2.182  1.7375  0.3648  1.6076
 3590TIP3    H232262   6.571   0.410   2.284  1.7599 -1.5851 -0.4446
 3591TIP3   OH232263   3.989   3.016   0.218  0.1531  0.1510 -0.7420
 3591TIP3    H132264   3.902   3.014   0.178 -0.5979 -1.1252  0.8376
 3591TIP3    H232265   4.040   2.953   0.167 -0.8348 -1.5768  0.2892
 3592TIP3   OH232266   5.436   6.777  12.606  0.2393  0.4948 -0.7047
 3592TIP3    H132267   5.478   6.749  12.525  0.3247 -1.9933  0.0947
 3592TIP3    H232268   5.464   6.712  12.671 -0.5693  1.8563  1.1159
 3593TIP3   OH232269   6.438   4.004   3.240 -0.1063 -0.3859 -0.0846
 3593TIP3    H132270   6.403   3.991   3.152  0.8725  0.0706 -0.5609
 3593TIP3    H232271   6.516   4.058   3.227  0.7862 -1.3725  0.9211
 3594TIP3   OH232272   6.663   5.425   2.436  0.1804 -0.8406  0.0182
 3594TIP3    H132273   6.646   5.354   2.498 -3.0343 -0.7830 -0.6243
 3594TIP3    H232274   6.621   5.396   2.355  0.2411  1.0777 -0.7347
 3595TIP3   OH232275   2.775   5.154   5.769  0.2846 -0.4973  0.6267
 3595TIP3    H132276   2.717   5.226   5.746 -0.4688 -0.9864  0.9552
 3595TIP3    H232277   2.762   5.142   5.863  2.6595  0.8896  1.2128
 3596TIP3   OH232278   1.859   2.170  13.943 -0.1737 -0.1603 -0.0072
 3596TIP3    H132279   1.793   2.110  13.977  2.2181 -2.1580  1.4791
 3596TIP3    H232280   1.871   2.144  13.852 -1.3494  0.1890 -0.2715
 3597TIP3   OH232281   4.155   3.273  17.169 -0.0391  0.3446  0.0422
 3597TIP3    H132282   4.232   3.282  17.226 -0.4388 -0.7146  0.7840
 3597TIP3    H232283   4.191   3.275  17.080  0.6118  1.9108  0.3005
 3598TIP3   OH232284   2.607   3.272   4.163  0.2184  0.2046 -0.1371
 3598TIP3    H132285   2.564   3.195   4.125 -0.2302  0.1921  0.3849
 3598TIP3    H232286   2.581   3.344   4.106 -1.1095  0.3233  0.5550
 3599TIP3   OH232287   2.087   3.734  11.149 -0.0880 -0.2817  0.2878
 3599TIP3    H132288   2.139   3.731  11.229 -1.4069  1.0350  1.2731
 3599TIP3    H232289   2.134   3.795  11.092 -0.5523  1.0119  1.2254
 3600TIP3   OH232290   0.118   3.277   4.060  0.3026  0.5337  0.5966
 3600TIP3    H132291   0.180   3.213   4.025  0.3107  0.8476  0.0236
 3600TIP3    H232292   0.125   3.352   4.001 -1.5993  0.0732 -0.3193
 3601TIP3   OH232293   5.050   0.019  14.881 -0.3333  0.2875  0.4112
 3601TIP3    H132294   5.027   0.098  14.928 -1.1959 -0.8940  2.0445
 3601TIP3    H232295   5.040   0.042  14.788 -1.3881  1.8163  0.8826
 3602TIP3   OH232296   5.004   1.213  14.862  0.1032 -0.3095 -0.1373
 3602TIP3    H132297   5.010   1.142  14.927  0.7379 -0.2438 -0.1184
 3602TIP3    H232298   5.082   1.266  14.878  0.3188 -0.3521 -1.0175
 3603TIP3   OH232299   5.257   6.273  12.115 -0.0454 -0.0403 -0.3294
 3603TIP3    H132300   5.169   6.292  12.146  0.0993  0.5962 -0.2952
 3603TIP3    H232301   5.249   6.269  12.020 -0.3625 -1.3360 -0.2681
 3604TIP3   OH232302   1.210   3.512  11.374  0.2108  0.2713  0.3088
 3604TIP3    H132303   1.232   3.602  11.348  1.4080 -0.2115 -0.4245
 3604TIP3    H232304   1.122   3.498  11.341  1.3807 -0.0663 -3.0080
 3605TIP3   OH232305   1.683   1.253   0.115 -0.2695 -0.3228 -0.1000
 3605TIP3    H132306   1.646   1.226   0.199  0.1122 -1.1570 -0.1874
 3605TIP3    H232307   1.683   1.173   0.062  0.5375 -0.0722 -0.5036
 3606TIP3   OH232308   1.093   5.481  13.171 -0.1154 -0.2444  0.2782
 3606TIP3    H132309   1.005   5.514  13.189 -0.5237 -0.8709 -0.4881
 3606TIP3    H232310   1.105   5.497  13.077  0.4596 -0.4555  0.3154
 3607TIP3   OH232311   4.461   6.504   3.059 -0.0864  0.3862  0.4901
 3607TIP3    H132312   4.547   6.470   3.080 -0.6507 -2.9303 -1.7619
 3607TIP3    H232313   4.404   6.474   3.130  0.0509 -0.3611  0.2862
 3608TIP3   OH232314   6.809   4.222   4.448  0.1290  0.5403  0.3442
 3608TIP3    H132315   6.794   4.149   4.508  3.4705 -0.3322  0.3046
 3608TIP3    H232316   6.852   4.182   4.372 -0.0306  2.2595 -0.6993
 3609TIP3   OH232317   3.518   3.462   1.601  0.1718 -0.0568  0.5143
 3609TIP3    H132318   3.434   3.430   1.633  0.7366  0.6567  2.9800
 3609TIP3    H232319   3.508   3.557   1.598  0.6426 -0.0183  0.0220
 3610TIP3   OH232320   3.483   0.989   2.757 -0.3362  0.1340 -0.0723
 3610TIP3    H132321   3.422   1.062   2.766 -0.3376  0.1304 -0.0516
 3610TIP3    H232322   3.501   0.983   2.663 -1.1256 -0.4831 -0.1952
 3611TIP3   OH232323   5.137   1.654  14.530 -0.1454 -0.6488 -0.3521
 3611TIP3    H132324   5.196   1.658  14.455 -1.1219  0.3286 -1.0946
 3611TIP3    H232325   5.092   1.570  14.521 -0.7089 -0.2574 -1.2143
 3612TIP3   OH232326   6.205   3.687   6.535  0.5012 -0.0952 -0.4193
 3612TIP3    H132327   6.264   3.707   6.463  1.6090 -0.0804  0.4616
 3612TIP3    H232328   6.237   3.739   6.608 -0.4968 -0.2281  0.1376
 3613TIP3   OH232329   1.783   1.691   2.213 -0.4388 -0.0794 -0.0967
 3613TIP3    H132330   1.766   1.784   2.229 -0.1640  0.0156 -0.3270
 3613TIP3    H232331   1.697   1.652   2.203 -0.5479  0.2369 -0.4388
 3614TIP3   OH232332   4.841   2.743   1.639  0.4256  0.2094  0.0578
 3614TIP3    H132333   4.868   2.798   1.713 -0.1024  1.1882 -0.4476
 3614TIP3    H232334   4.919   2.693   1.616  0.8754  0.6257  0.6463
 3615TIP3   OH232335   4.363   3.106   3.917  0.5163  0.0339 -0.5475
 3615TIP3    H132336   4.297   3.085   3.983  1.3673 -1.7768 -0.2420
 3615TIP3    H232337   4.415   3.027   3.908  1.0112  0.5513 -2.7266
 3616TIP3   OH232338   0.429   5.701  13.726 -0.3708 -0.1219  0.3852
 3616TIP3    H132339   0.461   5.760  13.657  1.2833 -1.6486 -0.2319
 3616TIP3    H232340   0.461   5.739  13.807  0.6731 -0.1464 -0.0028
 3617TIP3   OH232341   2.225   4.520  10.686 -0.0656 -0.3185 -0.0573
 3617TIP3    H132342   2.286   4.522  10.612 -0.6056 -0.5107 -0.5079
 3617TIP3    H232343   2.180   4.436  10.678  0.4102 -0.6944  0.9325
 3618TIP3   OH232344   0.805   5.575  10.318  0.2210 -0.4239 -0.5768
 3618TIP3    H132345   0.842   5.487  10.310 -0.4390 -0.6071 -1.8849
 3618TIP3    H232346   0.878   5.634  10.300  0.3635 -0.7363 -1.0245
 3619TIP3   OH232347   3.223   3.548  10.948  0.4536 -0.5674  0.2846
 3619TIP3    H132348   3.241   3.630  10.903  0.3474 -0.4978  0.3709
 3619TIP3    H232349   3.144   3.564  10.998 -0.6127 -1.2558 -1.1118
 3620TIP3   OH232350   2.178   5.857   3.933  0.4505 -0.1611 -0.2028
 3620TIP3    H132351   2.147   5.903   4.011  1.3298 -1.8037  1.1845
 3620TIP3    H232352   2.106   5.863   3.871  0.3821  2.6823  0.0363
 3621TIP3   OH232353   2.251   5.444  16.328  0.9765  1.0618 -0.1391
 3621TIP3    H132354   2.163   5.474  16.347  1.7640  2.0941  2.2956
 3621TIP3    H232355   2.265   5.371  16.389  1.3118 -0.0855 -1.5426
 3622TIP3   OH232356   6.609   6.788  14.832  0.2467 -0.3267  0.3440
 3622TIP3    H132357   6.514   6.780  14.843  0.0367  1.2813 -0.0810
 3622TIP3    H232358   6.638   6.700  14.807 -1.0779 -0.9170  0.7996
 3623TIP3   OH232359   6.625   2.405   2.489  0.1442 -0.7609 -0.0248
 3623TIP3    H132360   6.601   2.458   2.564 -2.0131  0.0304 -1.1966
 3623TIP3    H232361   6.586   2.319   2.506 -2.0508 -0.0333 -1.0345
 3624TIP3   OH232362   1.828   6.702   3.237  0.7594  0.0950 -0.7402
 3624TIP3    H132363   1.859   6.745   3.157  0.5586 -0.0598 -0.9002
 3624TIP3    H232364   1.836   6.609   3.218  1.6031  0.0525 -0.2382
 3625TIP3   OH232365   3.434   2.488   2.294 -0.3348 -0.7272  0.3500
 3625TIP3    H132366   3.418   2.583   2.302 -0.2771 -0.6777 -0.1313
 3625TIP3    H232367   3.460   2.461   2.382  0.7499 -0.0914  0.2375
 3626TIP3   OH232368   4.954   0.411   1.784 -0.0082  0.1110  0.0386
 3626TIP3    H132369   4.902   0.332   1.769 -1.2045  0.7117  0.7689
 3626TIP3    H232370   4.894   0.483   1.761  0.5201  0.8264  0.8210
 3627TIP3   OH232371   2.140   2.767   1.883  0.2355 -0.4024 -0.4422
 3627TIP3    H132372   2.140   2.754   1.978 -0.7188  0.7687 -0.2459
 3627TIP3    H232373   2.047   2.764   1.858  0.5238 -1.5177 -1.4801
 3628TIP3   OH232374   1.101   2.600   3.686 -0.3254 -0.0841  0.1630
 3628TIP3    H132375   1.059   2.533   3.739  0.4502  0.5288  1.6260
 3628TIP3    H232376   1.048   2.606   3.607 -1.0899 -1.5597  0.5366
 3629TIP3   OH232377   4.104   1.662   0.163 -0.0032  0.3645  0.1622
 3629TIP3    H132378   4.045   1.599   0.121  0.2594 -0.1272  0.5214
 3629TIP3    H232379   4.075   1.747   0.131  0.6275 -0.0382 -1.5806
 3630TIP3   OH232380   3.794   1.062  14.864  0.0852 -0.1020 -0.6507
 3630TIP3    H132381   3.814   1.020  14.780  0.8311 -0.0801 -0.4958
 3630TIP3    H232382   3.866   1.125  14.876  0.0373 -0.1772  0.0527
 3631TIP3   OH232383   4.980   3.704  16.921 -0.0364 -0.0727  0.2073
 3631TIP3    H132384   4.943   3.781  16.880  0.2697 -0.3633 -0.6363
 3631TIP3    H232385   4.913   3.675  16.983 -0.3318  0.6070  0.2148
 3632TIP3   OH232386   0.422   1.406  11.723  0.2439 -0.1290  0.8162
 3632TIP3    H132387   0.378   1.427  11.640  0.7101  0.0578  0.6188
 3632TIP3    H232388   0.360   1.348  11.768 -0.1975  0.1086  0.5256
 3633TIP3   OH232389   0.488   0.389   4.094 -0.2976  0.1867  0.3783
 3633TIP3    H132390   0.529   0.456   4.148 -1.6787  0.9082  0.5625
 3633TIP3    H232391   0.440   0.437   4.026 -2.3750 -0.4935  1.2649
 3634TIP3   OH232392   4.099   4.741   4.185 -0.1680  0.4902  0.3571
 3634TIP3    H132393   4.060   4.723   4.099  0.2635 -0.0021  0.2636
 3634TIP3    H232394   4.167   4.674   4.196 -0.3363  0.4396  1.1607
 3635TIP3   OH232395   6.647   6.256   3.596  0.0156  0.5421 -0.9034
 3635TIP3    H132396   6.610   6.265   3.508 -0.8964  0.7490 -0.5058
 3635TIP3    H232397   6.742   6.263   3.582 -0.1215  0.7454 -1.8422
 3636TIP3   OH232398   2.268   1.848  10.197  0.0425 -0.2620  0.4324
 3636TIP3    H132399   2.243   1.872  10.108  1.7060  0.1690  0.0516
 3636TIP3    H232400   2.291   1.931  10.239  0.5806 -0.6071  0.8319
 3637TIP3   OH232401   1.146   3.735  16.388 -0.1486 -0.3483  0.0275
 3637TIP3    H132402   1.195   3.682  16.450  0.4684  0.3479  0.1603
 3637TIP3    H232403   1.058   3.696  16.385 -0.3646 -0.0471  1.7766
 3638TIP3   OH232404   4.511   2.708  12.120  0.2349 -0.2521 -0.2156
 3638TIP3    H132405   4.564   2.776  12.078  1.1577 -0.9868 -0.2491
 3638TIP3    H232406   4.562   2.682  12.197 -0.9873  0.3992  0.8522
 3639TIP3   OH232407   4.413   5.489  11.034  0.4498  0.2079 -0.1493
 3639TIP3    H132408   4.445   5.578  11.049 -2.2131  1.1421  0.6339
 3639TIP3    H232409   4.342   5.500  10.971 -0.5116 -1.1959  0.6368
 3640TIP3   OH232410   1.489   5.820  15.332 -0.9755  0.7569 -0.1773
 3640TIP3    H132411   1.535   5.892  15.374  1.7689  0.4536 -2.3634
 3640TIP3    H232412   1.548   5.745  15.342 -1.2596  0.1524 -2.4385
 3641TIP3   OH232413   1.627   5.549   2.786 -0.0043  0.2838  0.1436
 3641TIP3    H132414   1.636   5.588   2.699 -0.0086  1.9235  0.8422
 3641TIP3    H232415   1.550   5.492   2.779  1.8485 -2.2687 -1.8013
 3642TIP3   OH232416   3.705   1.586  16.065 -0.1460 -0.0630 -0.1082
 3642TIP3    H132417   3.730   1.572  16.157 -3.6412 -2.5156  0.6733
 3642TIP3    H232418   3.720   1.680  16.051  1.3501  0.2373  2.6275
 3643TIP3   OH232419   0.857   1.605   3.794 -0.5273 -0.3022 -0.2768
 3643TIP3    H132420   0.943   1.586   3.832  0.3064  0.0804 -1.9038
 3643TIP3    H232421   0.862   1.572   3.705 -1.5246  1.1021 -0.8848
 3644TIP3   OH232422   6.539   6.558  10.384 -0.3779  0.5405 -0.1052
 3644TIP3    H132423   6.621   6.531  10.343 -0.3216  1.8906 -0.9431
 3644TIP3    H232424   6.565   6.608  10.461 -0.4573 -0.1791  0.4045
 3645TIP3   OH232425   6.617   0.720   5.595  0.9055  0.0936 -0.6649
 3645TIP3    H132426   6.616   0.644   5.537  0.1988 -0.7976  0.4708
 3645TIP3    H232427   6.659   0.689   5.675  0.5756  0.8864 -0.1726
 3646TIP3   OH232428   6.270   0.189  11.834 -0.2718  0.8151  0.3516
 3646TIP3    H132429   6.334   0.226  11.896  1.3128  0.8320 -1.2204
 3646TIP3    H232430   6.284   0.238  11.753 -3.4549  1.9495  0.3410
 3647TIP3   OH232431   0.760   0.592   0.899  0.1961 -0.2003 -0.6496
 3647TIP3    H132432   0.826   0.656   0.928  0.0564 -1.3103  2.5367
 3647TIP3    H232433   0.705   0.640   0.837  1.7769  1.8665 -0.5514
 3648TIP3   OH232434   4.643   4.665  11.999  0.4825  0.0754 -0.3920
 3648TIP3    H132435   4.679   4.663  12.087 -0.9750 -1.7092  0.2413
 3648TIP3    H232436   4.587   4.588  11.995 -1.4045  1.4410 -2.0707
 3649TIP3   OH232437   6.462   0.696  15.435  0.4679  0.0921  0.3239
 3649TIP3    H132438   6.480   0.687  15.528 -0.1389  0.4902  0.4826
 3649TIP3    H232439   6.389   0.758  15.430  0.1995 -0.2654 -0.3888
 3650TIP3   OH232440   4.020   0.494   0.407 -0.1761 -0.5247  0.1301
 3650TIP3    H132441   4.080   0.474   0.480  0.5530 -0.9340 -0.5583
 3650TIP3    H232442   4.064   0.564   0.359  0.9984 -2.4238 -1.7546
 3651TIP3   OH232443   6.365   2.345  15.520 -0.2093 -0.0234  0.2747
 3651TIP3    H132444   6.377   2.250  15.509 -1.2564 -0.0021 -1.3980
 3651TIP3    H232445   6.281   2.363  15.479  1.0039  1.9768 -1.4760
 3652TIP3   OH232446   6.590   0.993  14.687  0.0406  0.3032 -0.1468
 3652TIP3    H132447   6.514   1.027  14.734 -0.5633  0.7569 -1.4295
 3652TIP3    H232448   6.554   0.948  14.611  0.9143 -1.7719  0.5917
 3653TIP3   OH232449   6.324   1.185  15.905  0.3084 -0.4734  0.0680
 3653TIP3    H132450   6.287   1.106  15.866  0.2758 -0.0620 -0.7728
 3653TIP3    H232451   6.403   1.155  15.951  0.2230 -1.0111 -0.1272
 3654TIP3   OH232452   0.717   6.456   5.372 -0.5984 -0.5318  0.0721
 3654TIP3    H132453   0.672   6.491   5.449  1.0918 -0.5003  1.1029
 3654TIP3    H232454   0.748   6.533   5.325 -0.0931 -0.5588  0.3456
 3655TIP3   OH232455   0.141   5.607  11.438  0.2397 -0.6243  0.5448
 3655TIP3    H132456   0.183   5.527  11.403 -1.8681 -0.6917 -2.1456
 3655TIP3    H232457   0.067   5.574  11.490 -1.0286 -0.4914 -1.1110
 3656TIP3   OH232458   0.986   4.735  14.392 -0.6638 -0.4148 -0.0771
 3656TIP3    H132459   0.894   4.744  14.417 -0.4989  1.3482  0.0157
 3656TIP3    H232460   0.993   4.647  14.357 -2.1580 -0.9434  0.8735
 3657TIP3   OH232461   0.469   5.228   4.963 -0.1684 -0.3308 -0.3107
 3657TIP3    H132462   0.401   5.198   4.902 -1.0253  1.0785 -0.0777
 3657TIP3    H232463   0.453   5.322   4.973  1.2537 -0.1459  0.4750
 3658TIP3   OH232464   5.498   4.790  11.579  0.1329  0.1631 -0.2074
 3658TIP3    H132465   5.415   4.757  11.543 -0.3085  0.6628  0.3265
 3658TIP3    H232466   5.513   4.735  11.657 -0.6467  1.2340  0.7324
 3659TIP3   OH232467   4.891   3.128   5.308 -0.1360  0.4431 -0.3331
 3659TIP3    H132468   4.889   3.209   5.256  0.7391  0.1326 -0.8671
 3659TIP3    H232469   4.975   3.130   5.352 -0.4981  0.2562  0.3713
 3660TIP3   OH232470   2.860   6.689  15.859 -0.0314 -0.3749  0.0012
 3660TIP3    H132471   2.892   6.650  15.777  0.5728 -0.2505  0.1762
 3660TIP3    H232472   2.765   6.678  15.854  0.0901 -1.4833 -0.1459
 3661TIP3   OH232473   0.135   5.929   0.232  0.5752 -0.1254  0.0909
 3661TIP3    H132474   0.136   5.962   0.142  1.3046  0.8595  0.4438
 3661TIP3    H232475   0.042   5.925   0.255  0.4340  0.9736 -0.2308
 3662TIP3   OH232476   0.208   2.723   0.668 -0.5724 -0.6139  0.5156
 3662TIP3    H132477   0.200   2.680   0.582  1.7536 -0.6411  0.2277
 3662TIP3    H232478   0.272   2.669   0.715 -0.1389  0.6586  1.4210
 3663TIP3   OH232479   6.400   0.864   5.234 -0.4242 -0.0474 -0.7548
 3663TIP3    H132480   6.365   0.798   5.174  2.3382 -1.6170 -0.8091
 3663TIP3    H232481   6.487   0.831   5.258 -1.0645  0.8221  3.6092
 3664TIP3   OH232482   6.530   3.378   0.687 -0.5478  0.1463  0.8174
 3664TIP3    H132483   6.493   3.324   0.617 -0.7092  0.3513  0.7398
 3664TIP3    H232484   6.453   3.413   0.733 -0.4812  1.1325  0.2261
 3665TIP3   OH232485   0.747   2.785  11.975  0.5663  0.3239 -0.2784
 3665TIP3    H132486   0.707   2.744  11.898  0.9775  1.6289 -1.2108
 3665TIP3    H232487   0.673   2.817  12.026  0.3069 -0.1917 -0.3202
 3666TIP3   OH232488   5.910   0.882   1.455 -0.2039  0.0858 -0.5046
 3666TIP3    H132489   5.913   0.932   1.373  0.2196 -0.2500 -0.6994
 3666TIP3    H232490   5.841   0.924   1.506 -0.8287 -0.0215 -1.2413
 3667TIP3   OH232491   0.786   1.181   5.177  0.2978  0.3369  0.2955
 3667TIP3    H132492   0.858   1.240   5.196  0.6350  0.1241 -0.2850
 3667TIP3    H232493   0.798   1.157   5.085  1.2135 -2.0291  0.9542
 3668TIP3   OH232494   4.667   1.995  14.042  0.1311 -0.0834 -0.7869
 3668TIP3    H132495   4.707   1.926  14.095  1.1658 -0.6202 -2.1792
 3668TIP3    H232496   4.591   2.023  14.092 -1.2062 -3.2597 -0.8239
 3669TIP3   OH232497   2.790   1.764  10.433 -0.2653  0.5061  0.1285
 3669TIP3    H132498   2.805   1.821  10.509 -1.3518 -0.9885  1.5411
 3669TIP3    H232499   2.861   1.700  10.438 -0.7100  0.0149  0.3063
 3670TIP3   OH232500   1.152   3.653   3.234 -0.1568  0.4515  0.0702
 3670TIP3    H132501   1.152   3.566   3.274 -0.2389 -0.3390 -1.5838
 3670TIP3    H232502   1.166   3.713   3.307  1.3858 -1.0304  1.0598
 3671TIP3   OH232503   3.325   3.125   0.227  0.4713 -0.6860  0.2704
 3671TIP3    H132504   3.240   3.089   0.203  0.2602 -0.0852  0.0980
 3671TIP3    H232505   3.309   3.218   0.241  1.1520 -0.5066 -0.0639
 3672TIP3   OH232506   1.012   1.513   1.864  0.1709 -0.5144 -0.2099
 3672TIP3    H132507   1.090   1.508   1.919  0.4044  1.4768 -0.2818
 3672TIP3    H232508   0.939   1.520   1.926  0.2518 -0.3501 -0.1308
 3673TIP3   OH232509   3.562   6.643   0.520 -0.0955  0.0952  0.5249
 3673TIP3    H132510   3.477   6.651   0.477  1.5334  0.7328 -2.8447
 3673TIP3    H232511   3.588   6.552   0.506  0.6888  0.4470 -0.4313
 3674TIP3   OH232512   3.038   4.749  14.426  0.0993 -0.6456  0.0018
 3674TIP3    H132513   3.090   4.805  14.368  1.0236 -1.0415  0.4146
 3674TIP3    H232514   3.104   4.697  14.473 -0.6997 -1.4177  0.2878
 3675TIP3   OH232515   5.017   1.071   4.633 -1.4295  0.0501 -0.8390
 3675TIP3    H132516   5.034   1.151   4.583  1.4472  0.1690  0.1316
 3675TIP3    H232517   5.032   1.001   4.570  4.5545  0.0868 -0.0183
 3676TIP3   OH232518   3.672   3.785   3.855 -0.1451  0.6626  0.2425
 3676TIP3    H132519   3.652   3.725   3.928 -0.9421 -0.4888 -0.8797
 3676TIP3    H232520   3.616   3.755   3.784 -0.5032  2.7208 -0.4038
 3677TIP3   OH232521   4.350   4.847  11.645  0.5432 -0.2734 -0.3678
 3677TIP3    H132522   4.283   4.818  11.582 -0.7539  3.2724 -0.8684
 3677TIP3    H232523   4.325   4.804  11.727 -1.4946 -0.1825 -0.8870
 3678TIP3   OH232524   1.046   3.802  16.736  0.4507 -0.0660  0.0772
 3678TIP3    H132525   1.140   3.821  16.740  0.1334  1.4880  1.2115
 3678TIP3    H232526   1.015   3.851  16.660  0.8272 -2.1625 -1.5237
 3679TIP3   OH232527   0.920   2.997  10.472  0.2659  0.5482 -0.3373
 3679TIP3    H132528   0.846   2.973  10.417  1.0850  1.8816 -2.1205
 3679TIP3    H232529   0.881   3.031  10.552 -1.0526  1.0646 -1.1716
 3680TIP3   OH232530   5.480   3.475   4.296  0.0952 -0.5271  0.2833
 3680TIP3    H132531   5.472   3.545   4.232 -0.0147 -0.5355  0.2880
 3680TIP3    H232532   5.474   3.394   4.245 -0.3390 -0.5366  0.3425
 3681TIP3   OH232533   5.380   1.431   3.829  0.1478  0.1377 -0.4317
 3681TIP3    H132534   5.431   1.370   3.882 -0.9896  0.1977  0.7991
 3681TIP3    H232535   5.410   1.417   3.740  0.2737 -1.8675 -0.1178
 3682TIP3   OH232536   0.543   5.940  16.236  0.4684  0.7782 -0.2109
 3682TIP3    H132537   0.480   5.929  16.165  0.2560 -0.0710  0.0921
 3682TIP3    H232538   0.628   5.945  16.192  0.2286  1.5807 -0.5956
 3683TIP3   OH232539   2.007   3.229   4.655  0.0346 -0.0461 -0.6805
 3683TIP3    H132540   2.001   3.203   4.747 -1.1175 -2.3406 -1.3070
 3683TIP3    H232541   1.930   3.284   4.641 -0.5143 -0.7613 -0.5460
 3684TIP3   OH232542   4.578   0.313  13.571 -0.1756  0.0265  0.0593
 3684TIP3    H132543   4.530   0.314  13.653 -0.9447  0.0304 -0.3824
 3684TIP3    H232544   4.534   0.379  13.516  1.4037  1.2978  0.2345
 3685TIP3   OH232545   0.515   4.185  15.236  0.5961 -0.0386 -0.2978
 3685TIP3    H132546   0.602   4.162  15.269  0.3879 -1.8660 -0.8821
 3685TIP3    H232547   0.509   4.140  15.151 -0.7377  0.4607 -0.4957
 3686TIP3   OH232548   3.269   4.966  16.950 -0.3139 -0.2149  0.4013
 3686TIP3    H132549   3.299   4.937  17.036  0.1555 -1.2638 -0.1002
 3686TIP3    H232550   3.182   4.928  16.940  0.9372 -2.9821 -0.9318
 3687TIP3   OH232551   1.748   1.101   2.898  0.0862  0.3759 -0.0208
 3687TIP3    H132552   1.762   1.148   2.815 -0.5928  2.8232  1.1659
 3687TIP3    H232553   1.664   1.056   2.886 -0.1806  0.9950 -0.5356
 3688TIP3   OH232554   1.991   2.306   4.092 -0.0146 -0.6072  0.5425
 3688TIP3    H132555   1.971   2.301   3.998 -0.0504  0.4017  0.4834
 3688TIP3    H232556   2.025   2.219   4.114  1.8452 -0.2858 -0.8394
 3689TIP3   OH232557   6.815   4.577   2.429  0.2773  0.0934  0.2618
 3689TIP3    H132558   6.755   4.614   2.364 -0.0097  0.5893  0.7952
 3689TIP3    H232559   6.823   4.485   2.404  3.0821  0.9538 -2.6930
 3690TIP3   OH232560   3.277   2.404   5.049  0.0537 -0.0239 -0.5459
 3690TIP3    H132561   3.262   2.494   5.020 -0.1055  0.6045  1.3690
 3690TIP3    H232562   3.281   2.354   4.968 -1.6198  1.4224 -1.6072
 3691TIP3   OH232563   0.269   1.357   4.907 -0.1157  0.3202 -0.6271
 3691TIP3    H132564   0.229   1.303   4.975 -1.5882  0.3310 -1.4600
 3691TIP3    H232565   0.196   1.400   4.863  0.9193  1.7322 -1.0596
 3692TIP3   OH232566   2.165   5.055  16.852  0.5047 -0.3516  0.1436
 3692TIP3    H132567   2.257   5.071  16.872  0.4956  0.8503 -0.6522
 3692TIP3    H232568   2.121   5.058  16.937  1.1925 -0.9623  0.5342
 3693TIP3   OH232569   4.429   2.980  17.217  1.1201  0.0772  0.5578
 3693TIP3    H132570   4.505   2.974  17.159  1.1499 -0.1934  0.6266
 3693TIP3    H232571   4.452   2.927  17.293  0.9767  0.2255  0.7057
 3694TIP3   OH232572   0.895   2.321  16.333 -0.1344  0.0941  0.1854
 3694TIP3    H132573   0.930   2.236  16.304 -0.5959  0.2934 -1.0349
 3694TIP3    H232574   0.972   2.375  16.347  0.1153  0.2471 -1.5871
 3695TIP3   OH232575   3.595   2.937   5.533  0.0712 -0.1186 -0.3234
 3695TIP3    H132576   3.617   2.989   5.610 -3.0731  3.4436 -1.5141
 3695TIP3    H232577   3.663   2.957   5.469  1.3017 -1.0829  0.6466
 3696TIP3   OH232578   6.131   6.196   4.690  0.0049 -0.0613 -0.8806
 3696TIP3    H132579   6.159   6.148   4.612  1.6746 -1.2877  0.3934
 3696TIP3    H232580   6.104   6.127   4.751  1.1074  0.6666  0.4908
 3697TIP3   OH232581   1.571   2.814  13.344 -0.3073 -0.3669  0.1715
 3697TIP3    H132582   1.559   2.719  13.343 -1.6164 -0.2186  0.2955
 3697TIP3    H232583   1.498   2.848  13.292  0.6447  0.5422 -0.6319
 3698TIP3   OH232584   2.558   0.641  11.141 -0.3597 -0.0247  0.2285
 3698TIP3    H132585   2.589   0.697  11.213  1.3457 -1.5261  0.7271
 3698TIP3    H232586   2.501   0.699  11.089 -0.0020  1.6792  1.6212
 3699TIP3   OH232587   0.204   5.552   5.342 -0.1806 -0.5435 -0.8797
 3699TIP3    H132588   0.268   5.496   5.300  0.4168  0.6329 -1.5904
 3699TIP3    H232589   0.245   5.639   5.344  0.3771 -0.6805  3.2252
 3700TIP3   OH232590   6.821   3.101   0.549 -0.1353 -0.3805  0.2619
 3700TIP3    H132591   6.846   3.028   0.605 -2.6077 -1.9727 -0.5656
 3700TIP3    H232592   6.819   3.177   0.607  0.0730 -1.4489  1.6941
 3701TIP3   OH232593   1.800   1.937  14.510  0.7947 -0.1351 -0.0400
 3701TIP3    H132594   1.815   1.859  14.457  0.5722 -0.2118  0.0094
 3701TIP3    H232595   1.721   1.917  14.560  1.0708 -0.1065  0.4081
 3702TIP3   OH232596   3.393   2.876  13.892 -0.5191 -0.3695 -0.3165
 3702TIP3    H132597   3.389   2.957  13.943  0.6327 -0.5287  0.0465
 3702TIP3    H232598   3.349   2.897  13.810 -0.6404  0.4792 -0.0411
 3703TIP3   OH232599   3.483   2.313  13.712 -0.5656  0.1993 -0.5632
 3703TIP3    H132600   3.512   2.298  13.801  1.0939  0.5860 -1.0049
 3703TIP3    H232601   3.508   2.404  13.694 -1.6582  0.4030 -1.1458
 3704TIP3   OH232602   1.919   1.505   0.380 -0.9645  0.2168 -0.6807
 3704TIP3    H132603   1.894   1.493   0.288  0.0753 -0.0143 -0.9537
 3704TIP3    H232604   1.947   1.419   0.409  2.3299  0.9128 -1.3247
 3705TIP3   OH232605   3.302   6.724   3.497 -0.0621  0.0240 -0.5019
 3705TIP3    H132606   3.318   6.665   3.424 -0.8802  1.1513 -1.6192
 3705TIP3    H232607   3.372   6.704   3.560 -0.4265 -2.2397 -0.7556
 3706TIP3   OH232608   2.717   1.403   1.296  0.0151 -0.4400  0.7449
 3706TIP3    H132609   2.771   1.434   1.370 -0.2568  0.0959  0.7222
 3706TIP3    H232610   2.778   1.354   1.241  0.2642 -0.6773  1.2261
 3707TIP3   OH232611   5.219   6.275   3.016  0.4781 -0.3760  0.1203
 3707TIP3    H132612   5.291   6.304   3.072  1.1814 -1.4076 -0.2242
 3707TIP3    H232613   5.260   6.217   2.952 -1.0303 -3.4617  1.7333
 3708TIP3   OH232614   5.442   0.352   1.606 -0.0664 -0.4492 -0.6653
 3708TIP3    H132615   5.535   0.334   1.621 -0.3498 -0.5692  1.1655
 3708TIP3    H232616   5.425   0.435   1.649 -1.1748 -1.2917  0.6141
 3709TIP3   OH232617   4.887   1.253   6.082  0.1589  0.4294 -0.3351
 3709TIP3    H132618   4.852   1.266   6.170 -1.5002  3.5054 -1.3355
 3709TIP3    H232619   4.864   1.162   6.061 -2.8434  0.7619  1.0074
 3710TIP3   OH232620   1.104   6.571   5.382 -0.3146  0.2768  0.5345
 3710TIP3    H132621   1.147   6.646   5.341  1.0022 -0.7342  0.0081
 3710TIP3    H232622   1.016   6.602   5.402  0.0687  1.8228 -0.0651
 3711TIP3   OH232623   6.742   2.738   4.632 -0.3201  0.0294  0.2243
 3711TIP3    H132624   6.774   2.695   4.553 -0.6908  0.9012 -0.4105
 3711TIP3    H232625   6.647   2.724   4.631 -0.2528 -0.5578  0.8929
 3712TIP3   OH232626   4.417   3.093  13.202  0.1535  0.6265 -0.9628
 3712TIP3    H132627   4.404   3.180  13.166 -3.2205  1.0555  0.8721
 3712TIP3    H232628   4.397   3.033  13.130  0.6432  1.3421 -1.7082
 3713TIP3   OH232629   0.014   1.185   2.432 -0.1907 -0.6073 -0.3455
 3713TIP3    H132630  -0.014   1.134   2.508  2.0638  0.4999  1.3677
 3713TIP3    H232631   0.095   1.141   2.403  1.2661  1.3264  0.5787
 3714TIP3   OH232632   4.842   5.498  16.553 -0.6412 -0.2673  0.2351
 3714TIP3    H132633   4.768   5.445  16.522 -1.2080  0.1766  0.7929
 3714TIP3    H232634   4.919   5.442  16.541 -1.3591 -1.7390  2.0128
 3715TIP3   OH232635   1.247   5.747  16.819 -0.8243 -0.2186 -0.0927
 3715TIP3    H132636   1.330   5.700  16.813 -0.2908  0.6536  0.1847
 3715TIP3    H232637   1.239   5.770  16.912 -1.8003 -1.0252  0.0356
 3716TIP3   OH232638   1.574   2.362   0.036 -0.0924  0.4774  0.3943
 3716TIP3    H132639   1.515   2.287   0.027  0.6522 -0.0045 -0.7538
 3716TIP3    H232640   1.526   2.435  -0.001 -0.6871  0.5092  1.1972
 3717TIP3   OH232641   3.187   5.646  14.042 -0.4043 -0.4299 -0.7866
 3717TIP3    H132642   3.136   5.686  14.113  0.0565 -1.2670  0.0387
 3717TIP3    H232643   3.265   5.700  14.035 -1.1430  0.5621 -1.7178
 3718TIP3   OH232644   2.021   3.178  13.069  0.1966 -0.5899 -0.5487
 3718TIP3    H132645   2.009   3.083  13.067  1.5582 -0.7967 -0.3736
 3718TIP3    H232646   2.012   3.201  13.162  1.1015 -0.7473 -0.4135
 3719TIP3   OH232647   4.555   0.555   1.439  0.0526  0.3400  0.3111
 3719TIP3    H132648   4.470   0.529   1.475  0.4601 -0.7327  0.5414
 3719TIP3    H232649   4.534   0.590   1.353 -0.5071 -1.4069 -0.3164
 3720TIP3   OH232650   6.224   0.253   6.551  0.5133  0.1141 -0.1476
 3720TIP3    H132651   6.306   0.301   6.538  0.7977 -0.7651 -1.7743
 3720TIP3    H232652   6.245   0.163   6.528 -0.7014 -0.2830  0.2437
 3721TIP3   OH232653   3.983   6.086  14.812  0.1085 -0.2629  0.5897
 3721TIP3    H132654   4.032   6.056  14.736 -0.5322 -0.2869  0.1743
 3721TIP3    H232655   4.018   6.173  14.830 -0.0300 -0.0765 -0.0111
 3722TIP3   OH232656   1.104   2.594  12.373 -0.0653  0.5037  0.2069
 3722TIP3    H132657   1.134   2.551  12.453  0.3761 -0.6669 -0.5452
 3722TIP3    H232658   1.174   2.654  12.349  0.1807  0.2365  0.2550
 3723TIP3   OH232659   4.921   2.724  13.171 -0.4331  0.3385  0.0195
 3723TIP3    H132660   4.900   2.816  13.184 -0.6830  0.2164  0.5204
 3723TIP3    H232661   4.959   2.720  13.083  0.5800  1.0798  0.4064
 3724TIP3   OH232662   3.063   3.215   3.249  0.3045  0.3688 -0.1035
 3724TIP3    H132663   2.980   3.233   3.293 -0.0699 -2.8280  0.8018
 3724TIP3    H232664   3.122   3.186   3.319  0.9290 -1.0675 -1.1560
 3725TIP3   OH232665   1.674   3.648   5.871 -0.2258 -0.8211  0.0649
 3725TIP3    H132666   1.588   3.660   5.913 -0.3279  1.0689 -0.5691
 3725TIP3    H232667   1.737   3.663   5.941 -0.4069  1.4892 -0.1733
 3726TIP3   OH232668   2.914   6.502  15.634 -0.0585  0.2527  0.0329
 3726TIP3    H132669   2.934   6.453  15.554 -1.5293 -0.3800  0.0357
 3726TIP3    H232670   2.836   6.461  15.669  0.4994  0.5831  1.7724
 3727TIP3   OH232671   4.516   2.645   3.087  0.3785  0.8130  0.2102
 3727TIP3    H132672   4.512   2.731   3.129  0.9882 -0.1253  2.3161
 3727TIP3    H232673   4.451   2.593   3.133  1.4751 -0.4340  0.3924
 3728TIP3   OH232674   4.473   3.813  14.988  0.5341  0.0849  0.0974
 3728TIP3    H132675   4.411   3.742  15.006  0.0310  0.5013  0.0231
 3728TIP3    H232676   4.458   3.877  15.057  1.0897  0.0591  0.2497
 3729TIP3   OH232677   2.273   2.947  12.435 -0.1266  0.0939  0.7385
 3729TIP3    H132678   2.245   2.890  12.508 -2.3402 -1.8310 -1.4181
 3729TIP3    H232679   2.209   2.929  12.366  3.2432 -0.1257 -2.6270
 3730TIP3   OH232680   2.991   3.595  14.195 -0.4592  0.0651 -0.7045
 3730TIP3    H132681   2.903   3.591  14.232  0.6018  0.3995  2.1387
 3730TIP3    H232682   3.020   3.685  14.212  1.1333 -0.6044  0.3156
 3731TIP3   OH232683   6.457   6.331  14.758 -0.0960  0.3494  0.0053
 3731TIP3    H132684   6.386   6.342  14.821  1.6021 -0.6165  2.1855
 3731TIP3    H232685   6.412   6.315  14.675 -2.4158  0.7360  1.1058
 3732TIP3   OH232686   0.686   0.002   3.140 -0.1128  0.1722  0.1204
 3732TIP3    H132687   0.774   0.038   3.154 -1.3944  3.6492  0.2747
 3732TIP3    H232688   0.653  -0.018   3.227  0.2844 -0.6233  0.1002
 3733TIP3   OH232689   1.974   4.690  16.132  0.2575 -0.3977 -0.4125
 3733TIP3    H132690   1.981   4.772  16.181  1.5280 -0.2983 -0.7265
 3733TIP3    H232691   1.975   4.717  16.040 -2.3934 -0.5596 -0.5786
 3734TIP3   OH232692   5.919   5.239   1.525  0.0924 -0.0750 -0.1382
 3734TIP3    H132693   5.995   5.206   1.476  1.0486  1.1790  0.4533
 3734TIP3    H232694   5.929   5.334   1.524 -1.5407  0.1162 -0.1310
 3735TIP3   OH232695   1.716   3.002   1.288  0.0429 -0.2424  0.0184
 3735TIP3    H132696   1.709   3.040   1.376 -0.3679 -0.7379  0.2068
 3735TIP3    H232697   1.809   2.983   1.277  0.6054  2.6474 -0.8725
 3736TIP3   OH232698   6.796   1.384   2.922  0.1374  0.1075  0.1815
 3736TIP3    H132699   6.711   1.362   2.960  0.2649 -3.3959 -1.2151
 3736TIP3    H232700   6.780   1.389   2.828  1.6207 -1.8410 -0.2350
 3737TIP3   OH232701   2.594   2.706  13.952  0.4497  0.1944 -0.6005
 3737TIP3    H132702   2.518   2.656  13.980  0.6812 -0.6087 -1.3397
 3737TIP3    H232703   2.667   2.644  13.957  1.1915  1.1269  0.7193
 3738TIP3   OH232704   4.489   0.293  15.368  0.1924 -0.2638  0.2247
 3738TIP3    H132705   4.465   0.232  15.438 -1.8594 -1.3556 -1.3334
 3738TIP3    H232706   4.411   0.346  15.354  0.2986 -0.5159 -1.6330
 3739TIP3   OH232707   5.229   0.373  17.122  0.0531  0.0208 -0.3368
 3739TIP3    H132708   5.188   0.447  17.168  1.3092 -0.5639  1.8713
 3739TIP3    H232709   5.299   0.413  17.071  1.9929  0.3254  2.3313
 3740TIP3   OH232710   1.371   3.378   1.118  0.2656 -0.6253  1.0938
 3740TIP3    H132711   1.318   3.348   1.192 -1.5257 -1.7642 -0.5698
 3740TIP3    H232712   1.420   3.301   1.091  0.0709 -0.5123  0.4141
 3741TIP3   OH232713   6.524   6.204   3.355 -0.2822  0.3288 -0.1170
 3741TIP3    H132714   6.484   6.141   3.294 -1.5826  0.3185  0.7020
 3741TIP3    H232715   6.449   6.247   3.397  0.5881  2.0698 -0.2836
 3742TIP3   OH232716   6.540   2.786  14.251  0.3862 -0.8595  0.1209
 3742TIP3    H132717   6.575   2.867  14.289  1.8140 -0.7432 -1.2873
 3742TIP3    H232718   6.452   2.809  14.223  1.1450  0.6076 -1.2634
 3743TIP3   OH232719   5.513   1.788  17.058 -0.5872  0.1287 -0.2244
 3743TIP3    H132720   5.521   1.705  17.011  0.3001  1.3755 -2.4461
 3743TIP3    H232721   5.419   1.798  17.073 -0.8715 -0.4785 -1.4811
 3744TIP3   OH232722   5.604   5.311   2.219 -0.1154 -0.2829  0.3362
 3744TIP3    H132723   5.663   5.245   2.255 -0.8171 -0.8293  0.5009
 3744TIP3    H232724   5.524   5.303   2.271 -0.8727 -0.5763 -0.8494
 3745TIP3   OH232725   5.889   1.290  14.923 -0.1173 -0.2749 -0.2475
 3745TIP3    H132726   5.831   1.232  14.874 -0.8701 -0.1285  0.4401
 3745TIP3    H232727   5.847   1.376  14.918 -1.4963 -0.6628  2.5423
 3746TIP3   OH232728   6.597   1.377  10.327 -0.2190 -0.0506  0.5835
 3746TIP3    H132729   6.620   1.290  10.294  1.5852 -0.1968  2.1061
 3746TIP3    H232730   6.595   1.367  10.422 -0.3167  1.5035  0.7703
 3747TIP3   OH232731   6.146   1.761  16.928 -0.2332  0.1663 -0.1257
 3747TIP3    H132732   6.085   1.756  16.855 -0.6940  0.6503  0.2174
 3747TIP3    H232733   6.160   1.670  16.955  0.2941 -0.0499 -1.0963
 3748TIP3   OH232734   6.396   2.242  12.656  0.0380  0.6163  0.5530
 3748TIP3    H132735   6.384   2.223  12.563 -0.4815  4.6668 -0.4228
 3748TIP3    H232736   6.329   2.191  12.701 -0.5319 -0.4565 -1.4219
 3749TIP3   OH232737   5.085   0.305  15.371 -0.6284  0.1404  0.3507
 3749TIP3    H132738   5.170   0.305  15.326 -0.5199  1.0370  0.5427
 3749TIP3    H232739   5.095   0.241  15.441  0.3887  1.2624  1.2690
 3750TIP3   OH232740   0.246   6.513   2.362 -0.5935 -0.2744 -0.3405
 3750TIP3    H132741   0.250   6.596   2.314  2.6470 -0.6585 -0.9753
 3750TIP3    H232742   0.310   6.522   2.432  1.4852 -2.8469 -1.6988
 3751TIP3   OH232743   4.821   3.472  11.495 -0.1044 -0.1838  0.5946
 3751TIP3    H132744   4.876   3.532  11.445  0.8022 -2.3077 -1.0601
 3751TIP3    H232745   4.755   3.442  11.433  0.4546 -2.1369  0.8990
 3752TIP3   OH232746   1.901   1.735   4.749  0.6520 -0.3826  0.0396
 3752TIP3    H132747   1.951   1.720   4.668  0.4405  0.8932 -0.3453
 3752TIP3    H232748   1.966   1.729   4.819  1.2185  0.5090 -0.3949
 3753TIP3   OH232749   4.510   0.908  13.939 -0.3407 -0.1221  0.0374
 3753TIP3    H132750   4.547   0.877  13.856  0.2727  1.2130 -0.2121
 3753TIP3    H232751   4.469   0.830  13.977  2.9980 -1.8240  0.5144
 3754TIP3   OH232752   1.823   5.355   6.353 -0.0526  0.0498 -0.1811
 3754TIP3    H132753   1.762   5.417   6.313 -0.1081  0.4726  0.5437
 3754TIP3    H232754   1.896   5.409   6.384 -0.2564 -0.1919  0.7569
 3755TIP3   OH232755   6.369   4.584  15.215 -0.0311  0.5909 -0.4226
 3755TIP3    H132756   6.300   4.519  15.221 -0.6861  1.2993 -0.1245
 3755TIP3    H232757   6.450   4.535  15.230 -0.7002  0.3731  3.2982
 3756TIP3   OH232758   6.404   4.217   0.285  0.3041 -0.2108 -0.3427
 3756TIP3    H132759   6.495   4.225   0.256  0.8740 -3.7304  0.0645
 3756TIP3    H232760   6.354   4.211   0.204  0.5251  0.6490 -0.5610
 3757TIP3   OH232761   2.844   1.097  16.970 -0.3801  0.1176  0.2725
 3757TIP3    H132762   2.815   1.005  16.970  0.6816 -0.2393  1.1797
 3757TIP3    H232763   2.871   1.113  16.880 -0.3850 -0.5307  0.1449
 3758TIP3   OH232764   5.190   1.899  14.461  0.0242  0.8789 -0.0024
 3758TIP3    H132765   5.146   1.833  14.514  1.4421 -0.7048 -0.7044
 3758TIP3    H232766   5.277   1.908  14.499  0.5629  0.7876 -1.1627
 3759TIP3   OH232767   1.264   4.643  12.712  0.4810 -0.0053 -0.1107
 3759TIP3    H132768   1.333   4.701  12.745  0.0981  1.2252 -1.3624
 3759TIP3    H232769   1.239   4.682  12.628 -0.5490 -1.4049 -0.4822
 3760TIP3   OH232770   3.977   0.235   5.177  0.1363  0.4944  0.2217
 3760TIP3    H132771   4.007   0.312   5.128  0.0985 -0.6208 -1.6573
 3760TIP3    H232772   3.884   0.252   5.193  0.3814  1.3360  0.8614
 3761TIP3   OH232773   4.164   0.312  12.838 -0.5704  0.5903 -0.0174
 3761TIP3    H132774   4.103   0.251  12.797 -1.2808  1.1359  0.2060
 3761TIP3    H232775   4.175   0.382  12.773  0.1592  0.2943 -0.2291
 3762TIP3   OH232776   6.191   5.074  17.185 -0.3654  0.3675  0.4744
 3762TIP3    H132777   6.256   5.010  17.218  0.2185  0.9768  0.5271
 3762TIP3    H232778   6.244   5.148  17.156 -0.9593  0.3018 -0.8059
 3763TIP3   OH232779   1.009   0.780  12.277  0.3056  0.0601 -1.0046
 3763TIP3    H132780   1.025   0.708  12.337 -0.7178  0.3541 -0.3561
 3763TIP3    H232781   1.097   0.806  12.247  0.9140  0.2688  0.8004
 3764TIP3   OH232782   3.853   1.123  15.629  0.1263 -0.2031  0.3321
 3764TIP3    H132783   3.879   1.084  15.546  1.0159 -0.3713  0.6807
 3764TIP3    H232784   3.844   1.049  15.689  0.7777  0.0182  0.7166
 3765TIP3   OH232785   3.153   0.813   3.223  0.2335  0.5790  0.6069
 3765TIP3    H132786   3.079   0.755   3.209  0.6190 -0.4212  2.3959
 3765TIP3    H232787   3.114   0.893   3.259 -0.0024  0.0154  1.6530
 3766TIP3   OH232788   1.539   2.886   4.293 -0.1858 -0.7105  0.3591
 3766TIP3    H132789   1.541   2.809   4.236  1.0982 -3.1272  3.3797
 3766TIP3    H232790   1.615   2.938   4.266 -0.2697 -1.2028 -0.8599
 3767TIP3   OH232791   1.617   6.189  11.424  0.9794 -0.0454 -0.2176
 3767TIP3    H132792   1.614   6.240  11.505 -0.1346 -2.2169  1.1956
 3767TIP3    H232793   1.710   6.167  11.414  1.5558  2.4880 -1.0925
 3768TIP3   OH232794   2.340   5.232  12.226 -0.3170 -0.3739  0.6624
 3768TIP3    H132795   2.427   5.216  12.261 -0.5104 -1.6870  0.5659
 3768TIP3    H232796   2.342   5.324  12.198  0.6477 -0.0483  1.7378
 3769TIP3   OH232797   3.822   2.117  16.042  0.3354 -0.2394 -0.0338
 3769TIP3    H132798   3.871   2.163  15.974  1.6637 -0.5553  0.6852
 3769TIP3    H232799   3.765   2.185  16.080 -0.7592 -0.1569 -1.7216
 3770TIP3   OH232800   3.915   1.906   0.422 -0.3026 -0.2097  0.6562
 3770TIP3    H132801   4.007   1.918   0.447 -0.8370  3.9493  1.4120
 3770TIP3    H232802   3.867   1.966   0.480 -3.2604 -0.7064 -1.1013
 3771TIP3   OH232803   0.299   3.273   0.621 -0.3676  0.0244 -0.0512
 3771TIP3    H132804   0.340   3.216   0.557 -0.3250  0.9859 -0.9118
 3771TIP3    H232805   0.250   3.214   0.678 -0.3299 -0.8626 -0.9097
 3772TIP3   OH232806   3.717   0.790   1.502 -0.3975 -0.9803  0.0157
 3772TIP3    H132807   3.755   0.778   1.589  1.0154  0.7932 -0.2997
 3772TIP3    H232808   3.651   0.858   1.513  0.5517  0.0527 -0.4541
 3773TIP3   OH232809   3.662   0.508  13.370  0.3923 -0.1873  0.1727
 3773TIP3    H132810   3.634   0.582  13.423  1.1867  1.0893 -1.1094
 3773TIP3    H232811   3.591   0.444  13.378 -0.9238  1.2343  0.2956
 3774TIP3   OH232812   6.553   6.158   4.280  0.4318  0.7389  0.0817
 3774TIP3    H132813   6.518   6.242   4.309  0.4898  0.8653 -0.2048
 3774TIP3    H232814   6.496   6.093   4.320  1.4239  0.8408  1.7284
 3775TIP3   OH232815   5.636   6.548  12.868 -0.2678  0.1640 -0.0820
 3775TIP3    H132816   5.553   6.500  12.867 -0.7737  0.9697 -2.3145
 3775TIP3    H232817   5.702   6.483  12.846 -0.4135 -0.2753  0.7263
 3776TIP3   OH232818   5.459   1.350   1.634 -0.3298 -0.1699 -0.0064
 3776TIP3    H132819   5.418   1.266   1.612 -0.8534 -0.3760  1.6584
 3776TIP3    H232820   5.428   1.410   1.565 -1.0268 -1.0230 -0.4562
 3777TIP3   OH232821   1.542   1.479  16.013  0.0260  0.2294  0.5728
 3777TIP3    H132822   1.568   1.410  15.952  0.2655 -1.8155  2.8274
 3777TIP3    H232823   1.450   1.495  15.993 -0.4857 -1.9084  0.9672
 3778TIP3   OH232824   3.786   5.651  11.358  0.5431  0.0318  0.1352
 3778TIP3    H132825   3.779   5.595  11.280  2.1066 -1.0599  0.7369
 3778TIP3    H232826   3.695   5.660  11.388  0.2297 -2.5101  0.2047
 3779TIP3   OH232827   5.270   4.653   0.263 -0.7047 -0.0661  0.2784
 3779TIP3    H132828   5.223   4.694   0.190  0.9717  0.6602 -0.4427
 3779TIP3    H232829   5.248   4.560   0.257 -0.9461  0.0532 -0.8833
 3780TIP3   OH232830   0.598   5.877   4.222  0.2157  0.1024 -0.4260
 3780TIP3    H132831   0.613   5.964   4.260  2.7171 -0.7650  0.7774
 3780TIP3    H232832   0.642   5.817   4.281  0.3190 -1.7875 -2.3055
 3781TIP3   OH232833   2.830   2.319  13.941  0.8248 -0.5695 -0.2295
 3781TIP3    H132834   2.867   2.231  13.945  0.7682 -0.5543  0.8352
 3781TIP3    H232835   2.745   2.311  13.984  0.6655 -0.0624 -0.4458
 3782TIP3   OH232836   2.222   3.909   3.082  0.0815  0.3261 -0.6003
 3782TIP3    H132837   2.261   3.880   3.164 -0.0641 -0.0419 -0.6612
 3782TIP3    H232838   2.137   3.945   3.108 -0.7656 -1.4499 -0.7868
 3783TIP3   OH232839   2.113   3.193   1.909  0.1599  0.1676 -0.1672
 3783TIP3    H132840   2.197   3.156   1.934 -0.1623  0.7772  2.0026
 3783TIP3    H232841   2.136   3.264   1.848  1.3550  1.1288  1.3240
 3784TIP3   OH232842   3.531   0.682  10.921 -0.1946 -0.4955  0.3824
 3784TIP3    H132843   3.619   0.694  10.957  0.9887  1.5293 -2.7560
 3784TIP3    H232844   3.540   0.604  10.865 -0.7245 -0.9012  0.8520
 3785TIP3   OH232845   4.696   3.195   3.633  0.1589 -0.3530  0.6507
 3785TIP3    H132846   4.740   3.280   3.635 -0.4651 -0.0373  1.6318
 3785TIP3    H232847   4.646   3.196   3.552  0.6604 -0.0555  0.3344
 3786TIP3   OH232848   3.575   2.706  12.126 -0.0753  0.3560 -0.1336
 3786TIP3    H132849   3.531   2.714  12.211 -0.2285 -0.5148 -0.1193
 3786TIP3    H232850   3.652   2.652  12.144 -0.3163 -0.1604 -0.6057
 3787TIP3   OH232851   0.288   3.671   5.031 -0.3844  0.7096 -0.3590
 3787TIP3    H132852   0.351   3.693   4.962 -0.4103 -1.2410 -1.0837
 3787TIP3    H232853   0.255   3.755   5.061  2.0281  1.7688 -0.4393
 3788TIP3   OH232854   3.989   6.463  12.428  0.3127  0.0105  0.7305
 3788TIP3    H132855   4.065   6.409  12.409  0.1153 -1.2004  3.0334
 3788TIP3    H232856   4.024   6.551  12.442  0.6816  0.5404 -2.6486
 3789TIP3   OH232857   1.128   2.206   1.827 -0.4814  0.1447  0.2936
 3789TIP3    H132858   1.091   2.281   1.873  0.3428 -0.1093  1.4022
 3789TIP3    H232859   1.168   2.243   1.748 -1.5043  0.6454  0.0069
 3790TIP3   OH232860   6.004   3.401  15.117 -0.2818  0.5129  0.5390
 3790TIP3    H132861   6.052   3.385  15.036 -2.0942  1.5870 -0.8092
 3790TIP3    H232862   6.036   3.486  15.148  0.2055  0.2303  0.8405
 3791TIP3   OH232863   2.846   0.216   3.116  0.4438  0.0872 -0.7103
 3791TIP3    H132864   2.808   0.264   3.189 -0.4194 -1.4427 -0.1006
 3791TIP3    H232865   2.803   0.251   3.038 -0.1379  0.3274 -0.2839
 3792TIP3   OH232866   5.686   4.352   3.157 -0.0877 -0.5330  0.5392
 3792TIP3    H132867   5.708   4.288   3.224 -2.4332 -1.1291  0.8530
 3792TIP3    H232868   5.638   4.301   3.091  1.1999  0.2524 -1.0482
 3793TIP3   OH232869   2.754   4.921  16.844 -0.7412  0.0578 -0.3489
 3793TIP3    H132870   2.705   4.971  16.779 -2.5035 -1.9943 -0.7041
 3793TIP3    H232871   2.695   4.913  16.918 -0.1517 -0.7465  0.0458
 3794TIP3   OH232872   2.664   3.144  14.496  0.4974  0.5179 -0.2781
 3794TIP3    H132873   2.572   3.172  14.499  0.0907 -0.6710 -0.9958
 3794TIP3    H232874   2.714   3.224  14.515 -0.6786  1.1708  0.1867
 3795TIP3   OH232875   0.810   6.728   1.640  0.2512 -0.1297  0.1263
 3795TIP3    H132876   0.812   6.654   1.580 -0.3363 -1.8043  2.0553
 3795TIP3    H232877   0.848   6.801   1.590 -0.3912 -1.3544 -2.2823
 3796TIP3   OH232878   6.315   2.139   4.644  1.0231  0.2149  0.2625
 3796TIP3    H132879   6.259   2.215   4.631 -0.7634 -1.2519 -1.0211
 3796TIP3    H232880   6.404   2.174   4.642  0.2808  2.1522 -1.1443
 3797TIP3   OH232881   5.856   6.124  13.675  0.1651  0.1355  0.3310
 3797TIP3    H132882   5.767   6.152  13.696  0.0103  1.1395 -1.4962
 3797TIP3    H232883   5.856   6.029  13.691 -0.1765  0.5733  3.6574
 3798TIP3   OH232884   4.007   4.130   1.504 -0.7334 -0.8460  0.2446
 3798TIP3    H132885   3.976   4.206   1.455 -1.6365  0.0810  2.1601
 3798TIP3    H232886   4.102   4.133   1.496 -0.6477  1.3992  1.5166
 3799TIP3   OH232887   0.780   1.216   4.007 -0.4565  0.1323  0.0563
 3799TIP3    H132888   0.788   1.147   3.941 -2.6658  0.2243 -0.3785
 3799TIP3    H232889   0.718   1.278   3.970 -0.5124  1.0334  1.5563
 3800TIP3   OH232890   2.446   4.153   5.493  0.0031  0.1918  0.3681
 3800TIP3    H132891   2.404   4.207   5.560 -1.5384 -1.1580  0.5495
 3800TIP3    H232892   2.380   4.143   5.425  0.5859 -0.6884 -0.0841
 3801TIP3   OH232893   5.486   5.983  11.958 -0.5558  0.0223 -0.7785
 3801TIP3    H132894   5.520   6.028  12.035 -2.8759  0.3171  0.1509
 3801TIP3    H232895   5.553   5.998  11.891  1.6768 -0.5038  1.1953
 3802TIP3   OH232896   3.113   1.480  11.612  0.7047 -0.4659  0.4828
 3802TIP3    H132897   3.184   1.417  11.621  0.9478 -0.0839  1.4192
 3802TIP3    H232898   3.142   1.540  11.544  0.9180 -0.7862  0.2917
 3803TIP3   OH232899   4.671   1.952  16.645  0.2142 -0.1398  0.5729
 3803TIP3    H132900   4.713   1.982  16.726 -1.0847  0.8784  0.8888
 3803TIP3    H232901   4.737   1.967  16.577  0.2810  1.7709  1.0000
 3804TIP3   OH232902   4.237   0.146  14.389 -0.3290 -0.0675 -0.1355
 3804TIP3    H132903   4.213   0.157  14.297 -1.6280 -4.4505 -0.5810
 3804TIP3    H232904   4.318   0.096  14.386  0.4328  1.0496  1.1789
 3805TIP3   OH232905   0.346   3.300  13.045 -0.3404 -0.1938 -0.5061
 3805TIP3    H132906   0.405   3.344  13.106 -0.8610  1.1404 -0.9319
 3805TIP3    H232907   0.261   3.302  13.088 -0.2987 -1.1749 -0.3526
 3806TIP3   OH232908   6.770   5.852  16.739  0.2441 -0.4077 -0.2183
 3806TIP3    H132909   6.818   5.799  16.803  0.4368  0.5355  0.4418
 3806TIP3    H232910   6.752   5.934  16.785 -2.0888 -0.7410 -0.3826
 3807TIP3   OH232911   6.577   6.153  15.511  0.3640 -0.0959 -0.7255
 3807TIP3    H132912   6.649   6.118  15.563  0.1911 -0.8630 -0.9844
 3807TIP3    H232913   6.619   6.190  15.433  0.5878  0.6916 -0.2328
 3808TIP3   OH232914   2.464   5.632  14.601 -0.7399 -0.1092 -0.0096
 3808TIP3    H132915   2.448   5.545  14.564 -1.7463 -0.5463  1.3719
 3808TIP3    H232916   2.442   5.693  14.530  0.2703 -0.9523 -1.0997
 3809TIP3   OH232917   2.487   6.178  13.812 -0.2966  0.2357  0.3635
 3809TIP3    H132918   2.546   6.103  13.812 -0.9578 -0.2983  1.4023
 3809TIP3    H232919   2.508   6.224  13.730  0.4314 -0.8211 -0.0719
 3810TIP3   OH232920   6.810   5.454  14.439 -0.1407 -0.7776  1.0957
 3810TIP3    H132921   6.895   5.417  14.414  0.2222  0.2849  0.7062
 3810TIP3    H232922   6.790   5.413  14.523  1.1746 -0.3882  1.6184
 3811TIP3   OH232923   3.679   5.784   2.434  0.0284  0.2630 -0.2166
 3811TIP3    H132924   3.771   5.763   2.453 -0.1414  0.6737  1.1633
 3811TIP3    H232925   3.665   5.870   2.474 -1.2229 -0.2328  0.4793
 3812TIP3   OH232926   2.814   1.078  14.927  0.2616  0.4058 -0.2620
 3812TIP3    H132927   2.774   1.159  14.897  0.8718  0.5940 -0.5688
 3812TIP3    H232928   2.775   1.063  15.013  0.0324  0.9400 -0.2689
 3813TIP3   OH232929   1.840   4.682   0.377 -0.1571 -0.2879  0.1562
 3813TIP3    H132930   1.884   4.697   0.460  1.3980  1.2129 -0.8762
 3813TIP3    H232931   1.824   4.587   0.375  3.5232 -1.0643  0.4124
 3814TIP3   OH232932   6.080   6.199   3.470  0.4312 -0.2762 -0.0878
 3814TIP3    H132933   6.110   6.199   3.379  1.0918  1.9038  0.0779
 3814TIP3    H232934   5.987   6.176   3.464  0.5951 -0.7035 -1.2624
 3815TIP3   OH232935   6.817   4.574  12.122  0.3958 -0.5017  0.1106
 3815TIP3    H132936   6.819   4.669  12.138  0.3131 -0.1637 -1.7030
 3815TIP3    H232937   6.736   4.545  12.163 -0.2708  0.4677 -0.4708
 3816TIP3   OH232938   0.596   6.256   6.529  0.2477 -0.1957 -0.5537
 3816TIP3    H132939   0.500   6.256   6.531  0.2198  0.8633  2.1720
 3816TIP3    H232940   0.620   6.345   6.503  0.5088 -0.5658 -1.6042
 3817TIP3   OH232941   2.943   5.377   3.676  0.7993 -0.0341 -0.5973
 3817TIP3    H132942   2.873   5.332   3.723 -0.1587  0.5363 -1.4511
 3817TIP3    H232943   2.944   5.466   3.712  0.4104  0.2500 -1.2524
 3818TIP3   OH232944   2.307   3.212  10.437 -0.0831 -0.1139  0.2025
 3818TIP3    H132945   2.347   3.143  10.384  0.4689 -1.2841  2.0431
 3818TIP3    H232946   2.221   3.177  10.461 -0.9423  1.0222 -1.0490
 3819TIP3   OH232947   2.739   1.727  17.234  0.8667  0.0006  0.0424
 3819TIP3    H132948   2.720   1.638  17.262 -0.8624  0.5712  0.8448
 3819TIP3    H232949   2.776   1.769  17.312  0.6773  0.2499  0.0005
 3820TIP3   OH232950   0.289   0.861  14.816  0.1940  0.3075 -0.7305
 3820TIP3    H132951   0.282   0.956  14.803  0.7010  0.0916 -3.1102
 3820TIP3    H232952   0.298   0.850  14.911  0.7192  2.6649 -0.4418
 3821TIP3   OH232953   3.483   3.437   4.386 -0.4087 -0.8743  0.5833
 3821TIP3    H132954   3.421   3.486   4.331  0.5546 -0.3824 -0.1098
 3821TIP3    H232955   3.513   3.501   4.451 -0.9681 -1.2425  1.2160
 3822TIP3   OH232956   3.488   1.575   1.939  0.3113  0.2138 -0.5720
 3822TIP3    H132957   3.552   1.621   1.885  1.7862  0.9606  1.6859
 3822TIP3    H232958   3.424   1.643   1.962  0.3899  0.2195 -0.3636
 3823TIP3   OH232959   4.761   5.945   0.634 -0.8659 -1.0685  0.3186
 3823TIP3    H132960   4.800   5.927   0.720 -0.8374  1.3550  0.8821
 3823TIP3    H232961   4.669   5.964   0.654 -1.0280 -1.1940 -0.3003
 3824TIP3   OH232962   4.911   0.216  11.332  0.3115  0.1446  0.3067
 3824TIP3    H132963   4.932   0.123  11.333 -0.7249 -0.1031  1.0874
 3824TIP3    H232964   4.993   0.259  11.311  0.6757 -0.9802 -0.6966
 3825TIP3   OH232965   6.291   3.396   2.606  0.1229  0.0401 -0.4937
 3825TIP3    H132966   6.197   3.414   2.609  0.2217  0.5038  0.0030
 3825TIP3    H232967   6.300   3.309   2.644 -0.1460 -0.1556 -0.8837
 3826TIP3   OH232968   0.413   3.315  13.686  0.3367 -0.1576  0.8102
 3826TIP3    H132969   0.446   3.231  13.656 -0.5226 -0.1290 -0.2674
 3826TIP3    H232970   0.441   3.378  13.620  0.0974  0.2292  1.0682
 3827TIP3   OH232971   1.458   6.573  13.059  0.4000  0.1464  0.1942
 3827TIP3    H132972   1.487   6.642  12.999  0.7264 -1.0544 -1.0958
 3827TIP3    H232973   1.535   6.519  13.072 -0.3078 -1.0420 -0.3646
 3828TIP3   OH232974   0.460   2.592   3.297  0.2088  0.0231  0.2749
 3828TIP3    H132975   0.372   2.572   3.328 -0.7003 -0.7438 -2.5328
 3828TIP3    H232976   0.479   2.680   3.331 -2.2086  0.7768 -0.1725
 3829TIP3   OH232977   4.040   4.029   6.668 -0.0166 -0.3815  0.3920
 3829TIP3    H132978   4.004   3.946   6.635  0.5295 -1.6973  2.8642
 3829TIP3    H232979   4.087   4.004   6.748 -0.2612  2.4120  1.5033
 3830TIP3   OH232980   4.633   4.450   1.582  0.2640  0.3057 -0.5012
 3830TIP3    H132981   4.562   4.481   1.525  1.5199  1.9289 -1.2701
 3830TIP3    H232982   4.590   4.391   1.644 -2.1586  2.8711  0.4496
 3831TIP3   OH232983   4.249   6.291  16.004 -0.8019  0.1297 -0.2951
 3831TIP3    H132984   4.228   6.369  16.055 -0.9649  0.3125 -0.6435
 3831TIP3    H232985   4.325   6.316  15.951 -1.2566  0.2675 -0.8952
 3832TIP3   OH232986   6.786   3.293  11.194 -0.1493  0.3244 -0.0971
 3832TIP3    H132987   6.862   3.350  11.202  0.7912 -0.8702 -0.1486
 3832TIP3    H232988   6.822   3.204  11.202 -1.5250 -0.2728 -0.2341
 3833TIP3   OH232989   3.007   2.419  11.841 -0.2400 -0.8367 -0.2290
 3833TIP3    H132990   3.055   2.337  11.849  1.6184  0.2225  0.1357
 3833TIP3    H232991   2.991   2.428  11.747  0.9124 -0.8955 -0.4422
 3834TIP3   OH232992   3.426   5.559   6.469 -0.2347  0.0596 -0.2811
 3834TIP3    H132993   3.479   5.524   6.397  0.8495 -0.9629  0.9579
 3834TIP3    H232994   3.337   5.561   6.434 -0.0024 -1.9490 -1.1563
 3835TIP3   OH232995   1.079   5.850  15.022 -0.7220  0.5491  0.2023
 3835TIP3    H132996   1.072   5.812  15.110 -1.2645  0.7878  0.2657
 3835TIP3    H232997   1.172   5.868  15.011 -0.4915 -0.5238  0.2876
 3836TIP3   OH232998   2.858   1.621   4.756 -0.3955  0.4659 -0.1456
 3836TIP3    H132999   2.864   1.535   4.799  1.4083  0.7408  0.2029
 3836TIP3    H233000   2.773   1.655   4.783 -1.0168 -1.0788 -0.0558
 3837TIP3   OH233001   6.512   3.122  17.105  0.3822  0.1427  0.0639
 3837TIP3    H133002   6.501   3.028  17.115 -2.6138  0.4469  0.5367
 3837TIP3    H233003   6.531   3.134  17.012  2.5300 -0.9681  0.2966
 3838TIP3   OH233004   3.781   4.318  16.038 -0.5357  0.4463  0.1945
 3838TIP3    H133005   3.860   4.265  16.026  0.1151  1.7515 -1.9603
 3838TIP3    H233006   3.801   4.374  16.112  0.3644  0.3965  0.0013
 3839TIP3   OH233007   6.015   2.889   1.419  0.5972  0.1183  0.2040
 3839TIP3    H133008   5.971   2.921   1.340 -0.1073 -2.9581 -0.8095
 3839TIP3    H233009   6.006   2.959   1.483 -0.5732  1.9294 -1.8400
 3840TIP3   OH233010   1.877   4.443   0.084  0.2685 -0.2369 -0.2361
 3840TIP3    H133011   1.926   4.376   0.036 -0.6032 -1.2228  0.2176
 3840TIP3    H233012   1.872   4.408   0.173 -2.4830 -0.8767 -0.5723
 3841TIP3   OH233013   0.812   4.065  15.298  0.5231 -0.3795 -0.1053
 3841TIP3    H133014   0.765   4.006  15.357 -0.1272  0.6926  0.4591
 3841TIP3    H233015   0.884   4.100  15.351 -0.6629  1.3753  0.4075
 3842TIP3   OH233016   2.680   4.943  12.920 -0.3764  0.1548 -0.1544
 3842TIP3    H133017   2.723   4.867  12.959  1.4361  0.1885 -1.8967
 3842TIP3    H233018   2.605   4.907  12.873 -1.6149 -0.0678  1.8505
 3843TIP3   OH233019   0.945   1.909   0.042  0.0092 -0.1437  0.4927
 3843TIP3    H133020   0.866   1.914  -0.012 -0.1039 -0.4930  0.6217
 3843TIP3    H233021   0.939   1.986   0.100 -0.4032 -0.3443  0.7243
 3844TIP3   OH233022   3.884   3.956  13.885 -0.3555  0.3623 -0.2391
 3844TIP3    H133023   3.954   3.946  13.949 -0.3231  0.1264 -0.3131
 3844TIP3    H233024   3.817   4.007  13.932 -0.5803 -0.3057  0.1805
 3845TIP3   OH233025   4.861   0.643   0.590 -0.5760  0.4795  0.2487
 3845TIP3    H133026   4.791   0.616   0.530  1.1465 -0.6124 -1.4077
 3845TIP3    H233027   4.815   0.674   0.668 -2.9196  1.0740 -1.2505
 3846TIP3   OH233028   1.846   6.003  15.135  0.2846  0.4593  0.3271
 3846TIP3    H133029   1.864   6.089  15.175  0.9602  1.7972 -2.5671
 3846TIP3    H233030   1.751   6.004  15.118  0.0311 -0.0306  1.6279
 3847TIP3   OH233031   4.406   3.513  16.278 -0.4822  0.1964  0.3597
 3847TIP3    H133032   4.373   3.423  16.271  0.5836 -0.2115  0.4186
 3847TIP3    H233033   4.327   3.567  16.275 -1.1903 -0.7643  0.9484
 3848TIP3   OH233034   6.521   4.674   0.636  0.5123 -0.3873 -0.3691
 3848TIP3    H133035   6.544   4.660   0.544 -2.3806  1.9563 -1.6548
 3848TIP3    H233036   6.444   4.618   0.650  0.0568  0.3382  0.1156
 3849TIP3   OH233037   5.449   0.845   4.715 -0.5415  0.2949 -0.1334
 3849TIP3    H133038   5.396   0.765   4.714  1.4429 -1.0793 -0.3787
 3849TIP3    H233039   5.453   0.871   4.623 -0.1681 -0.0484 -0.2176
 3850TIP3   OH233040   1.497   1.392   2.041 -0.2378  0.5545  0.3182
 3850TIP3    H133041   1.420   1.409   1.987 -0.7931 -0.3214  0.8022
 3850TIP3    H233042   1.550   1.471   2.032 -1.7498  1.7012  0.9204
 3851TIP3   OH233043   3.102   1.268  16.795 -0.2776  0.0953  0.2854
 3851TIP3    H133044   3.173   1.304  16.742 -1.5698  1.7879 -0.3771
 3851TIP3    H233045   3.130   1.283  16.886  0.7625 -0.4253  0.0618
 3852TIP3   OH233046   5.524   2.159  14.769  0.0090 -0.5760 -0.5265
 3852TIP3    H133047   5.557   2.076  14.804 -1.4668 -1.4329 -1.0673
 3852TIP3    H233048   5.429   2.151  14.773 -0.2014  1.6675  0.6962
 3853TIP3   OH233049   1.960   3.927  12.930 -0.4980  0.0567 -0.0859
 3853TIP3    H133050   1.878   3.904  12.887  0.0696  0.2582 -1.3122
 3853TIP3    H233051   2.002   3.842  12.949 -0.4064 -0.0196 -0.6228
 3854TIP3   OH233052   4.455   4.917  17.046 -0.0330  0.3160 -0.0090
 3854TIP3    H133053   4.545   4.898  17.018  0.9863  1.3290  2.3282
 3854TIP3    H233054   4.425   4.835  17.087  1.3701  1.0796  2.7760
 3855TIP3   OH233055   1.535   4.130  10.572 -0.0702 -0.3291  0.2754
 3855TIP3    H133056   1.447   4.138  10.611  0.2832 -1.0193  1.2688
 3855TIP3    H233057   1.529   4.176  10.489 -2.1863 -2.7100 -1.0290
 3856TIP3   OH233058   2.866   3.220  10.408 -0.2706  0.0530 -0.1735
 3856TIP3    H133059   2.928   3.156  10.442 -0.1368 -1.5269 -3.1005
 3856TIP3    H233060   2.858   3.285  10.478  2.2642 -1.3141  1.5425
 3857TIP3   OH233061   0.809   6.728   4.402 -0.2270  0.3301  0.9049
 3857TIP3    H133062   0.859   6.646   4.403  1.7590  1.4642  2.7414
 3857TIP3    H233063   0.843   6.778   4.476  0.0024  3.6291 -1.2009
 3858TIP3   OH233064   2.336   2.628   3.549  0.5098  0.6059  0.1824
 3858TIP3    H133065   2.281   2.644   3.626 -0.2277 -0.5653 -0.0741
 3858TIP3    H233066   2.359   2.535   3.555  1.2821  0.7405 -0.4833
 3859TIP3   OH233067   2.837   0.755  16.968  0.3319  0.6462 -0.7054
 3859TIP3    H133068   2.910   0.732  17.027 -0.4709  0.9982  0.4629
 3859TIP3    H233069   2.846   0.694  16.895  2.6972  1.6698 -1.3676
 3860TIP3   OH233070   3.035   6.383  12.279  0.0216 -0.7138 -0.2876
 3860TIP3    H133071   3.050   6.374  12.373  0.7850  0.6534 -0.2478
 3860TIP3    H233072   3.095   6.320  12.239  0.6218 -0.4101  0.1154
 3861TIP3   OH233073   3.610   2.593   4.966 -0.2600 -0.3819  0.1771
 3861TIP3    H133074   3.639   2.683   4.978  0.2610 -0.4460 -0.5621
 3861TIP3    H233075   3.574   2.591   4.877  1.1362 -1.2586 -0.3931
 3862TIP3   OH233076   6.784   5.894   5.705  0.0231 -0.2621  0.8616
 3862TIP3    H133077   6.769   5.981   5.743 -0.1518  0.0797  0.0319
 3862TIP3    H233078   6.856   5.907   5.643 -2.0055  0.0403 -1.6408
 3863TIP3   OH233079   2.302   2.996   5.325 -0.2294  0.0932 -0.4097
 3863TIP3    H133080   2.316   3.051   5.248 -2.9358 -0.4971 -1.4359
 3863TIP3    H233081   2.265   3.055   5.390 -1.4551 -0.1319 -0.8890
 3864TIP3   OH233082   2.746   0.429  11.284 -0.3548  0.2744 -0.2360
 3864TIP3    H133083   2.746   0.390  11.372 -0.0375  0.9745  0.0769
 3864TIP3    H233084   2.660   0.468  11.275 -0.4371  0.0793 -0.2882
 3865TIP3   OH233085   5.006   3.540   4.481 -0.0108 -0.0317  0.3288
 3865TIP3    H133086   5.028   3.447   4.479  0.7117  0.1468 -1.0232
 3865TIP3    H233087   5.090   3.584   4.465 -0.7739  0.7711 -1.7527
 3866TIP3   OH233088   4.373   4.837  14.514  0.0593  0.2417  0.3191
 3866TIP3    H133089   4.392   4.757  14.465  3.3615  0.5127  0.9376
 3866TIP3    H233090   4.455   4.858  14.559  0.3130  5.3760 -1.8463
 3867TIP3   OH233091   5.866   0.869   2.684 -0.0461 -0.2331  0.0398
 3867TIP3    H133092   5.889   0.802   2.620 -0.8381  0.1899 -0.7087
 3867TIP3    H233093   5.786   0.837   2.726 -1.2115  0.8194 -1.2689
 3868TIP3   OH233094   1.314   3.996   3.520 -0.5552 -0.1848 -0.1576
 3868TIP3    H133095   1.366   3.961   3.592  0.4317 -1.0640 -1.2503
 3868TIP3    H233096   1.375   4.048   3.468 -1.4000  0.9902 -0.0221
 3869TIP3   OH233097   1.137   1.092   4.050 -0.2309 -0.0278 -0.0775
 3869TIP3    H133098   1.137   1.123   3.959 -0.9590 -1.1171 -0.4723
 3869TIP3    H233099   1.223   1.053   4.063 -0.6884 -1.3960 -0.8797
 3870TIP3   OH233100   1.503   1.431   5.044 -0.1551  0.0903  0.1994
 3870TIP3    H133101   1.530   1.523   5.054  1.2560 -0.2229 -0.4580
 3870TIP3    H233102   1.408   1.435   5.039 -0.0756  1.6852 -1.1722
 3871TIP3   OH233103   4.682   1.389  11.727  0.5793 -0.9198 -0.0134
 3871TIP3    H133104   4.675   1.326  11.655 -0.3180 -0.1571 -0.6279
 3871TIP3    H233105   4.594   1.427  11.734  1.2935  0.9022 -0.2620
 3872TIP3   OH233106   0.041   0.068   4.640 -0.3915 -0.0786  0.2091
 3872TIP3    H133107   0.130   0.046   4.669  0.2032  1.9373  0.0365
 3872TIP3    H233108   0.042   0.055   4.546 -0.5676 -0.9165  0.3138
 3873TIP3   OH233109   5.950   5.489  14.097 -0.0325  0.3115 -0.5580
 3873TIP3    H133110   5.999   5.570  14.085  2.3167 -0.9312  0.0881
 3873TIP3    H233111   5.876   5.514  14.153  0.4186  2.0601 -0.7019
 3874TIP3   OH233112   3.701   1.279  12.290 -0.1098  0.3728  0.4574
 3874TIP3    H133113   3.615   1.239  12.274  0.0198 -0.7248  2.2180
 3874TIP3    H233114   3.695   1.312  12.380  0.7612  1.8263  0.0062
 3875TIP3   OH233115   1.127   3.455  16.827  0.6011  0.0098  0.5084
 3875TIP3    H133116   1.062   3.415  16.885  0.3513 -2.6899 -1.4373
 3875TIP3    H233117   1.086   3.537  16.798 -1.0159 -0.5790  1.0223
 3876TIP3   OH233118   4.164   5.205  10.977  0.2609  0.1581  0.3384
 3876TIP3    H133119   4.105   5.280  10.985 -1.7993 -1.4832  1.6972
 3876TIP3    H233120   4.200   5.194  11.065  0.2061 -0.6696  0.2659
 3877TIP3   OH233121   3.852   3.940  14.502 -0.2711 -0.5334  0.0707
 3877TIP3    H133122   3.935   3.900  14.475  1.0950  1.5962  0.8446
 3877TIP3    H233123   3.863   3.957  14.596 -1.1330  0.7276 -0.0273
 3878TIP3   OH233124   1.659   1.919  12.421 -0.0676  0.4255  0.4883
 3878TIP3    H133125   1.597   1.875  12.363 -1.3045  0.6132  1.6284
 3878TIP3    H233126   1.729   1.855  12.435 -0.3874 -0.0782 -0.1993
 3879TIP3   OH233127   0.165   1.495  15.911  0.5090  0.6046 -0.1546
 3879TIP3    H133128   0.127   1.463  15.830  1.3090  0.1862 -0.3687
 3879TIP3    H233129   0.123   1.443  15.980 -0.2828  1.0637 -0.2709
 3880TIP3   OH233130   2.598   5.765   4.212  0.4238  0.2018  0.4350
 3880TIP3    H133131   2.548   5.711   4.150  1.0042 -1.1953  1.1471
 3880TIP3    H233132   2.670   5.800   4.160  0.5558 -0.4471  0.1709
 3881TIP3   OH233133   0.961   6.474   4.345 -0.1336  0.3004 -0.2066
 3881TIP3    H133134   0.978   6.416   4.419  0.9190 -1.1934 -1.5432
 3881TIP3    H233135   1.042   6.473   4.294 -1.3772 -0.1890 -2.3244
 3882TIP3   OH233136   3.069   3.563  17.110 -0.0063 -0.4094  0.0835
 3882TIP3    H133137   3.136   3.592  17.171 -0.2826 -0.8504  0.6012
 3882TIP3    H233138   2.988   3.563  17.161 -0.6804  1.4220 -0.8679
 3883TIP3   OH233139   2.397   0.539  15.484  0.1537  0.2508 -0.3875
 3883TIP3    H133140   2.442   0.570  15.405 -0.0384  1.1419 -0.1663
 3883TIP3    H233141   2.344   0.614  15.511 -0.6827 -0.4414 -0.0677
 3884TIP3   OH233142   5.211   3.715  15.282  0.7625 -0.2011  0.3872
 3884TIP3    H133143   5.223   3.804  15.314  3.1097  0.8042 -2.7984
 3884TIP3    H233144   5.143   3.722  15.215  0.5850 -0.9168  0.4834
 3885TIP3   OH233145   6.337   0.180   0.752  0.3125  0.2353  0.3914
 3885TIP3    H133146   6.429   0.202   0.764  0.4465  0.5434 -0.9972
 3885TIP3    H233147   6.331   0.150   0.661 -0.7069 -1.1641  0.8795
 3886TIP3   OH233148   2.554   3.395  15.298 -0.3641  0.2675  0.0561
 3886TIP3    H133149   2.522   3.306  15.281  0.5393  0.0095 -0.3898
 3886TIP3    H233150   2.498   3.429  15.367  1.9150 -2.2305  3.4651
 3887TIP3   OH233151   1.569   6.349  13.851 -1.1177  0.4034 -0.2739
 3887TIP3    H133152   1.602   6.437  13.832 -1.6881  0.4377 -1.1874
 3887TIP3    H233153   1.474   6.356  13.840 -1.0037 -0.8767 -3.0279
 3888TIP3   OH233154   1.361   0.559  12.069  0.2444  0.6255  0.9301
 3888TIP3    H133155   1.269   0.575  12.050 -0.1364  0.0612  2.1985
 3888TIP3    H233156   1.361   0.516  12.154  1.6701  0.3788  0.8322
 3889TIP3   OH233157   2.253   3.006   2.911  0.1234 -0.2781  0.2119
 3889TIP3    H133158   2.270   3.020   3.004 -0.1889 -2.2227  0.5945
 3889TIP3    H233159   2.164   3.039   2.898  0.0672 -0.2410  0.6530
 3890TIP3   OH233160   4.646   0.755   5.617  0.4146 -0.6102 -0.4301
 3890TIP3    H133161   4.678   0.670   5.648 -0.9767 -0.4986  1.5075
 3890TIP3    H233162   4.565   0.769   5.666  1.2701  2.4502  0.3176
 3891TIP3   OH233163   6.762   4.760  14.945 -0.0448  0.4873  0.0948
 3891TIP3    H133164   6.674   4.770  14.979  0.3426  0.2513  1.1966
 3891TIP3    H233165   6.804   4.698  15.004  0.5846 -0.1032 -0.9443
 3892TIP3   OH233166   6.531   1.714  16.324 -0.1759 -0.0342  0.0200
 3892TIP3    H133167   6.575   1.666  16.394  0.3803 -0.0438 -0.3354
 3892TIP3    H233168   6.588   1.704  16.248  0.9369  2.7838  0.3906
 3893TIP3   OH233169   6.436   0.304   1.904 -0.0986  0.6683  0.3489
 3893TIP3    H133170   6.520   0.350   1.912  0.1455  0.4469 -0.7883
 3893TIP3    H233171   6.385   0.358   1.843 -0.2528  0.0781 -0.0605
 3894TIP3   OH233172   1.375   4.524   2.169 -0.1671 -0.1145 -0.1395
 3894TIP3    H133173   1.440   4.502   2.235  1.3883  0.3904 -1.4266
 3894TIP3    H233174   1.292   4.528   2.217  0.6929 -1.0037  1.5148
 3895TIP3   OH233175   0.913   0.356  14.539 -0.1876 -0.4001  0.7001
 3895TIP3    H133176   0.925   0.433  14.596  0.4555 -0.3409  0.4905
 3895TIP3    H233177   0.968   0.289  14.579 -1.0238 -0.8699  1.0830
 3896TIP3   OH233178   1.658   4.470   4.408  0.2129  0.0251  0.3579
 3896TIP3    H133179   1.656   4.523   4.329 -0.6493 -0.3158  0.1413
 3896TIP3    H233180   1.745   4.485   4.445  0.7414 -0.0617 -0.8209
 3897TIP3   OH233181   5.489   5.303  16.641  0.2618 -0.6554 -0.4952
 3897TIP3    H133182   5.558   5.346  16.692 -0.6335  0.5739 -0.2703
 3897TIP3    H233183   5.534   5.235  16.593  1.9311  1.0363 -1.4764
 3898TIP3   OH233184   3.689   4.126  16.707  0.1951 -0.0502  0.2241
 3898TIP3    H133185   3.658   4.087  16.625 -0.3422  0.0148  0.3874
 3898TIP3    H233186   3.674   4.058  16.772  3.3249 -1.2345 -0.1567
 3899TIP3   OH233187   2.013   3.188  12.468  0.5082 -0.0463  0.1702
 3899TIP3    H133188   2.043   3.146  12.548  0.8422 -0.2447 -0.0565
 3899TIP3    H233189   2.094   3.211  12.422  0.3547  1.3041  0.5268
 3900TIP3   OH233190   1.196   5.768  14.335 -0.3604  0.2527 -0.3166
 3900TIP3    H133191   1.205   5.677  14.366  0.9487  0.5318  0.2214
 3900TIP3    H233192   1.282   5.789  14.298 -0.4458  1.4802  0.1364
 3901TIP3   OH233193   0.368   3.258  12.481  0.5943 -0.4041  0.0432
 3901TIP3    H133194   0.428   3.332  12.479  1.1231 -0.7937  0.7506
 3901TIP3    H233195   0.422   3.183  12.457  0.2030 -0.6427 -0.0957
 3902TIP3   OH233196   0.541   1.114   3.469 -0.7842  0.4995  0.5734
 3902TIP3    H133197   0.481   1.151   3.404  2.0567  2.4387 -1.1950
 3902TIP3    H233198   0.608   1.070   3.417  0.6762  0.6009  2.2876
 3903TIP3   OH233199   0.815   3.671   5.456  0.1019 -0.1298 -0.0957
 3903TIP3    H133200   0.749   3.651   5.521  1.4650  1.8522  2.0805
 3903TIP3    H233201   0.796   3.762   5.430  0.9532 -0.1165 -0.7171
 3904TIP3   OH233202   4.787   5.127  15.526 -0.2775  0.4814 -0.3562
 3904TIP3    H133203   4.735   5.176  15.591 -1.3474  1.1059 -1.6429
 3904TIP3    H233204   4.804   5.191  15.456  0.6855 -0.2374 -0.7909
 3905TIP3   OH233205   4.963   5.958   1.230 -0.0511  0.3313 -0.3835
 3905TIP3    H133206   4.950   5.869   1.199 -0.2040  0.4701 -0.7218
 3905TIP3    H233207   5.048   5.957   1.273  0.2616  0.1884 -0.9979
 3906TIP3   OH233208   2.456   5.438  16.683  0.1410  0.2368  0.2271
 3906TIP3    H133209   2.513   5.407  16.754  1.2783 -0.4298 -0.9298
 3906TIP3    H233210   2.459   5.368  16.618 -0.9061  0.8202 -0.4715
 3907TIP3   OH233211   4.842   0.958   0.314 -0.0920  0.1174  0.1032
 3907TIP3    H133212   4.775   0.923   0.373  1.1588 -2.0509  0.3174
 3907TIP3    H233213   4.861   1.045   0.349  0.1047 -0.8231  2.5176
 3908TIP3   OH233214   2.623   6.332   2.536 -0.0508  0.0484  0.2783
 3908TIP3    H133215   2.663   6.245   2.544 -0.6789 -0.2546  0.2183
 3908TIP3    H233216   2.622   6.366   2.625  1.1113  0.4218  0.1664
 3909TIP3   OH233217   3.861   1.921   2.186 -0.1735  0.2310 -0.8448
 3909TIP3    H133218   3.867   1.830   2.158  1.6992 -0.0128  0.1617
 3909TIP3    H233219   3.938   1.934   2.241  0.2969  2.7558 -1.9478
 3910TIP3   OH233220   0.961   1.515   1.583 -0.0771 -0.6507 -0.1293
 3910TIP3    H133221   0.917   1.433   1.560  0.2816 -1.2845  1.3268
 3910TIP3    H233222   0.968   1.513   1.678 -1.6594  1.9222  0.1452
 3911TIP3   OH233223   1.364   3.256  15.316 -0.4402 -0.3765  0.0683
 3911TIP3    H133224   1.280   3.209  15.323 -2.3197  2.6560 -0.2116
 3911TIP3    H233225   1.354   3.331  15.375  0.9764  1.5522 -1.9972
 3912TIP3   OH233226   0.820   1.201  15.564  0.0808 -0.1108  0.1149
 3912TIP3    H133227   0.824   1.297  15.568 -1.6513  0.1772 -2.7649
 3912TIP3    H233228   0.764   1.177  15.638 -2.8303  1.5398 -1.3820
 3913TIP3   OH233229   2.297   4.799   3.397  0.3714  0.4731 -0.3554
 3913TIP3    H133230   2.363   4.865   3.419 -0.5516  1.1249  0.5320
 3913TIP3    H233231   2.304   4.789   3.302  1.9583  0.2895 -0.2470
 3914TIP3   OH233232   4.672   1.885  11.775  0.2706 -0.3583 -0.2265
 3914TIP3    H133233   4.722   1.925  11.704  2.4551  1.2898  2.0826
 3914TIP3    H233234   4.724   1.809  11.801 -0.9768 -1.4852 -0.8845
 3915TIP3   OH233235   4.388   5.394  12.259 -0.2890 -0.2915 -0.7813
 3915TIP3    H133236   4.351   5.405  12.347 -0.5432  0.0859 -0.9321
 3915TIP3    H233237   4.431   5.478  12.241  0.5663 -0.6944 -0.6445
 3916TIP3   OH233238   0.962   1.200  13.461  0.5799 -0.1338  0.3518
 3916TIP3    H133239   0.878   1.223  13.421 -0.0780 -1.7164  0.7663
 3916TIP3    H233240   0.988   1.279  13.509 -1.1123  0.0691  0.9856
 3917TIP3   OH233241   5.811   3.659   4.567  0.0370 -0.0241 -0.0661
 3917TIP3    H133242   5.822   3.656   4.472 -0.5614 -2.7328 -0.1478
 3917TIP3    H233243   5.727   3.617   4.582 -0.0233  0.6604  1.6569
 3918TIP3   OH233244   3.695   4.470  15.804 -0.0338  0.2610  0.4720
 3918TIP3    H133245   3.709   4.397  15.865 -1.3643  0.4188  1.0176
 3918TIP3    H233246   3.671   4.427  15.722  3.0508  0.0056 -0.3904
 3919TIP3   OH233247   4.625   4.024   5.136  0.2504 -0.8327 -0.2763
 3919TIP3    H133248   4.599   4.030   5.228 -2.6143 -2.1889 -0.8746
 3919TIP3    H233249   4.720   4.012   5.139  0.2814 -0.6548  2.4873
 3920TIP3   OH233250   0.535   4.334  16.520  0.4856 -0.3819 -0.4458
 3920TIP3    H133251   0.621   4.373  16.536  0.1634  0.6400 -1.0637
 3920TIP3    H233252   0.473   4.405  16.539 -0.2270 -1.1452  0.1147
 3921TIP3   OH233253   0.042   3.223   3.199  0.4242 -0.0912  0.6217
 3921TIP3    H133254  -0.028   3.279   3.232  0.3274 -0.9266  1.9125
 3921TIP3    H233255   0.075   3.178   3.277  3.0424  0.9532  0.2165
 3922TIP3   OH233256   5.743   1.105   1.553  0.1671  0.4383  0.4843
 3922TIP3    H133257   5.710   1.174   1.496 -2.3801  0.0605  1.3607
 3922TIP3    H233258   5.760   1.149   1.636 -0.1456  0.2667  0.6418
 3923TIP3   OH233259   5.897   5.084  15.565  0.1093 -0.2840 -0.2345
 3923TIP3    H133260   5.806   5.057  15.551  0.0228  0.5455 -1.5134
 3923TIP3    H233261   5.893   5.180  15.568  0.9762 -0.2177 -0.7035
 3924TIP3   OH233262   4.749   6.316  14.367 -0.1229 -0.1928 -0.1140
 3924TIP3    H133263   4.739   6.227  14.334  2.0858 -0.1340 -1.0925
 3924TIP3    H233264   4.741   6.306  14.462  1.6831 -1.7412 -0.0584
 3925TIP3   OH233265   4.563   3.537   2.116 -0.2678 -0.5344  0.1015
 3925TIP3    H133266   4.475   3.562   2.087 -0.5000 -1.0488  0.3443
 3925TIP3    H233267   4.568   3.443   2.097  1.4560  0.0692 -2.9920
 3926TIP3   OH233268   1.516   5.829  11.912 -0.3792 -0.0200  0.4348
 3926TIP3    H133269   1.592   5.781  11.944  1.4327  2.2658 -0.1788
 3926TIP3    H233270   1.507   5.801  11.821  1.8639  2.0021 -0.5218
 3927TIP3   OH233271   0.045   4.213   0.660 -0.8754 -0.1428 -0.7598
 3927TIP3    H133272   0.077   4.281   0.601  0.4970  2.7065  2.9018
 3927TIP3    H233273   0.123   4.162   0.682 -0.5798  0.9941  1.0687
 3928TIP3   OH233274   3.897   0.812   3.634 -0.1590 -0.4222 -0.6021
 3928TIP3    H133275   3.889   0.894   3.684  0.1538 -1.0032  0.4337
 3928TIP3    H233276   3.822   0.760   3.661 -0.8460 -0.1670 -1.9181
 3929TIP3   OH233277   2.085   4.949   4.121 -0.8176  0.8506  0.0973
 3929TIP3    H133278   2.147   4.956   4.193  0.7917  0.5004 -1.2012
 3929TIP3    H233279   2.022   5.019   4.137 -0.3766  0.9336  1.6920
 3930TIP3   OH233280   6.099   2.161  15.507  0.2255  0.2968 -0.5074
 3930TIP3    H133281   6.029   2.120  15.557  0.6159 -0.7276 -0.7780
 3930TIP3    H233282   6.067   2.162  15.417 -0.0378  1.1637 -0.4075
 3931TIP3   OH233283   0.354   2.055  16.679 -0.1041 -0.3141 -0.6882
 3931TIP3    H133284   0.304   2.020  16.604  1.9390 -2.3114 -1.2400
 3931TIP3    H233285   0.426   2.103  16.639 -0.4699  0.9172  0.0759
 3932TIP3   OH233286   1.677   5.601  15.340 -0.5022 -0.0557 -0.2550
 3932TIP3    H133287   1.723   5.522  15.369 -0.9290  0.5504  2.2882
 3932TIP3    H233288   1.743   5.651  15.293  0.1825 -1.2297 -0.5914
 3933TIP3   OH233289   1.723   0.019  16.887 -0.0331  0.1997  0.2940
 3933TIP3    H133290   1.735  -0.062  16.938 -1.3651 -0.2001  0.0051
 3933TIP3    H233291   1.650  -0.001  16.828 -0.7691  1.8032  0.6154
 3934TIP3   OH233292   3.430   5.640   5.038 -0.2126 -0.2535  0.3763
 3934TIP3    H133293   3.359   5.691   4.998  1.6209  2.6586  0.5038
 3934TIP3    H233294   3.436   5.673   5.127  2.0350  0.4821  0.0057
 3935TIP3   OH233295   0.196   2.240   4.679  0.3982  0.2964  0.0701
 3935TIP3    H133296   0.164   2.165   4.729 -2.6312  0.9372 -0.7366
 3935TIP3    H233297   0.195   2.211   4.588 -0.7010  1.2401 -0.2396
 3936TIP3   OH233298   6.423   5.400  16.719  0.0764  0.5094 -0.4759
 3936TIP3    H133299   6.362   5.468  16.745 -1.7447 -1.5954  1.1458
 3936TIP3    H233300   6.495   5.406  16.781 -0.6146  0.2651  0.3574
 3937TIP3   OH233301   3.814   2.947   1.753  0.2283 -0.0451 -0.2545
 3937TIP3    H133302   3.772   2.979   1.674 -0.4484  0.1012  0.1555
 3937TIP3    H233303   3.896   2.907   1.723 -0.1919 -0.3112 -1.0615
 3938TIP3   OH233304   2.317   5.570  17.199 -0.7408  0.3005  0.1177
 3938TIP3    H133305   2.389   5.620  17.159  0.8610 -0.8873  1.3788
 3938TIP3    H233306   2.288   5.511  17.129  0.6510 -0.3494  0.0510
 3939TIP3   OH233307   4.050   1.065  15.232 -0.4476 -0.2439  0.2112
 3939TIP3    H133308   4.023   1.022  15.313  1.4880 -0.4322  0.8187
 3939TIP3    H233309   4.058   0.994  15.168 -1.6324 -0.1447 -0.0540
 3940TIP3   OH233310   2.693   5.146   3.514 -0.5662  0.2611 -0.2250
 3940TIP3    H133311   2.733   5.198   3.443 -0.7830 -1.5966 -1.7788
 3940TIP3    H233312   2.767   5.119   3.568 -0.4054  1.7590  0.3721
 3941TIP3   OH233313   4.377   2.460   5.804 -0.7243  0.7097  0.1135
 3941TIP3    H133314   4.456   2.424   5.764  0.1545  1.9616  0.6547
 3941TIP3    H233315   4.306   2.409   5.767  0.3175 -0.2690 -0.5991
 3942TIP3   OH233316   3.929   0.393   4.389  0.5855 -0.3535 -0.0128
 3942TIP3    H133317   3.911   0.388   4.483  0.3349  1.1668  0.0504
 3942TIP3    H233318   4.013   0.438   4.383 -0.1013  0.9087 -0.5329
 3943TIP3   OH233319   2.792   3.207  13.220  0.0883 -0.0177  0.5859
 3943TIP3    H133320   2.750   3.251  13.146 -1.4148 -2.3478 -0.0744
 3943TIP3    H233321   2.851   3.143  13.180 -0.0956 -0.7172  1.3959
 3944TIP3   OH233322   1.163   2.814  14.971  0.6428  0.2772 -0.3295
 3944TIP3    H133323   1.216   2.735  14.967  1.2624  0.6937 -0.3726
 3944TIP3    H233324   1.205   2.875  14.911  1.5601  1.4733  1.4494
 3945TIP3   OH233325   1.691   1.958  14.021 -0.2185 -0.1602 -0.1998
 3945TIP3    H133326   1.598   1.943  14.003 -0.1927  0.6031 -0.9979
 3945TIP3    H233327   1.737   1.921  13.945  0.2247 -1.5421  0.6904
 3946TIP3   OH233328   4.856   2.691   3.227  0.1986  0.3323  0.5858
 3946TIP3    H133329   4.921   2.728   3.286  0.3078  0.0940  0.6147
 3946TIP3    H233330   4.880   2.599   3.219 -0.4300  0.1228  1.0049
 3947TIP3   OH233331   0.952   1.454   1.130  0.1158 -0.3606 -0.1028
 3947TIP3    H133332   0.908   1.431   1.212  1.3823 -1.8890  0.2077
 3947TIP3    H233333   0.924   1.386   1.068  0.4648 -0.1736 -0.4715
 3948TIP3   OH233334   4.445   5.057   2.930  0.6630  0.6122  0.2540
 3948TIP3    H133335   4.483   5.053   2.842 -2.6697  0.6619 -1.3637
 3948TIP3    H233336   4.446   5.150   2.952 -0.3855  0.8870 -0.7425
 3949TIP3   OH233337   5.350   0.823  13.611 -0.5101  0.2565  0.1109
 3949TIP3    H133338   5.267   0.859  13.643  0.7591  1.8105  1.7958
 3949TIP3    H233339   5.324   0.743  13.565 -2.7824 -0.3938  2.2783
 3950TIP3   OH233340   4.427   3.240  15.241 -0.0150  0.1827 -0.3043
 3950TIP3    H133341   4.474   3.188  15.306 -0.6153  0.0910  0.0688
 3950TIP3    H233342   4.492   3.302  15.208  0.5721 -0.4509 -0.3716
 3951TIP3   OH233343   2.258   1.689  15.384  0.1703  0.3297 -0.2545
 3951TIP3    H133344   2.296   1.772  15.411 -1.3123  0.9626  0.0114
 3951TIP3    H233345   2.266   1.688  15.289  0.6961  0.5246 -0.2100
 3952TIP3   OH233346   3.952   0.951  14.561 -0.2974  0.0332  0.5387
 3952TIP3    H133347   4.041   0.942  14.525 -0.6362  1.2900 -0.6948
 3952TIP3    H233348   3.898   0.896  14.504 -0.6713  1.1969 -0.2639
 3953TIP3   OH233349   3.628   3.357   1.911  0.0021 -0.2331  0.4079
 3953TIP3    H133350   3.666   3.445   1.904 -1.3830  0.3078 -1.1207
 3953TIP3    H233351   3.629   3.324   1.821 -1.0600 -1.0744  0.6862
 3954TIP3   OH233352   4.800   3.943  16.445  0.3721 -0.0990 -0.2452
 3954TIP3    H133353   4.730   3.896  16.490  0.2829  1.5442  1.4819
 3954TIP3    H233354   4.780   3.933  16.352 -1.8011 -0.2073  0.1759
 3955TIP3   OH233355   5.850   6.144  12.341 -0.1204  0.4016 -0.3284
 3955TIP3    H133356   5.846   6.239  12.352 -1.8511  0.3293  0.0091
 3955TIP3    H233357   5.805   6.128  12.258  2.9968  0.0663 -2.1025
 3956TIP3   OH233358   1.415   6.092  12.158 -0.0319 -0.5091  0.4406
 3956TIP3    H133359   1.451   6.097  12.246  0.8991 -2.2346  0.1959
 3956TIP3    H233360   1.337   6.148  12.161  0.6380  0.4210  1.9960
 3957TIP3   OH233361   0.799   0.376   3.559 -0.1619  0.4620  0.4627
 3957TIP3    H133362   0.892   0.368   3.581  0.3250  0.8456 -1.3097
 3957TIP3    H233363   0.754   0.365   3.643  1.3326 -2.0879  1.0403
 3958TIP3   OH233364   1.421   0.759   5.240  0.0535  0.5337 -0.3745
 3958TIP3    H133365   1.389   0.827   5.299  1.1570  1.0359 -0.3243
 3958TIP3    H233366   1.351   0.694   5.238  0.1104  0.3582  1.6955
 3959TIP3   OH233367   3.260   3.002   4.546 -0.7181  0.2538 -0.1724
 3959TIP3    H133368   3.231   2.967   4.631  0.2599  0.9577  0.4783
 3959TIP3    H233369   3.184   3.046   4.510 -1.1128  0.0433  0.3974
 3960TIP3   OH233370   4.254   2.134  14.270  0.6188  0.0360 -0.0450
 3960TIP3    H133371   4.318   2.094  14.329 -0.2756  0.4996  1.2842
 3960TIP3    H233372   4.173   2.087  14.287  0.9044 -1.7185 -2.9589
 3961TIP3   OH233373   1.514   5.633   1.972  0.5195  0.5026  0.0009
 3961TIP3    H133374   1.589   5.599   2.021 -0.0270 -0.7662  0.0035
 3961TIP3    H233375   1.548   5.648   1.884  0.5946 -0.8541 -0.2203
 3962TIP3   OH233376   2.018   1.250  15.077  0.1390 -0.7310 -0.3082
 3962TIP3    H133377   2.096   1.214  15.035  0.1488 -0.8723 -0.1714
 3962TIP3    H233378   1.972   1.173  15.113 -0.3772 -0.7172 -0.9178
 3963TIP3   OH233379   4.497   6.324   3.494  0.1626  0.4550 -0.0883
 3963TIP3    H133380   4.462   6.309   3.582 -3.0510  0.4914 -1.2179
 3963TIP3    H233381   4.538   6.411   3.499 -2.5217  1.7894  0.7707
 3964TIP3   OH233382   2.155   0.030   0.997 -0.3517  0.5982  0.0515
 3964TIP3    H133383   2.183  -0.043   0.942  1.8623  1.2864  0.1868
 3964TIP3    H233384   2.148  -0.008   1.085  0.4348  0.4375  0.0553
 3965TIP3   OH233385   3.731   6.033   4.898  0.0312 -0.0090 -0.8101
 3965TIP3    H133386   3.795   6.092   4.860 -0.0604  1.3372  1.0062
 3965TIP3    H233387   3.782   5.977   4.957  0.0415 -1.4380 -2.1327
 3966TIP3   OH233388   5.463   6.256   4.550 -0.1090 -0.3890 -0.1679
 3966TIP3    H133389   5.451   6.225   4.460 -0.6917 -0.3271 -0.1207
 3966TIP3    H233390   5.557   6.265   4.560 -0.0258 -0.5786 -0.7129
 3967TIP3   OH233391   1.734   1.096  13.691  0.7546 -0.1567  0.2181
 3967TIP3    H133392   1.737   1.069  13.599  1.7598 -2.4298  0.8471
 3967TIP3    H233393   1.711   1.188  13.688  1.2017 -0.0551 -2.3349
 3968TIP3   OH233394   6.729   6.288   1.328  0.4125  0.0148 -0.0590
 3968TIP3    H133395   6.680   6.342   1.265 -2.1104 -0.7889  1.1057
 3968TIP3    H233396   6.816   6.327   1.329 -0.9265  3.3592 -0.1740
 3969TIP3   OH233397   5.161   6.311  14.308  0.0129  0.0413 -0.1063
 3969TIP3    H133398   5.209   6.286  14.386 -0.5756  2.1077  1.0093
 3969TIP3    H233399   5.117   6.231  14.279  2.4487 -1.4125 -0.0147
 3970TIP3   OH233400   6.167   3.795   0.343  0.0643 -0.1795  0.4782
 3970TIP3    H133401   6.254   3.817   0.374 -0.0575 -2.5300  2.8014
 3970TIP3    H233402   6.173   3.704   0.316 -2.1271 -1.2731  3.1303
 3971TIP3   OH233403   2.660   0.831  12.419  0.0243  0.1922 -0.7008
 3971TIP3    H133404   2.676   0.753  12.472 -1.5365  0.4315  0.2015
 3971TIP3    H233405   2.606   0.801  12.346 -0.9754  0.4760 -0.0981
 3972TIP3   OH233406   0.596   0.472  11.711  0.3179  0.3069  0.0074
 3972TIP3    H133407   0.612   0.531  11.636 -1.3021  0.7361 -0.0401
 3972TIP3    H233408   0.559   0.529  11.778  0.3990 -0.3484  0.6183
 3973TIP3   OH233409   0.581   6.825  11.980  0.3405  0.0006 -0.5011
 3973TIP3    H133410   0.639   6.885  11.935  1.0449  0.0491  0.4355
 3973TIP3    H233411   0.547   6.875  12.055 -2.0779  0.4670 -1.7918
 3974TIP3   OH233412   4.446   4.462   1.068  0.8948 -0.0273 -0.2342
 3974TIP3    H133413   4.534   4.471   1.106  1.5015  0.4439 -1.6745
 3974TIP3    H233414   4.402   4.544   1.090  1.3425  0.3670 -0.7863
 3975TIP3   OH233415   3.900   6.791  11.873 -0.1818  0.1380 -0.2379
 3975TIP3    H133416   3.811   6.760  11.858 -0.5443  0.0461  1.7902
 3975TIP3    H233417   3.950   6.712  11.893  0.2251  0.2595 -0.7518
 3976TIP3   OH233418   5.510   5.008  16.053 -0.3418 -0.1239  0.6501
 3976TIP3    H133419   5.501   5.095  16.093  0.5674 -0.4989  1.7293
 3976TIP3    H233420   5.530   4.950  16.126  1.7540 -0.7849 -0.3646
 3977TIP3   OH233421   3.503   6.632   3.672  0.6398 -0.4172 -0.1471
 3977TIP3    H133422   3.545   6.632   3.759  0.5420 -1.1108 -0.0928
 3977TIP3    H233423   3.528   6.548   3.634 -0.2618 -0.6081 -0.3337
 3978TIP3   OH233424   5.217   3.924  12.613  0.1310  0.0872 -0.2563
 3978TIP3    H133425   5.155   3.996  12.600 -2.4024 -1.9525 -0.4146
 3978TIP3    H233426   5.245   3.900  12.524  0.2092  0.2707 -0.2799
 3979TIP3   OH233427   5.375   5.277   5.973  0.1424  0.4033  0.4551
 3979TIP3    H133428   5.376   5.276   6.069  2.4895  0.9015  0.5135
 3979TIP3    H233429   5.436   5.207   5.948 -0.4647  0.2623 -0.6752
 3980TIP3   OH233430   1.986   0.396  12.397 -0.3241  0.2602  0.6219
 3980TIP3    H133431   1.898   0.400  12.358  0.0908  0.7577 -0.3063
 3980TIP3    H233432   2.040   0.357  12.328  0.1987  0.0226  1.1663
 3981TIP3   OH233433   1.226   3.678  14.168  0.2997  0.0470 -0.1851
 3981TIP3    H133434   1.302   3.623  14.150  0.9530  0.9444 -0.1849
 3981TIP3    H233435   1.260   3.753  14.217 -0.6338  0.2936  0.1228
 3982TIP3   OH233436   5.709   1.433   1.602 -0.3022  0.1472 -0.0109
 3982TIP3    H133437   5.616   1.408   1.602 -0.4961  0.6730 -2.6531
 3982TIP3    H233438   5.708   1.527   1.584  0.7465  0.3090  0.7139
 3983TIP3   OH233439   6.729   0.475  13.655 -0.0429  0.6160  0.0744
 3983TIP3    H133440   6.715   0.559  13.699 -0.7858  0.7831 -0.4509
 3983TIP3    H233441   6.748   0.414  13.726 -0.6914  0.9826  0.5778
 3984TIP3   OH233442   6.648   0.334  16.209  0.1574 -0.7064  0.2206
 3984TIP3    H133443   6.573   0.367  16.257 -0.4818 -4.2629  1.9640
 3984TIP3    H233444   6.638   0.239  16.209  2.2187 -1.1481 -3.6459
 3985TIP3   OH233445   1.226   0.790  11.531 -0.0126  0.0881  0.2365
 3985TIP3    H133446   1.221   0.747  11.445 -1.3863 -0.4301  0.5327
 3985TIP3    H233447   1.318   0.784  11.556  0.0666 -1.6403 -0.2922
 3986TIP3   OH233448   3.125   2.708  11.132  0.2957  0.7556 -0.0919
 3986TIP3    H133449   3.112   2.756  11.214  0.1554  1.3141 -0.4304
 3986TIP3    H233450   3.060   2.637  11.135  0.2349  0.8249  0.2408
 3987TIP3   OH233451   4.990   1.730   6.829  0.0246  0.1513  0.4828
 3987TIP3    H133452   4.935   1.794   6.784 -0.4329 -0.8305 -0.4114
 3987TIP3    H233453   4.971   1.647   6.785  1.2516 -0.4478  1.0220
 3988TIP3   OH233454   2.842   5.223  17.102 -0.3744  0.1832  0.2403
 3988TIP3    H133455   2.812   5.293  17.044  2.1479  0.3751 -0.9554
 3988TIP3    H233456   2.816   5.252  17.190 -3.5312  0.2924 -0.6043
 3989TIP3   OH233457   1.683   2.995   3.670  0.5600 -0.6492 -0.6032
 3989TIP3    H133458   1.649   2.978   3.758 -1.0966  1.1357 -0.8345
 3989TIP3    H233459   1.625   2.945   3.612  0.5718 -0.4509 -0.7870
 3990TIP3   OH233460   5.322   4.884  16.342 -1.2916 -0.9529  0.6013
 3990TIP3    H133461   5.380   4.874  16.417 -1.5685  0.2796  0.9885
 3990TIP3    H233462   5.329   4.800  16.296  2.4807 -0.1507 -0.6079
 3991TIP3   OH233463   3.972   5.226  14.336 -0.2446  0.0985  0.0723
 3991TIP3    H133464   3.943   5.295  14.395  0.1710 -0.5133  1.0135
 3991TIP3    H233465   4.067   5.239  14.329  0.1859 -1.5531  1.8897
 3992TIP3   OH233466   4.133   3.780   0.565 -0.2003 -0.0973 -0.0307
 3992TIP3    H133467   4.179   3.749   0.643 -1.5005 -0.0579  0.7790
 3992TIP3    H233468   4.105   3.869   0.588 -0.0395  0.1611 -0.8007
 3993TIP3   OH233469   1.848   4.934   2.651 -0.5568  0.7704  0.3042
 3993TIP3    H133470   1.795   4.912   2.727 -1.4821  0.8261 -0.3106
 3993TIP3    H233471   1.790   4.920   2.576  0.8465 -0.9671 -0.5412
 3994TIP3   OH233472   5.731   3.247  12.917 -0.1238 -0.1437 -0.1251
 3994TIP3    H133473   5.766   3.331  12.886  0.5805 -0.2971  0.2476
 3994TIP3    H233474   5.771   3.234  13.003  0.1620 -1.1117 -0.3951
 3995TIP3   OH233475   1.507   6.167   4.904 -0.3682 -0.1077 -0.1915
 3995TIP3    H133476   1.591   6.124   4.916 -0.7571 -0.6124  0.9040
 3995TIP3    H233477   1.489   6.158   4.810  0.7221 -0.1131 -0.4150
 3996TIP3   OH233478   3.465   5.455   2.232  0.1731 -0.2589  0.4466
 3996TIP3    H133479   3.409   5.423   2.161  0.9874 -0.8751  0.0665
 3996TIP3    H233480   3.547   5.406   2.222  1.1997  1.3977  0.2840
 3997TIP3   OH233481   2.005   2.260  12.758  0.0293  0.1008 -0.4272
 3997TIP3    H133482   2.069   2.204  12.801  0.1535  1.7008  1.6314
 3997TIP3    H233483   2.057   2.320  12.704  0.1608  0.3551 -0.0237
 3998TIP3   OH233484   6.426   5.412  15.683  0.2309  0.1984 -0.3564
 3998TIP3    H133485   6.336   5.435  15.704  0.3908  0.5730 -0.0627
 3998TIP3    H233486   6.461   5.490  15.639  0.2311 -0.1684 -1.0195
 3999TIP3   OH233487   6.139   0.832   4.790 -0.2713 -0.1572 -0.3668
 3999TIP3    H133488   6.079   0.834   4.715  0.6052  0.1525 -1.0846
 3999TIP3    H233489   6.086   0.802   4.863 -1.8772  2.2199 -0.4574
 4000TIP3   OH233490   5.648   4.803  14.051  0.3502 -0.1524 -0.2996
 4000TIP3    H133491   5.618   4.870  14.113  0.5291 -2.3662  2.3717
 4000TIP3    H233492   5.702   4.852  13.988 -0.5794  2.3809  0.7239
 4001TIP3   OH233493   4.915   3.629  12.009 -0.3274  0.0236 -0.0416
 4001TIP3    H133494   4.864   3.602  11.933  0.3031  0.4518 -0.6244
 4001TIP3    H233495   5.001   3.651  11.974 -0.1689  0.6619  0.7269
 4002TIP3   OH233496   4.203   3.547  10.533  0.3046  0.1105 -0.0179
 4002TIP3    H133497   4.258   3.502  10.597  0.8524  0.0065 -0.5630
 4002TIP3    H233498   4.189   3.634  10.571  0.6708  0.0694  0.2190
 4003TIP3   OH233499   3.081   0.485  12.391  0.1802 -0.5533 -0.2106
 4003TIP3    H133500   3.120   0.476  12.478  2.1695 -1.6533 -1.1460
 4003TIP3    H233501   3.087   0.579  12.372 -2.2324  0.0551  1.6244
 4004TIP3   OH233502   3.159   6.156  11.923  0.2718  0.1595 -0.1611
 4004TIP3    H133503   3.110   6.209  11.860  0.0352 -0.2031 -0.2871
 4004TIP3    H233504   3.191   6.082  11.872  1.8919  0.9474 -0.3285
 4005TIP3   OH233505   1.890   0.917  14.393 -0.3725  0.6014 -0.0462
 4005TIP3    H133506   1.948   0.867  14.335  3.1735  2.2268  1.7605
 4005TIP3    H233507   1.879   1.001  14.348 -1.2750  0.3312 -0.3366
 4006TIP3   OH233508   5.195   0.201   5.303 -0.5418  0.0910  0.3971
 4006TIP3    H133509   5.285   0.169   5.294 -0.6972 -0.1424 -0.4064
 4006TIP3    H233510   5.204   0.286   5.345  0.0316 -0.0942  0.6596
 4007TIP3   OH233511   1.121   3.064  13.463  0.2013  0.3566 -0.0456
 4007TIP3    H133512   1.187   3.009  13.420  0.1929 -1.8680  2.5666
 4007TIP3    H233513   1.038   3.037  13.424  0.2207 -1.4488  1.0700
 4008TIP3   OH233514   2.733   4.034  14.470 -0.0444  0.3140  0.1472
 4008TIP3    H133515   2.782   4.040  14.388  0.6597  0.6574  0.5830
 4008TIP3    H233516   2.678   4.112  14.470 -1.0802 -0.3896 -0.6382
 4009TIP3   OH233517   4.127   1.250  11.077  0.0896 -0.7324  0.1309
 4009TIP3    H133518   4.115   1.216  11.166  0.2603 -0.4583  0.2576
 4009TIP3    H233519   4.209   1.209  11.047  1.3283  1.0186  0.9793
 4010TIP3   OH233520   1.447   2.535  16.406 -0.1886 -0.3714  0.5502
 4010TIP3    H133521   1.475   2.481  16.479 -0.0033 -1.0795 -0.0315
 4010TIP3    H233522   1.485   2.493  16.329  0.1428  0.7108  0.0943
 4011TIP3   OH233523   0.525   2.892   1.999 -0.8730  0.5728 -0.0623
 4011TIP3    H133524   0.502   2.814   1.948  0.5481  0.3751 -0.4435
 4011TIP3    H233525   0.482   2.879   2.083 -0.3817 -0.8138  0.0036
 4012TIP3   OH233526   1.370   6.421   0.131 -0.0749  0.2650 -0.8526
 4012TIP3    H133527   1.367   6.408   0.226 -1.3045 -1.4245 -1.0824
 4012TIP3    H233528   1.463   6.426   0.111  0.2208  2.9698  0.6756
 4013TIP3   OH233529   4.729   3.817   4.284  0.0610 -0.2386 -0.3117
 4013TIP3    H133530   4.693   3.751   4.343 -0.5066 -0.8671 -1.3479
 4013TIP3    H233531   4.818   3.833   4.317 -0.8171  0.7628  1.8220
 4014TIP3   OH233532   5.648   0.926  16.469 -0.4256  0.0011  0.4673
 4014TIP3    H133533   5.597   0.845  16.481  0.8741 -0.8516  0.4873
 4014TIP3    H233534   5.735   0.895  16.443 -0.5838  1.4934 -2.1078
 4015TIP3   OH233535   4.748   0.623  15.717  0.0008 -0.2295  0.0836
 4015TIP3    H133536   4.789   0.560  15.657  0.7527 -1.0387  1.4123
 4015TIP3    H233537   4.661   0.639  15.678  0.3326 -0.9985 -1.0283
 4016TIP3   OH233538   0.979   4.265  12.112  0.0516  0.1610  0.3303
 4016TIP3    H133539   0.953   4.271  12.020 -1.5098  2.4794  0.8617
 4016TIP3    H233540   1.070   4.233  12.108  0.4124  1.2378 -2.0688
 4017TIP3   OH233541   4.997   4.488  15.419 -0.8868 -0.5728  0.0355
 4017TIP3    H133542   5.031   4.423  15.357 -2.4560 -0.2799 -1.2038
 4017TIP3    H233543   4.925   4.443  15.463 -1.1423 -0.1092  0.1016
 4018TIP3   OH233544   6.457   3.979   4.768 -0.3045  0.0842 -0.3662
 4018TIP3    H133545   6.498   4.045   4.711 -0.6709  0.8601  0.2614
 4018TIP3    H233546   6.398   4.028   4.824 -0.7009 -0.8032  0.0150
 4019TIP3   OH233547   6.527   4.414  15.630 -0.4707  0.0714  0.0261
 4019TIP3    H133548   6.603   4.355  15.635 -0.7552 -0.2376  1.2308
 4019TIP3    H233549   6.558   4.496  15.669 -1.5176 -0.9919  3.5274
 4020TIP3   OH233550   4.056   1.735  15.323 -0.7573  0.1169  0.0356
 4020TIP3    H133551   4.016   1.725  15.409 -1.4621  0.7474 -0.2113
 4020TIP3    H233552   4.020   1.663  15.271  0.8890 -1.2584  0.6761
 4021TIP3   OH233553   3.564   5.427  12.589 -0.0760 -0.6684 -0.1640
 4021TIP3    H133554   3.613   5.357  12.547 -1.4637 -1.1851 -1.0015
 4021TIP3    H233555   3.530   5.388  12.669  2.5310  0.3039  1.5661
 4022TIP3   OH233556   2.589   1.470   5.361 -0.3516  0.0905  0.1647
 4022TIP3    H133557   2.546   1.432   5.284 -3.0942  3.2970 -0.1183
 4022TIP3    H233558   2.652   1.532   5.324 -0.9762  0.9266  0.4842
 4023TIP3   OH233559   2.798   2.560  10.324 -0.1425 -0.2397 -0.0536
 4023TIP3    H133560   2.735   2.616  10.369 -0.1013  0.8036 -1.2340
 4023TIP3    H233561   2.882   2.580  10.366 -0.4817 -1.3171  1.2302
 4024TIP3   OH233562   3.985   5.126   3.656 -0.0424 -0.2081  0.4256
 4024TIP3    H133563   4.031   5.192   3.708 -1.4798  0.2109  1.2293
 4024TIP3    H233564   4.036   5.119   3.576  0.1681  1.8918  0.3222
 4025TIP3   OH233565   2.178   3.175   0.723 -0.4396 -0.8255  0.0989
 4025TIP3    H133566   2.170   3.182   0.818  0.5975 -0.5955  0.1907
 4025TIP3    H233567   2.088   3.170   0.691 -0.8609  0.4492  0.9943
 4026TIP3   OH233568   3.408   3.798  14.848 -0.4706  0.0400 -0.8259
 4026TIP3    H133569   3.465   3.869  14.817  0.8436 -0.4953  0.2672
 4026TIP3    H233570   3.320   3.829  14.829  0.1267  1.3901 -1.5732
 4027TIP3   OH233571   2.495   6.677   1.340  0.0123 -0.1328 -0.4468
 4027TIP3    H133572   2.512   6.609   1.405 -2.3211 -0.8761 -0.5345
 4027TIP3    H233573   2.489   6.758   1.391  1.0435 -0.2452 -0.1241
 4028TIP3   OH233574   3.050   2.572   2.337  0.0152  0.4059  0.0631
 4028TIP3    H133575   3.087   2.509   2.276 -0.0728  0.9459 -0.5495
 4028TIP3    H233576   3.036   2.522   2.417 -0.6824 -0.5183 -0.6246
 4029TIP3   OH233577   2.693   5.306  14.428 -0.4469 -0.4324  0.4009
 4029TIP3    H133578   2.698   5.304  14.524 -2.8072  1.2867  0.6634
 4029TIP3    H233579   2.742   5.383  14.403 -0.0054 -0.7649  0.2431
 4030TIP3   OH233580   0.583   6.498  16.075 -0.1754 -0.3379  0.5991
 4030TIP3    H133581   0.571   6.473  15.984  1.0116 -0.2890  0.4160
 4030TIP3    H233582   0.501   6.474  16.118 -0.0672 -2.0879 -0.1123
 4031TIP3   OH233583   2.168   0.098   4.320 -0.7479 -0.2778 -0.0888
 4031TIP3    H133584   2.254   0.099   4.362 -0.7385 -0.6642 -0.0948
 4031TIP3    H233585   2.154   0.188   4.290 -0.2324 -0.2766 -0.3262
 4032TIP3   OH233586   1.218   6.159   6.359 -0.5511 -0.1984  0.1418
 4032TIP3    H133587   1.185   6.169   6.448  1.0189 -1.3862  0.9047
 4032TIP3    H233588   1.211   6.247   6.321  0.3546  0.7412  2.0328
 4033TIP3   OH233589   1.463   6.544  11.941  0.1752 -0.1494  0.4302
 4033TIP3    H133590   1.494   6.613  11.883  0.3580  1.1517  2.0178
 4033TIP3    H233591   1.369   6.537  11.922  0.4688 -0.6782 -0.9188
 4034TIP3   OH233592   6.625   3.245   1.497  0.0501  0.1517  0.1192
 4034TIP3    H133593   6.706   3.275   1.539 -0.2528 -0.5815  1.2850
 4034TIP3    H233594   6.652   3.169   1.445  0.2212  0.3160 -0.0355
 4035TIP3   OH233595   1.715   1.075  13.402  0.9554 -0.0083 -0.1063
 4035TIP3    H133596   1.740   1.085  13.311  0.0279  1.1509 -0.2528
 4035TIP3    H233597   1.639   1.016  13.399  1.0802 -0.1748 -0.0485
 4036TIP3   OH233598   5.954   5.400   1.855  0.0472 -0.3616 -0.2768
 4036TIP3    H133599   5.914   5.416   1.940  2.4027  1.0234  0.6631
 4036TIP3    H233600   5.897   5.444   1.793  0.4261  2.2601  1.0964
 4037TIP3   OH233601   1.345   1.374   5.707 -0.6704  0.1642  0.5792
 4037TIP3    H133602   1.361   1.445   5.645 -1.3190  0.3658  0.6315
 4037TIP3    H233603   1.277   1.320   5.666  0.0174 -0.5875  0.4167
 4038TIP3   OH233604   2.736   1.447  11.164  0.3283 -0.2298 -0.2220
 4038TIP3    H133605   2.705   1.538  11.159  0.3188 -0.0746  1.8319
 4038TIP3    H233606   2.756   1.433  11.256 -1.3719 -2.8729 -0.1401
 4039TIP3   OH233607   3.719   5.138  14.817 -0.0287 -0.6667 -0.5702
 4039TIP3    H133608   3.795   5.158  14.762  0.3690  1.7639  0.7341
 4039TIP3    H233609   3.659   5.211  14.803 -0.2251 -0.3381  1.6026
 4040TIP3   OH233610   2.510   4.963  15.002  0.5088 -0.5327 -0.2344
 4040TIP3    H133611   2.521   4.880  14.955  0.6568  0.1164 -1.4055
 4040TIP3    H233612   2.417   4.967  15.023  0.6441 -1.3619  0.5661
 4041TIP3   OH233613   0.839   4.312  13.416  0.3433 -0.1385  0.4761
 4041TIP3    H133614   0.933   4.319  13.431  0.3541 -0.1901  0.4353
 4041TIP3    H233615   0.826   4.220  13.394  0.2671 -0.1560  0.5921
 4042TIP3   OH233616   5.065   2.909   2.187  0.6246  0.3670 -0.0746
 4042TIP3    H133617   5.121   2.871   2.255 -0.5429 -0.5776  0.3762
 4042TIP3    H233618   5.126   2.933   2.117  1.6573 -0.1035  0.6375
 4043TIP3   OH233619   2.604   5.334  13.239 -1.0872  0.1107 -0.0031
 4043TIP3    H133620   2.545   5.272  13.284 -2.4993  0.4584 -1.2879
 4043TIP3    H233621   2.555   5.361  13.162  0.9915  0.0344 -1.4322
 4044TIP3   OH233622   5.400   2.024   5.156  0.4685 -0.0173 -0.2024
 4044TIP3    H133623   5.484   1.991   5.124  2.1036  2.2828  1.4380
 4044TIP3    H233624   5.385   2.104   5.105  0.1591  0.4960  0.6716
 4045TIP3   OH233625   5.252   1.958  16.892 -0.5685 -0.3367  0.0985
 4045TIP3    H133626   5.217   1.894  16.954 -0.5666 -1.3379 -0.9085
 4045TIP3    H233627   5.287   2.028  16.947 -0.7906 -1.0843  1.2167
 4046TIP3   OH233628   4.374   0.275  11.831 -0.8190 -0.5223 -0.2226
 4046TIP3    H133629   4.312   0.265  11.759 -0.9792  0.8749 -0.3050
 4046TIP3    H233630   4.412   0.362  11.818  1.6161 -1.5439 -0.5246
 4047TIP3   OH233631   3.035   5.335  12.128 -0.5215  0.0327  0.4669
 4047TIP3    H133632   3.053   5.424  12.099 -1.0895 -0.0922 -0.2845
 4047TIP3    H233633   2.989   5.346  12.211 -0.6057  0.4407  0.3698
 4048TIP3   OH233634   3.257   5.208  12.913 -0.4127  0.3276 -0.2302
 4048TIP3    H133635   3.180   5.152  12.912 -0.0054 -0.2435 -0.2586
 4048TIP3    H233636   3.315   5.169  12.979 -0.6502  1.4566  0.6773
 4049TIP3   OH233637   6.731   5.219  16.908 -0.6025  0.0444  0.2104
 4049TIP3    H133638   6.804   5.221  16.970 -1.0447  0.8736  0.7296
 4049TIP3    H233639   6.761   5.162  16.837  1.4534  2.0755 -0.6848
 4050TIP3   OH233640   5.445   0.418  14.272 -0.2852 -0.4109  0.1300
 4050TIP3    H133641   5.478   0.493  14.320  0.5466 -0.1183 -0.8528
 4050TIP3    H233642   5.489   0.343  14.311  0.8133 -0.1203 -0.5063
 4051TIP3   OH233643   6.147   4.316   5.162  0.4155 -0.4744  0.4046
 4051TIP3    H133644   6.066   4.363   5.183  1.3094  1.4165 -0.2447
 4051TIP3    H233645   6.186   4.364   5.090  0.4704 -3.3381 -1.6454
 4052TIP3   OH233646   4.137   4.128  13.869  0.3240  0.3567  0.4834
 4052TIP3    H133647   4.135   4.188  13.943  0.9986  0.9129  0.0679
 4052TIP3    H233648   4.057   4.076  13.877  0.3409  0.4825  1.5322
 4053TIP3   OH233649   2.532   3.643  17.180 -0.0815 -0.4208  0.3647
 4053TIP3    H133650   2.494   3.595  17.107  1.7356 -1.1841 -0.1093
 4053TIP3    H233651   2.473   3.626  17.254 -1.2508 -0.6434 -0.5998
 4054TIP3   OH233652   3.589   5.118  17.070 -0.0753 -0.0293  0.4651
 4054TIP3    H133653   3.514   5.081  17.024  0.0036 -3.1354  2.5332
 4054TIP3    H233654   3.665   5.083  17.025  0.1398  1.1571 -0.1426
 4055TIP3   OH233655   1.479   4.559  16.368  0.1756 -0.1206  0.0144
 4055TIP3    H133656   1.548   4.512  16.415 -0.2913 -1.4925 -0.5995
 4055TIP3    H233657   1.412   4.493  16.353 -0.5054  0.7511 -0.9174
 4056TIP3   OH233658   6.069   3.839   2.811  0.3614  0.0115  0.0217
 4056TIP3    H133659   6.151   3.866   2.853  0.5035 -0.6021  0.1434
 4056TIP3    H233660   6.071   3.743   2.815 -0.1252 -0.0159 -0.4309
 4057TIP3   OH233661   3.654   0.474  13.067 -0.4066  0.0465  0.3291
 4057TIP3    H133662   3.693   0.402  13.116 -2.3557 -0.4562  1.2629
 4057TIP3    H233663   3.728   0.521  13.029  0.9396 -2.2581 -0.0497
 4058TIP3   OH233664   2.354   2.147   4.862  0.3469  0.1677 -0.4722
 4058TIP3    H133665   2.360   2.155   4.957 -1.0188 -0.1554 -0.3289
 4058TIP3    H233666   2.374   2.055   4.845  1.8089  0.4958 -0.6430
 4059TIP3   OH233667   4.948   6.073   4.850  0.0656  0.4242  0.7430
 4059TIP3    H133668   4.891   6.058   4.774 -0.6662  1.8869  0.9750
 4059TIP3    H233669   5.034   6.093   4.812 -0.2274  0.8693  0.2999
 4060TIP3   OH233670   4.088   2.297  16.489 -0.3136  0.5636 -0.5030
 4060TIP3    H133671   4.018   2.231  16.481 -0.2348  0.3126  0.7459
 4060TIP3    H233672   4.089   2.341  16.404  0.7718 -2.1529 -2.0033
 4061TIP3   OH233673   6.204   6.001   4.489 -0.2910 -0.1397 -0.3319
 4061TIP3    H133674   6.281   5.959   4.451 -0.1819  0.1016 -0.3797
 4061TIP3    H233675   6.130   5.965   4.440 -0.2067 -0.3503 -0.3045
 4062TIP3   OH233676   5.075   3.291  17.098 -0.1168  0.4449  0.1451
 4062TIP3    H133677   5.137   3.280  17.026 -0.6699  0.8788 -0.4167
 4062TIP3    H233678   5.081   3.209  17.147  0.5662  0.3025 -0.1589
 4063TIP3   OH233679   1.264   3.626   6.380  0.0419 -0.3167  0.9563
 4063TIP3    H133680   1.219   3.676   6.448 -0.3559 -1.6059  1.6784
 4063TIP3    H233681   1.269   3.537   6.416  0.6505 -0.8135 -0.3207
 4064TIP3   OH233682   4.762   2.737  14.637 -0.0266  0.0202 -0.5242
 4064TIP3    H133683   4.836   2.733  14.576 -1.2304 -2.1225 -1.9744
 4064TIP3    H233684   4.685   2.743  14.581 -1.0541  1.7045  0.9446
 4065TIP3   OH233685   0.010   2.696  12.461  0.2603 -0.3616 -0.3219
 4065TIP3    H133686   0.029   2.607  12.490  0.8068 -0.2509 -0.3243
 4065TIP3    H233687   0.056   2.752  12.524 -0.3221 -0.0715 -0.1468
 4066TIP3   OH233688   2.175   6.465  14.168  0.2499  0.0949 -0.4855
 4066TIP3    H133689   2.125   6.451  14.249 -0.7491 -0.9496 -1.2423
 4066TIP3    H233690   2.146   6.394  14.110  0.9849  0.7920 -1.7425
 4067TIP3   OH233691   3.324   5.471   3.203 -0.0911  0.1287  0.3759
 4067TIP3    H133692   3.381   5.401   3.235  0.4631  0.5949  0.4319
 4067TIP3    H233693   3.248   5.468   3.261  0.0122 -0.3071  0.4946
 4068TIP3   OH233694   3.874   6.239   1.273 -0.2319 -0.5840  0.0701
 4068TIP3    H133695   3.784   6.233   1.305 -0.9094  0.0404 -1.6098
 4068TIP3    H233696   3.865   6.256   1.180  1.6444 -1.7084 -0.3698
 4069TIP3   OH233697   1.045   3.603  13.518  0.6873  0.1981 -0.2481
 4069TIP3    H133698   0.953   3.590  13.493 -0.2134  1.4084  2.1463
 4069TIP3    H233699   1.080   3.514  13.524 -0.9622 -0.4337  0.8445
 4070TIP3   OH233700   4.489   2.055   4.411 -0.0628  0.6396 -0.0768
 4070TIP3    H133701   4.561   2.056   4.474  0.5262  2.0030 -0.7267
 4070TIP3    H233702   4.411   2.074   4.462  0.4405  2.0103  0.2383
 4071TIP3   OH233703   0.728   6.367  16.809  0.4125 -0.4783 -0.4084
 4071TIP3    H133704   0.760   6.288  16.764 -0.3256 -0.2894 -1.2993
 4071TIP3    H233705   0.804   6.398  16.858  0.5894 -1.9975  0.3422
 4072TIP3   OH233706   2.574   0.016   2.056  0.4900  0.4734 -0.1767
 4072TIP3    H133707   2.575   0.013   1.960 -1.4066 -0.1176 -0.2224
 4072TIP3    H233708   2.567  -0.076   2.082 -1.4814  0.7423  0.4063
 4073TIP3   OH233709   1.808   5.812  16.426  0.2460 -0.4525 -0.2476
 4073TIP3    H133710   1.757   5.757  16.367  0.3040 -0.6690 -0.0964
 4073TIP3    H233711   1.750   5.826  16.501 -0.7771  1.7927 -1.3642
 4074TIP3   OH233712   4.665   3.883   6.171  0.8576  0.4680 -0.4598
 4074TIP3    H133713   4.688   3.793   6.196 -0.0798  0.4526  0.4054
 4074TIP3    H233714   4.703   3.937   6.239  1.5059  0.7497 -1.0356
 4075TIP3   OH233715   4.118   3.368  16.026  0.0714  0.0834  0.0506
 4075TIP3    H133716   4.169   3.359  16.107  0.0837  2.0225  0.3270
 4075TIP3    H233717   4.183   3.390  15.959 -0.0629 -0.4156 -0.2415
 4076TIP3   OH233718   3.186   5.435  15.430  0.0957 -0.0629  0.1513
 4076TIP3    H133719   3.275   5.413  15.404  0.2751 -1.2649  1.6556
 4076TIP3    H233720   3.196   5.507  15.492  0.0723 -0.5896  0.7705
 4077TIP3   OH233721   0.665   5.790   0.444  0.0480  0.0082 -0.3402
 4077TIP3    H133722   0.684   5.747   0.361 -0.2860 -1.1013  0.1256
 4077TIP3    H233723   0.582   5.751   0.472 -0.8294  1.7560 -0.3900
 4078TIP3   OH233724   2.291   1.301  15.210  0.2535  0.7776  0.1663
 4078TIP3    H133725   2.256   1.321  15.123  0.3194 -2.5727 -0.7492
 4078TIP3    H233726   2.215   1.307  15.268 -0.6893 -0.8562 -0.8381
 4079TIP3   OH233727   4.137   2.815  10.485 -0.1452  0.0659  0.0346
 4079TIP3    H133728   4.222   2.813  10.441  1.1790  1.0894  2.3426
 4079TIP3    H233729   4.115   2.723  10.500  0.8069 -0.2017 -0.1362
 4080TIP3   OH233730   6.015   2.313   4.864 -0.3084  0.2056 -0.1886
 4080TIP3    H133731   6.000   2.343   4.774  0.7309 -0.7038 -0.6839
 4080TIP3    H233732   6.093   2.258   4.858 -0.7422 -0.5865  1.1162
 4081TIP3   OH233733   5.660   0.998   3.138 -0.3065  0.2369 -0.6063
 4081TIP3    H133734   5.593   0.932   3.122 -1.5351  1.4209 -0.5712
 4081TIP3    H233735   5.706   1.006   3.054  1.8338 -2.6756  0.1553
 4082TIP3   OH233736   1.064   5.359   3.336 -0.2333  0.0764  0.0791
 4082TIP3    H133737   1.153   5.355   3.372 -0.0772  3.8445  0.5950
 4082TIP3    H233738   1.077   5.359   3.241  0.3590  0.5367  0.1497
 4083TIP3   OH233739   3.040   1.586   3.252  0.2223  0.1215  0.0161
 4083TIP3    H133740   2.971   1.562   3.190 -0.4043  0.0105  0.7323
 4083TIP3    H233741   3.119   1.546   3.217  0.3048  1.7029 -1.7641
 4084TIP3   OH233742   0.558   6.077   6.103  0.8322  0.5631  0.2048
 4084TIP3    H133743   0.585   6.149   6.159  1.0813  0.1701  0.5939
 4084TIP3    H233744   0.535   6.006   6.163 -2.0403  1.1647 -0.0228
 4085TIP3   OH233745   4.985   6.101  12.448  0.0267 -0.4832 -0.2453
 4085TIP3    H133746   5.019   6.015  12.426  0.8679  0.1726 -1.5770
 4085TIP3    H233747   5.056   6.144  12.495  0.2109  0.0730 -1.0279
 4086TIP3   OH233748   0.000   4.975   2.318 -0.7355  0.0405  0.0711
 4086TIP3    H133749   0.043   5.018   2.392 -0.4166  1.6712 -0.9965
 4086TIP3    H233750  -0.051   5.045   2.277  0.5645 -0.3065 -2.3193
 4087TIP3   OH233751   4.368   0.165  11.015  0.1960  0.0237  0.0723
 4087TIP3    H133752   4.344   0.081  11.056 -1.7680  0.9116  0.8682
 4087TIP3    H233753   4.404   0.140  10.929 -4.8899 -1.6409 -1.9495
 4088TIP3   OH233754   4.815   3.457   4.153  0.3472 -0.5474 -0.0100
 4088TIP3    H133755   4.781   3.397   4.220 -0.2059 -1.0838 -0.7516
 4088TIP3    H233756   4.736   3.495   4.113  0.6814  0.2222  0.0351
 4089TIP3   OH233757   6.055   2.351   6.193  0.2546  0.3439 -0.3094
 4089TIP3    H133758   6.050   2.256   6.186 -1.4340  0.4704 -1.4711
 4089TIP3    H233759   6.136   2.374   6.145  1.3192 -0.5447  0.9927
 4090TIP3   OH233760   6.513   2.137   5.451 -0.0394  0.5361 -0.0123
 4090TIP3    H133761   6.452   2.197   5.495  1.2027  1.2783  0.7596
 4090TIP3    H233762   6.481   2.050   5.474 -1.0807  0.8925 -0.0272
 4091TIP3   OH233763   0.498   6.600   2.496  0.3866  0.4342  0.4304
 4091TIP3    H133764   0.554   6.536   2.453 -0.7801 -1.9597  2.2048
 4091TIP3    H233765   0.553   6.677   2.507  2.2783 -0.6750 -0.7410
 4092TIP3   OH233766   6.099   2.464  14.810 -0.7795 -0.4788 -0.4405
 4092TIP3    H133767   6.077   2.505  14.893 -1.0335  0.6698 -1.0586
 4092TIP3    H233768   6.058   2.520  14.744  1.6464  0.1848 -1.4979
 4093TIP3   OH233769   0.117   3.056  11.491 -0.3627 -0.1865  0.6298
 4093TIP3    H133770   0.178   2.983  11.487  2.0426  1.7695 -1.2476
 4093TIP3    H233771   0.076   3.058  11.404  0.6251  1.4516  0.1672
 4094TIP3   OH233772   0.348   2.684  12.549  0.4004  0.1597 -0.1181
 4094TIP3    H133773   0.416   2.631  12.592  0.3388  0.9626  1.0161
 4094TIP3    H233774   0.321   2.747  12.616 -1.4594 -0.1218 -0.5525
 4095TIP3   OH233775   0.429   0.065   3.989 -0.0865 -0.0934  0.2871
 4095TIP3    H133776   0.465  -0.020   4.014 -1.8345 -0.5997  1.2899
 4095TIP3    H233777   0.353   0.044   3.935  0.6836  0.9122 -1.2636
 4096TIP3   OH233778   3.749   4.760   0.754  0.3203  0.7394 -0.0673
 4096TIP3    H133779   3.791   4.821   0.694 -0.2309  1.4315  0.2308
 4096TIP3    H233780   3.738   4.680   0.703 -0.3974  1.4030 -0.9980
 4097TIP3   OH233781   5.736   2.389   5.175 -0.2431  0.8428 -0.3434
 4097TIP3    H133782   5.822   2.350   5.164 -0.7600 -0.3158 -0.4635
 4097TIP3    H233783   5.707   2.410   5.086 -1.0402 -0.9767 -0.5647
 4098TIP3   OH233784   2.648   4.506  15.699 -0.1342  0.1594  0.2181
 4098TIP3    H133785   2.613   4.418  15.688  1.1152 -0.8531  3.2999
 4098TIP3    H233786   2.592   4.546  15.766 -0.5450  1.6854 -0.9641
 4099TIP3   OH233787   5.326   2.074  15.379  0.5869  0.6426  0.0503
 4099TIP3    H133788   5.410   2.050  15.416  0.3921  1.4130  1.0384
 4099TIP3    H233789   5.347   2.115  15.295  1.2028  0.9403  0.3477
 4100TIP3   OH233790   1.869   2.689   4.964 -0.2048 -0.7231 -0.0695
 4100TIP3    H133791   1.936   2.639   4.919 -0.0945 -0.6530  0.0176
 4100TIP3    H233792   1.792   2.683   4.907 -0.7587 -2.5041  0.8007
 4101TIP3   OH233793   0.890   1.827  12.359 -0.0923 -0.1023  0.0199
 4101TIP3    H133794   0.981   1.805  12.341 -0.5320 -0.8364 -1.4933
 4101TIP3    H233795   0.871   1.784  12.443  0.9952  0.2538  0.4678
 4102TIP3   OH233796   4.169   1.588   3.004 -0.0789 -0.7740 -0.5179
 4102TIP3    H133797   4.134   1.603   3.092 -0.8083 -1.8124 -0.6190
 4102TIP3    H233798   4.207   1.672   2.979 -2.6751  0.5119 -0.4654
 4103TIP3   OH233799   6.613   3.264   4.789  0.1480  0.1418 -0.4720
 4103TIP3    H133800   6.687   3.255   4.849 -1.2854  0.3864  1.4420
 4103TIP3    H233801   6.616   3.185   4.735  0.7325 -0.7591  0.8246
 4104TIP3   OH233802   3.724   2.877  15.796 -0.0246  0.3877  0.2976
 4104TIP3    H133803   3.633   2.853  15.779 -0.0918  1.6022 -1.2348
 4104TIP3    H233804   3.720   2.935  15.872 -0.4870  0.2400  0.3865
 4105TIP3   OH233805   3.898   6.349  11.873 -0.2284  0.6776  0.4789
 4105TIP3    H133806   3.962   6.327  11.941  0.8704  0.9081 -0.4482
 4105TIP3    H233807   3.898   6.445  11.871  0.4788  0.6692 -0.4961
 4106TIP3   OH233808   2.021   5.242  16.120 -0.4366  0.2756  0.1863
 4106TIP3    H133809   2.046   5.159  16.081  2.0988 -0.0653  2.3116
 4106TIP3    H233810   1.968   5.219  16.196 -1.4257  0.7373 -0.3358
 4107TIP3   OH233811   2.558   3.624   2.001  0.6677 -0.1462  0.5610
 4107TIP3    H133812   2.565   3.719   1.995 -0.4246 -0.0805  0.0931
 4107TIP3    H233813   2.505   3.609   2.080 -0.4711 -0.2986 -0.2204
 4108TIP3   OH233814   5.906   0.023   4.332  0.2607 -0.4234 -0.1145
 4108TIP3    H133815   5.882   0.059   4.247  0.6923  0.6035  0.1814
 4108TIP3    H233816   5.973  -0.043   4.313 -0.0176 -0.5652 -0.6082
 4109TIP3   OH233817   6.621   6.243  14.427 -0.2169 -0.5853  0.2070
 4109TIP3    H133818   6.557   6.183  14.390 -0.9278  0.2121  0.1091
 4109TIP3    H233819   6.571   6.297  14.488  0.1765  0.6052 -0.4843
 4110TIP3   OH233820   1.260   3.843   5.482  0.1111 -0.3007 -0.3661
 4110TIP3    H133821   1.231   3.779   5.417  1.8480 -0.7200 -0.7784
 4110TIP3    H233822   1.331   3.799   5.529 -0.1261  0.5408  0.8267
 4111TIP3   OH233823   2.267   0.108   3.732 -1.0995  0.4707  0.1246
 4111TIP3    H133824   2.293   0.200   3.726  1.4099 -0.1505  0.1331
 4111TIP3    H233825   2.272   0.088   3.825 -0.3056  0.0164 -0.0057
 4112TIP3   OH233826   4.710   3.077  15.793  0.2993  0.1527 -0.4055
 4112TIP3    H133827   4.726   2.982  15.799 -0.0880  0.2040  2.5320
 4112TIP3    H233828   4.615   3.085  15.792  0.1643  0.5264  3.1436
 4113TIP3   OH233829   6.758   1.712  12.432 -0.4136 -0.2871 -0.6241
 4113TIP3    H133830   6.803   1.658  12.498 -0.2682  0.6549  0.0670
 4113TIP3    H233831   6.694   1.652  12.393 -1.4646 -0.5409  1.3317
 4114TIP3   OH233832   2.749   4.390  11.720  0.1324 -0.0568  0.2190
 4114TIP3    H133833   2.832   4.357  11.686  0.1526  0.9320 -0.7186
 4114TIP3    H233834   2.684   4.366  11.654 -0.1436  0.1679  0.4040
 4115TIP3   OH233835   1.862   3.021  12.298  0.1958  0.1080 -0.2434
 4115TIP3    H133836   1.942   2.999  12.250 -0.2223  1.3223 -1.5607
 4115TIP3    H233837   1.890   3.085  12.363  0.3888  0.1676 -0.3828
 4116TIP3   OH233838   6.181   3.773  16.303  0.7835 -0.3812  0.2942
 4116TIP3    H133839   6.177   3.781  16.398  0.7706 -0.3518  0.2907
 4116TIP3    H233840   6.166   3.863  16.271  1.5643 -0.2500  0.2871
 4117TIP3   OH233841   1.186   0.130   3.218 -0.1217 -0.4826 -0.0490
 4117TIP3    H133842   1.110   0.177   3.183  0.9072  2.2041  1.0668
 4117TIP3    H233843   1.249   0.130   3.146 -0.1578 -0.1968 -0.0826
 4118TIP3   OH233844   4.194   0.808  16.796 -0.0072  0.1936  0.4982
 4118TIP3    H133845   4.222   0.876  16.734 -0.1121  0.2435  0.5061
 4118TIP3    H233846   4.148   0.855  16.865  0.0957  0.1361  0.6074
 4119TIP3   OH233847   3.426   2.755   5.331 -1.0598 -0.4915 -0.2386
 4119TIP3    H133848   3.418   2.665   5.299 -0.8048 -0.2424 -1.0251
 4119TIP3    H233849   3.365   2.805   5.277  0.0179  0.0848 -0.9706
 4120TIP3   OH233850   3.595   3.937   6.391 -0.6115 -0.0672 -0.1770
 4120TIP3    H133851   3.571   3.845   6.407  1.6101 -0.5222  0.9227
 4120TIP3    H233852   3.582   3.980   6.475 -2.4980  0.8978 -0.9078
 4121TIP3   OH233853   6.789   6.728   3.863  1.1069  0.3840 -0.5906
 4121TIP3    H133854   6.745   6.646   3.840  0.6380  1.1338 -2.5605
 4121TIP3    H233855   6.826   6.711   3.950  0.3004 -1.6115 -0.5688
 4122TIP3   OH233856   5.748   3.831  14.150 -0.3894 -0.6933  0.1099
 4122TIP3    H133857   5.707   3.908  14.190  0.0561 -1.2907  1.8204
 4122TIP3    H233858   5.730   3.760  14.211 -0.1400 -1.7994 -1.0594
 4123TIP3   OH233859   0.112   0.713   5.709  0.0411  0.2163 -0.0302
 4123TIP3    H133860   0.108   0.628   5.666 -0.7459  1.2880 -2.2685
 4123TIP3    H233861   0.032   0.720   5.760 -0.1911 -0.1328 -0.3517
 4124TIP3   OH233862   0.259   1.884   2.977  0.4049  0.5034  0.6889
 4124TIP3    H133863   0.179   1.845   2.943  0.3777  1.1223  0.0187
 4124TIP3    H233864   0.327   1.820   2.957  0.0247 -0.2216  1.6505
 4125TIP3   OH233865   0.335   3.537   3.676 -0.0030 -0.5435  0.3470
 4125TIP3    H133866   0.322   3.591   3.754  1.8072  1.0644 -0.3862
 4125TIP3    H233867   0.348   3.449   3.711 -2.2813 -0.4657  1.6200
 4126TIP3   OH233868   1.695   0.732   0.401  0.1988  0.4279  0.7548
 4126TIP3    H133869   1.715   0.761   0.312  0.4817 -0.8090  0.3976
 4126TIP3    H233870   1.600   0.727   0.404  0.2185 -1.3311 -0.1154
 4127TIP3   OH233871   1.740   2.016  12.685 -0.0365  0.3282 -0.0834
 4127TIP3    H133872   1.715   1.980  12.599 -0.5138  0.7808 -0.1369
 4127TIP3    H233873   1.720   1.946  12.746  2.1366 -0.7804 -0.5176
 4128TIP3   OH233874   0.514   2.736   4.557  0.2402 -0.0488 -0.1192
 4128TIP3    H133875   0.453   2.668   4.584 -0.2720  0.1326 -0.8054
 4128TIP3    H233876   0.579   2.691   4.503 -0.0169 -0.0238 -0.4528
 4129TIP3   OH233877   5.846   2.423  15.275 -0.1353  0.4657 -0.9264
 4129TIP3    H133878   5.859   2.518  15.279  1.9772  0.2580 -1.4901
 4129TIP3    H233879   5.759   2.409  15.311 -0.0087  2.5163  0.3547
 4130TIP3   OH233880   4.874   0.297  12.793 -0.0769  0.2380 -0.4017
 4130TIP3    H133881   4.864   0.388  12.766  0.3508  0.6551  0.7662
 4130TIP3    H233882   4.920   0.302  12.877  2.5106 -1.1632 -1.6162
 4131TIP3   OH233883   1.959   0.261  10.696 -0.1557  0.3324  0.2552
 4131TIP3    H133884   1.944   0.191  10.760  0.8227  0.8990  1.1230
 4131TIP3    H233885   2.013   0.220  10.629 -0.5037 -0.0436  0.2016
 4132TIP3   OH233886   2.687   3.687   2.667  0.9010  0.1635 -0.4813
 4132TIP3    H133887   2.686   3.731   2.582 -0.3881 -0.9297 -1.0845
 4132TIP3    H233888   2.603   3.710   2.707  0.5513 -1.0508 -0.4674
 4133TIP3   OH233889   4.831   1.342  17.018  0.3446 -0.0902 -0.1519
 4133TIP3    H133890   4.818   1.368  17.109 -0.2461  1.5029 -0.6562
 4133TIP3    H233891   4.745   1.354  16.977  1.3430  2.8805 -1.7342
 4134TIP3   OH233892   0.097   3.183  15.851  0.5496 -0.7203 -0.0291
 4134TIP3    H133893   0.114   3.277  15.858  1.2183 -0.7351 -1.2108
 4134TIP3    H233894   0.181   3.142  15.871  0.0255 -1.1339  1.4642
 4135TIP3   OH233895   0.204   4.386  11.543 -0.0276 -0.1817 -0.4647
 4135TIP3    H133896   0.219   4.346  11.457  0.3650 -1.1615  0.0472
 4135TIP3    H233897   0.117   4.425  11.537  0.0531 -0.1240 -1.3493
 4136TIP3   OH233898   5.854   3.621   2.450  0.4044 -0.0234  0.0661
 4136TIP3    H133899   5.810   3.576   2.522  0.0675 -0.8975 -0.6714
 4136TIP3    H233900   5.891   3.700   2.490 -0.4432 -0.1004  1.0280
 4137TIP3   OH233901   2.028   2.764   1.605 -0.3485 -0.1476 -0.5100
 4137TIP3    H133902   1.976   2.808   1.672 -1.0383 -1.5791 -0.0467
 4137TIP3    H233903   2.100   2.724   1.653 -0.1309 -0.1192 -0.8123
 4138TIP3   OH233904   4.993   5.930   0.022  0.0515 -0.1359 -0.2847
 4138TIP3    H133905   5.053   5.860   0.048  1.0379  0.4896 -0.7884
 4138TIP3    H233906   4.985   5.921  -0.073  0.7776  0.8527 -0.4621
 4139TIP3   OH233907   1.008   2.305  13.530  0.4705 -0.0395 -0.4836
 4139TIP3    H133908   1.010   2.329  13.437  1.6012 -0.3157 -0.5391
 4139TIP3    H233909   0.929   2.251  13.539  0.1373  0.3147 -1.1971
 4140TIP3   OH233910   1.317   2.079   1.996  0.1352  0.1856  0.3348
 4140TIP3    H133911   1.249   2.145   2.006  0.1793  0.3524 -0.3841
 4140TIP3    H233912   1.368   2.108   1.921  1.8538  0.7990  1.6769
 4141TIP3   OH233913   3.813   0.649  16.350 -0.6209 -0.2326  0.0901
 4141TIP3    H133914   3.762   0.619  16.275 -0.6873  2.1402 -0.8945
 4141TIP3    H233915   3.900   0.611  16.337 -1.1502 -1.4268 -0.0969
 4142TIP3   OH233916   0.555   3.377   0.807  0.0278  0.1658 -0.7128
 4142TIP3    H133917   0.520   3.417   0.728 -0.5385 -1.2148 -1.1904
 4142TIP3    H233918   0.482   3.380   0.869 -0.5726 -1.5406 -1.2849
 4143TIP3   OH233919   3.674   5.055   1.646  0.8230  0.2035 -0.3112
 4143TIP3    H133920   3.659   5.112   1.571 -0.2962 -0.6382 -0.7667
 4143TIP3    H233921   3.645   5.107   1.722 -0.7559  0.0727 -0.7803
 4144TIP3   OH233922   5.558   3.300  10.772  0.1075 -0.0576 -0.1385
 4144TIP3    H133923   5.649   3.311  10.801 -0.0440 -2.5314  1.5300
 4144TIP3    H233924   5.564   3.245  10.694  0.1406  2.0079 -1.6737
 4145TIP3   OH233925   3.865   0.981   3.113  0.2920  0.0990  0.6777
 4145TIP3    H133926   3.782   0.989   3.066 -0.1178  0.6980  1.4805
 4145TIP3    H233927   3.922   0.934   3.053 -1.3490 -2.5230  1.0133
 4146TIP3   OH233928   2.791   6.714   0.629  0.5846  0.3064  0.6803
 4146TIP3    H133929   2.744   6.638   0.594 -0.9633  0.8481  1.4974
 4146TIP3    H233930   2.819   6.687   0.716  0.6223  0.4489  0.7115
 4147TIP3   OH233931   3.791   3.776   4.890  0.7527  0.0874  0.0172
 4147TIP3    H133932   3.835   3.692   4.875  0.1581 -0.1161 -0.6494
 4147TIP3    H233933   3.863   3.838   4.906  1.2054 -0.4987  0.3036
 4148TIP3   OH233934   6.739   0.489   5.511 -0.1173 -0.3698  0.2207
 4148TIP3    H133935   6.799   0.440   5.567 -0.7604  0.7161  1.9253
 4148TIP3    H233936   6.795   0.555   5.468  0.2786 -0.8361  0.0065
 4149TIP3   OH233937   2.101   0.453  15.610  0.1491 -0.6813 -0.3222
 4149TIP3    H133938   2.021   0.456  15.662  0.3394  2.6800 -0.0111
 4149TIP3    H233939   2.169   0.427  15.673 -0.3355 -1.3589 -0.0676
 4150TIP3   OH233940   2.533   5.963   2.613 -0.1424 -0.1535  0.0835
 4150TIP3    H133941   2.474   5.901   2.570  0.4506 -0.8937  0.3168
 4150TIP3    H233942   2.475   6.016   2.668 -0.9628  1.0719 -1.8848
 4151TIP3   OH233943   2.873   3.946   5.868 -0.2417  0.3797  0.1751
 4151TIP3    H133944   2.960   3.907   5.874  0.3582  1.8504  2.2746
 4151TIP3    H233945   2.834   3.931   5.954 -1.0268  1.9333  0.1364
 4152TIP3   OH233946   5.122   2.480   0.897 -0.3910  0.3737  0.5491
 4152TIP3    H133947   5.171   2.484   0.815 -2.0979 -1.7859 -0.6830
 4152TIP3    H233948   5.164   2.410   0.946 -0.9411 -0.0532  0.4091
 4153TIP3   OH233949   0.761   4.966   0.172  0.1580 -0.4129 -0.6762
 4153TIP3    H133950   0.691   4.903   0.189  0.5539 -1.1252 -1.5857
 4153TIP3    H233951   0.835   4.934   0.223  0.3289 -0.6302 -1.0583
 4154TIP3   OH233952   5.449   4.881   1.288  0.0634  0.5597  0.5443
 4154TIP3    H133953   5.375   4.845   1.336  0.1496  1.5548  1.4739
 4154TIP3    H233954   5.417   4.964   1.253  0.5308  0.6764  0.3769
 4155TIP3   OH233955   3.474   2.759  15.734  0.5309 -0.2889 -0.3343
 4155TIP3    H133956   3.433   2.813  15.802  0.3368 -1.2989  0.3786
 4155TIP3    H233957   3.425   2.779  15.655  0.6945  0.8370 -0.1729
 4156TIP3   OH233958   4.457   5.930  14.839  0.4821  0.1022  0.7138
 4156TIP3    H133959   4.507   5.984  14.778 -1.3061  0.1160 -0.8408
 4156TIP3    H233960   4.417   5.992  14.899 -0.0019  0.3690  0.1295
 4157TIP3   OH233961   1.434   3.662  10.849 -0.0233 -0.5443 -0.1917
 4157TIP3    H133962   1.422   3.757  10.850  1.5663 -0.3241  0.0590
 4157TIP3    H233963   1.402   3.635  10.763 -0.5111  0.2050 -0.2565
 4158TIP3   OH233964   1.319   3.385  12.894 -0.2537 -0.6415  1.0038
 4158TIP3    H133965   1.365   3.429  12.822 -1.0774 -2.5125 -0.7679
 4158TIP3    H233966   1.353   3.427  12.973  1.0674  1.1689 -0.4268
 4159TIP3   OH233967   3.707   6.735   3.285  0.0600 -0.2175  0.1491
 4159TIP3    H133968   3.692   6.682   3.364  0.7652 -0.4889  0.1001
 4159TIP3    H233969   3.738   6.819   3.319 -1.5997  0.4067  0.2619
 4160TIP3   OH233970   4.845   2.604  11.283 -0.0155  0.0606  0.0256
 4160TIP3    H133971   4.807   2.672  11.337  1.3404  1.7669 -1.0711
 4160TIP3    H233972   4.917   2.568  11.335  0.3742  0.7035 -0.0593
 4161TIP3   OH233973   1.167   2.887   1.449 -0.4564 -0.0183  0.1543
 4161TIP3    H133974   1.214   2.865   1.369  0.9167  2.6037  0.1447
 4161TIP3    H233975   1.236   2.916   1.510 -1.8149  1.7290  0.9419
 4162TIP3   OH233976   5.347   1.299  12.022  0.4935  0.4750 -0.1070
 4162TIP3    H133977   5.424   1.353  12.039  1.2167 -1.1474  2.2507
 4162TIP3    H233978   5.280   1.361  11.993  2.0488  2.2188 -0.1659
 4163TIP3   OH233979   3.704   4.833   5.662  0.5756  0.2182  0.3215
 4163TIP3    H133980   3.734   4.833   5.753 -2.3556 -2.0296  1.4527
 4163TIP3    H233981   3.644   4.907   5.657 -0.1068 -0.3003  0.5976
 4164TIP3   OH233982   6.320   0.694   1.988 -0.2220 -0.0048  0.3366
 4164TIP3    H133983   6.235   0.739   1.985 -1.6323 -2.5830 -1.6508
 4164TIP3    H233984   6.300   0.608   2.026  0.9626 -1.5277 -2.2684
 4165TIP3   OH233985   5.700   5.605   1.379  0.5116  0.1058  0.1380
 4165TIP3    H133986   5.697   5.648   1.464 -1.3784 -0.4611  0.3942
 4165TIP3    H233987   5.721   5.675   1.318  1.1204  0.6692  0.9679
 4166TIP3   OH233988   3.187   1.659  16.678  0.4936  0.0899 -0.1080
 4166TIP3    H133989   3.103   1.614  16.687  1.0288 -1.0515 -0.6225
 4166TIP3    H233990   3.183   1.702  16.592  1.0520 -1.3677 -0.8984
 4167TIP3   OH233991   1.897   0.254  14.522  0.0141 -0.3071  0.7450
 4167TIP3    H133992   1.914   0.217  14.435  0.2893  0.6358  0.3814
 4167TIP3    H233993   1.961   0.211  14.579  0.1781 -0.5527  0.3827
 4168TIP3   OH233994   6.261   1.794  12.926  0.0638 -0.8947  0.0518
 4168TIP3    H133995   6.180   1.827  12.966  0.8210 -0.2857  1.1201
 4168TIP3    H233996   6.326   1.797  12.996  1.3714 -0.0315 -1.1430
 4169TIP3   OH233997   3.842   3.127   3.278 -0.0932  0.2271 -0.1797
 4169TIP3    H133998   3.811   3.056   3.334  0.8243  0.8537  1.1926
 4169TIP3    H233999   3.936   3.131   3.294 -0.2275  2.2346  0.4059
 4170TIP3   OH234000   4.333   4.210   5.256 -0.4680  0.3074 -0.2397
 4170TIP3    H134001   4.326   4.116   5.273 -0.7530  0.4186  0.3133
 4170TIP3    H234002   4.292   4.223   5.171 -0.7988 -0.0169 -0.1336
 4171TIP3   OH234003   4.655   3.872   0.664  0.2138 -0.0315  0.7348
 4171TIP3    H134004   4.619   3.856   0.577 -2.2047  0.9352  1.4514
 4171TIP3    H234005   4.742   3.909   0.649 -0.4001  0.6940 -1.2986
 4172TIP3   OH234006   0.432   0.209  14.459 -0.3959  1.0457  0.2191
 4172TIP3    H134007   0.489   0.283  14.438  0.2966  0.4549 -0.0316
 4172TIP3    H234008   0.411   0.170  14.374  0.0128  0.4012  0.4081
 4173TIP3   OH234009   1.886   1.621  16.000  0.1560  0.0903 -0.7481
 4173TIP3    H134010   1.828   1.585  16.067 -1.5261  0.7318 -1.7826
 4173TIP3    H234011   1.928   1.545  15.961  0.3474 -0.3636  0.3179
 4174TIP3   OH234012   4.514   3.720   1.321 -0.1676 -0.9314  0.2824
 4174TIP3    H134013   4.473   3.652   1.266 -0.4891 -0.4607 -0.0695
 4174TIP3    H234014   4.607   3.697   1.323  0.1024 -0.1876 -1.6254
 4175TIP3   OH234015   1.423   4.959   5.552  0.0879 -0.3050 -0.4612
 4175TIP3    H134016   1.480   4.895   5.511 -0.6239 -1.8833  0.8937
 4175TIP3    H234017   1.477   4.999   5.621 -0.1831 -1.2380  0.3076
 4176TIP3   OH234018   0.794   2.833  15.958 -0.0804 -0.3152 -0.2159
 4176TIP3    H134019   0.765   2.899  15.895 -0.6323  0.1371  0.4993
 4176TIP3    H234020   0.720   2.773  15.966  0.1911 -0.6786 -0.4036
 4177TIP3   OH234021   0.814   3.152  12.102 -0.7248 -0.3998 -0.1550
 4177TIP3    H134022   0.782   3.185  12.186 -0.7224 -0.7217 -0.0296
 4177TIP3    H234023   0.842   3.063  12.120  1.0685  0.1437 -0.0448
 4178TIP3   OH234024   0.056   3.609  12.488  0.0020  0.6570  0.5293
 4178TIP3    H134025   0.057   3.528  12.539 -1.6714 -1.4174 -2.4285
 4178TIP3    H234026   0.128   3.598  12.425 -1.9484  0.0742 -1.7194
 4179TIP3   OH234027   6.635   3.998   0.209  0.3079  0.1587 -0.1582
 4179TIP3    H134028   6.601   3.993   0.120  0.2483 -1.9075 -0.0494
 4179TIP3    H234029   6.726   4.026   0.199 -0.1809  1.6382 -0.7191
 4180TIP3   OH234030   4.870   2.772  11.666 -0.3441 -0.9974  0.6606
 4180TIP3    H134031   4.887   2.714  11.741  3.0034 -1.0830  0.0335
 4180TIP3    H234032   4.921   2.850  11.685 -1.4106 -0.0016 -0.4451
 4181TIP3   OH234033   2.711   3.800   4.841  0.0068  0.0866  0.0355
 4181TIP3    H134034   2.667   3.745   4.776  0.3155  0.4120 -0.4592
 4181TIP3    H234035   2.642   3.858   4.873  0.1128  0.8020 -0.9601
 4182TIP3   OH234036   3.875   5.730  17.096  0.2005 -0.2481  0.1632
 4182TIP3    H134037   3.881   5.783  17.017 -1.5903  2.1755  1.5186
 4182TIP3    H234038   3.941   5.767  17.155  0.1320 -0.7124  0.5463
 4183TIP3   OH234039   0.248   6.491  13.670  0.4282  0.2434  0.3154
 4183TIP3    H134040   0.160   6.458  13.686  0.0344  0.0859 -1.8653
 4183TIP3    H234041   0.304   6.414  13.681 -0.0616 -0.3383 -0.9994
 4184TIP3   OH234042   1.269   4.069  11.410 -0.1254  0.0473 -0.7237
 4184TIP3    H134043   1.324   4.044  11.335  0.1020 -2.4875  0.1755
 4184TIP3    H234044   1.208   3.996  11.420  0.1757  0.0540  1.8304
 4185TIP3   OH234045   0.821   3.542  16.764  0.0883 -0.8573  0.1132
 4185TIP3    H134046   0.848   3.564  16.675 -1.9332 -1.1224 -0.6071
 4185TIP3    H234047   0.809   3.626  16.807 -1.8145 -0.6016 -0.8137
 4186TIP3   OH234048   4.820   6.825  13.252 -0.3907 -0.1873 -0.2187
 4186TIP3    H134049   4.739   6.812  13.302 -0.7305  0.0087 -0.7123
 4186TIP3    H234050   4.888   6.832  13.319 -0.4344 -2.5472  0.1401
 4187TIP3   OH234051   0.077   2.129   4.913  0.2181 -0.3847 -0.2397
 4187TIP3    H134052   0.047   2.213   4.947 -0.3475 -0.1247 -1.3548
 4187TIP3    H234053  -0.000   2.073   4.917  0.3355 -0.5592 -0.4352
 4188TIP3   OH234054   2.673   4.983   4.324 -0.0320  0.3275 -0.7945
 4188TIP3    H134055   2.625   4.902   4.340  0.1255 -0.4089 -3.6091
 4188TIP3    H234056   2.760   4.955   4.296  0.8353  1.5659  0.4847
 4189TIP3   OH234057   2.954   1.384  11.017  0.0417 -0.3215 -1.0751
 4189TIP3    H134058   2.902   1.309  10.989  0.1942  0.2712 -3.1030
 4189TIP3    H234059   2.895   1.434  11.073 -0.8619 -0.7410 -1.6327
 4190TIP3   OH234060   3.972   3.082   1.430  0.7411 -0.0415  0.1772
 4190TIP3    H134061   3.890   3.113   1.467  0.5395  1.4331 -1.4104
 4190TIP3    H234062   4.037   3.102   1.498 -0.2221 -1.9380  1.7879
 4191TIP3   OH234063   5.213   1.353  10.588  0.0701  0.5065  0.0356
 4191TIP3    H134064   5.172   1.284  10.536  0.5949  0.7293 -0.6839
 4191TIP3    H234065   5.223   1.426  10.528  1.9286  0.3123  0.0513
 4192TIP3   OH234066   2.212   1.951   1.556  0.5290 -0.2134 -0.3151
 4192TIP3    H134067   2.138   1.892   1.560  1.0707 -0.8628  1.4180
 4192TIP3    H234068   2.248   1.942   1.468  1.2878 -3.3819  0.2182
 4193TIP3   OH234069   1.663   0.295  10.813  0.8474 -0.3602  0.4471
 4193TIP3    H134070   1.750   0.307  10.775  0.2837  0.9453 -0.5035
 4193TIP3    H234071   1.659   0.357  10.885  0.3903  0.2593 -0.0972
 4194TIP3   OH234072   1.719   2.589   0.201  0.1564 -0.0831 -0.4372
 4194TIP3    H134073   1.684   2.519   0.146 -0.5271  0.9207 -1.3239
 4194TIP3    H234074   1.770   2.643   0.141  2.4310 -0.8988  0.6180
 4195TIP3   OH234075   4.691   1.029  14.845  0.3026  0.4301  0.3719
 4195TIP3    H134076   4.772   0.994  14.881  1.6801  1.9011 -1.1232
 4195TIP3    H234077   4.623   0.972  14.880  2.2901 -3.8957 -1.9857
 4196TIP3   OH234078   4.899   5.084   6.769 -0.1246  0.3917  0.3532
 4196TIP3    H134079   4.930   5.033   6.695 -0.7519  1.3401 -0.5958
 4196TIP3    H234080   4.820   5.039   6.798  0.4401 -0.3127  0.8423
 4197TIP3   OH234081   0.763   4.011  12.287 -0.2430  0.2656  0.1019
 4197TIP3    H134082   0.698   3.969  12.344  0.6855 -0.5213  0.6110
 4197TIP3    H234083   0.781   4.095  12.328  0.6213 -0.4065  1.1449
 4198TIP3   OH234084   5.773   4.327  10.976 -0.0128  0.3112 -0.1515
 4198TIP3    H134085   5.791   4.386  11.048 -0.4253  0.7249 -0.3828
 4198TIP3    H234086   5.854   4.327  10.924  0.3973 -0.2400  0.4788
 4199TIP3   OH234087   5.724   6.098  17.155 -1.0532 -1.2746  0.4751
 4199TIP3    H134088   5.637   6.130  17.132 -0.3412  0.2046 -0.3719
 4199TIP3    H234089   5.758   6.061  17.073  0.2217  0.9356 -0.0869
 4200TIP3   OH234090   3.981   2.225  12.285  0.4788 -0.3315 -0.1115
 4200TIP3    H134091   4.034   2.217  12.365 -0.9320 -0.0889  0.8911
 4200TIP3    H234092   3.891   2.233  12.317  0.0575  1.9133 -1.6352
 4201TIP3   OH234093   3.503   6.539   5.891 -0.4167 -0.1258 -0.0172
 4201TIP3    H134094   3.594   6.555   5.867  0.0810  0.6789  2.1493
 4201TIP3    H234095   3.508   6.499   5.978 -2.1103  2.2682  1.3327
 4202TIP3   OH234096   2.987   4.353   0.693  0.3283  0.3137  0.2610
 4202TIP3    H134097   2.918   4.390   0.748 -1.1680 -0.6838 -0.8985
 4202TIP3    H234098   2.958   4.264   0.673  1.8342 -0.0562 -0.4588
 4203TIP3   OH234099   4.866   0.291   2.623 -0.3004 -0.4893 -0.1237
 4203TIP3    H134100   4.948   0.309   2.576 -0.3812  0.9648  0.2458
 4203TIP3    H234101   4.798   0.312   2.559 -0.3949  0.3992  0.2512
 4204TIP3   OH234102   6.258   6.669   5.019 -0.8742  0.0662  0.2795
 4204TIP3    H134103   6.337   6.617   5.029 -0.6848  0.1519 -0.6486
 4204TIP3    H234104   6.228   6.685   5.108  1.3713  1.9034  0.8189
 4205TIP3   OH234105   1.044   0.546  12.069 -0.2721 -0.1020 -0.2191
 4205TIP3    H134106   1.025   0.638  12.052  0.1333  0.1177  0.4840
 4205TIP3    H234107   0.992   0.525  12.146  0.2103 -0.2528  0.0673
 4206TIP3   OH234108   6.360   2.100  10.774  0.8584  0.3678 -0.2446
 4206TIP3    H134109   6.276   2.087  10.730  0.8438  1.1043 -0.4507
 4206TIP3    H234110   6.339   2.154  10.850  1.0635  0.1107 -0.0065
 4207TIP3   OH234111   3.211   6.028  13.606  0.2012  0.2333 -0.3819
 4207TIP3    H134112   3.134   6.085  13.612 -0.2058 -0.2994 -0.4444
 4207TIP3    H234113   3.177   5.946  13.572  0.1235 -1.2046  2.7765
 4208TIP3   OH234114   1.888   6.041   2.833  0.0075  0.9935  0.8450
 4208TIP3    H134115   1.814   5.989   2.800 -0.4519  1.6593  0.8093
 4208TIP3    H234116   1.888   6.026   2.927  1.0828 -0.6045  0.6397
 4209TIP3   OH234117   5.187   2.956  11.251  0.3331  0.2372 -0.2370
 4209TIP3    H134118   5.184   2.863  11.273  0.8737  0.0530 -0.9072
 4209TIP3    H234119   5.147   2.961  11.164 -1.2649  0.8732  0.4912
 4210TIP3   OH234120   1.981   0.779   4.348 -0.0545  0.0317 -0.4771
 4210TIP3    H134121   1.999   0.805   4.257 -1.8462 -2.6076 -1.7205
 4210TIP3    H234122   2.062   0.738   4.377  0.8732  1.7827 -0.4807
 4211TIP3   OH234123   1.445   4.560   3.784  0.6317 -0.1751  0.2316
 4211TIP3    H134124   1.361   4.580   3.742  1.1158  0.4684 -0.4422
 4211TIP3    H234125   1.495   4.641   3.778  1.0030 -0.2926  1.3852
 4212TIP3   OH234126   2.948   1.323   5.917 -0.1626 -0.1343  0.6263
 4212TIP3    H134127   2.928   1.232   5.897  1.0890 -0.2604 -0.1416
 4212TIP3    H234128   2.862   1.366   5.923 -0.8198 -0.3033 -4.0716
 4213TIP3   OH234129   5.412   1.821   2.682  0.3301  0.4415  0.0909
 4213TIP3    H134130   5.351   1.881   2.725 -0.0096  1.3337 -1.5496
 4213TIP3    H234131   5.366   1.736   2.682 -1.3256  1.2398 -1.7449
 4214TIP3   OH234132   1.372   5.269   0.352  0.6677  0.3582 -0.5442
 4214TIP3    H134133   1.337   5.357   0.364 -0.7002  0.3943 -3.7937
 4214TIP3    H234134   1.467   5.282   0.349  0.5740  1.4702  0.5091
 4215TIP3   OH234135   5.960   3.229   1.228 -0.5741  0.2647  0.5391
 4215TIP3    H134136   5.966   3.139   1.197 -1.4791 -0.0793  1.2999
 4215TIP3    H234137   5.920   3.277   1.155 -1.0468 -0.1634  0.5153
 4216TIP3   OH234138   4.545   2.362   6.266  0.5157  0.3857  0.1235
 4216TIP3    H134139   4.504   2.448   6.280 -0.1801  0.0006  0.4795
 4216TIP3    H234140   4.482   2.314   6.213  0.6478 -0.1018  0.4075
 4217TIP3   OH234141   3.639   1.864   4.987  0.4441  0.1726 -0.0032
 4217TIP3    H134142   3.645   1.769   4.986 -0.8128  0.0572  0.8064
 4217TIP3    H234143   3.662   1.891   4.898  0.7691 -0.8858 -0.2489
 4218TIP3   OH234144   1.869   2.384  15.569  0.0272 -0.0960 -0.2264
 4218TIP3    H134145   1.828   2.319  15.627 -0.9135  0.5925 -0.0972
 4218TIP3    H234146   1.869   2.465  15.620 -0.9116  0.5503 -1.2046
 4219TIP3   OH234147   0.416   5.034  14.758 -0.0586 -0.5162 -0.5556
 4219TIP3    H134148   0.332   5.079  14.770 -0.0709 -0.9714  1.4918
 4219TIP3    H234149   0.478   5.104  14.739 -0.6726 -0.0285 -0.8017
 4220TIP3   OH234150   3.034   1.756  15.979 -0.2079 -0.5750  0.2907
 4220TIP3    H134151   3.107   1.771  15.919 -0.0703 -2.0668  0.0603
 4220TIP3    H234152   3.074   1.760  16.067 -0.2815  0.8734  0.2839
 4221TIP3   OH234153   6.823   6.386  14.053 -0.0710 -0.2669  0.7434
 4221TIP3    H134154   6.917   6.404  14.057  0.1857 -1.5810  1.0177
 4221TIP3    H234155   6.801   6.398  13.961  0.4556 -0.3602  0.6012
 4222TIP3   OH234156   4.385   4.760   2.369  0.5204 -0.1344 -0.1425
 4222TIP3    H134157   4.380   4.841   2.318  0.2739 -0.0941 -0.0543
 4222TIP3    H234158   4.413   4.789   2.456 -0.1953 -0.0663  0.0708
 4223TIP3   OH234159   3.989   1.288  12.928  0.2721 -0.7292  0.4968
 4223TIP3    H134160   3.938   1.356  12.972 -0.3371 -1.0735  0.3313
 4223TIP3    H234161   3.949   1.206  12.957 -1.4940 -0.9551 -2.2527
 4224TIP3   OH234162   2.624   6.035   3.394  0.3145 -0.0867  0.4519
 4224TIP3    H134163   2.643   6.013   3.485  1.1385 -2.0419 -0.1471
 4224TIP3    H234164   2.557   5.972   3.367  0.1735  0.3867 -0.3448
 4225TIP3   OH234165   1.071   3.558  12.877  0.5040 -0.0044 -0.3690
 4225TIP3    H134166   1.152   3.609  12.878  0.4804  0.0780  1.8710
 4225TIP3    H234167   1.090   3.481  12.931 -1.1530  0.4469  0.9336
 4226TIP3   OH234168   0.343   1.429  13.943  0.1864  0.0141  0.8773
 4226TIP3    H134169   0.358   1.407  13.851  1.6772  1.1559  0.7944
 4226TIP3    H234170   0.431   1.442  13.979 -0.3976  0.1771  2.3144
 4227TIP3   OH234171   1.303   2.690   3.355  0.5929  0.2079 -0.0297
 4227TIP3    H134172   1.286   2.639   3.435  1.2495  0.7846  0.4917
 4227TIP3    H234173   1.390   2.727   3.369  0.7147  0.3060 -1.0288
 4228TIP3   OH234174   6.302   6.048  16.407  0.1535 -0.1201  0.2858
 4228TIP3    H134175   6.357   6.123  16.381  1.0934 -1.1686 -0.8775
 4228TIP3    H234176   6.363   5.976  16.419 -0.5794 -0.4175  2.7947
 4229TIP3   OH234177   1.595   5.857  14.061  0.2275  0.1549  0.5444
 4229TIP3    H134178   1.680   5.885  14.094  0.8082 -0.8930 -0.0230
 4229TIP3    H234179   1.591   5.891  13.972  0.2155 -0.1119  0.4416
 4230TIP3   OH234180   0.683   4.680  14.337 -0.2310  0.3661 -0.6934
 4230TIP3    H134181   0.605   4.645  14.294 -1.3493  1.1957  0.5983
 4230TIP3    H234182   0.668   4.666  14.430  1.5082 -0.0956 -0.4434
 4231TIP3   OH234183   0.883   2.202  15.340  0.3764 -0.5947 -0.1209
 4231TIP3    H134184   0.883   2.190  15.245 -0.5252 -2.8664  0.0909
 4231TIP3    H234185   0.963   2.158  15.369  0.3880 -0.3573  0.2034
 4232TIP3   OH234186   2.450   4.784   4.596  0.5098  0.4306 -0.5045
 4232TIP3    H134187   2.490   4.851   4.653 -2.0369 -0.1083  2.1787
 4232TIP3    H234188   2.399   4.835   4.533 -1.8623  1.2498  1.8515
 4233TIP3   OH234189   0.269   3.160   5.565 -0.1138 -0.5021 -0.2538
 4233TIP3    H134190   0.229   3.074   5.562  1.8345 -1.4884  0.4035
 4233TIP3    H234191   0.299   3.169   5.656  0.4486  0.5170 -0.5282
 4234TIP3   OH234192   3.642   1.575   1.660  0.4900 -0.0863  0.1274
 4234TIP3    H134193   3.666   1.518   1.734  0.5796 -1.0071 -0.5935
 4234TIP3    H234194   3.567   1.532   1.620  0.5823  0.2856 -0.4580
 4235TIP3   OH234195   2.405   5.016  13.004 -0.1762  0.4511  0.1936
 4235TIP3    H134196   2.390   4.955  12.932 -0.4517  0.1325  0.5192
 4235TIP3    H234197   2.331   5.002  13.063  1.2882 -1.0863  1.7983
 4236TIP3   OH234198   2.398   5.533  13.231 -0.7738  0.3612 -0.1147
 4236TIP3    H134199   2.347   5.465  13.187 -0.5651 -1.1354  1.8379
 4236TIP3    H234200   2.335   5.604  13.246 -1.7443 -0.5696  0.3259
 4237TIP3   OH234201   1.052   3.058  10.911 -0.4779 -0.0176 -0.1656
 4237TIP3    H134202   1.030   3.151  10.919 -0.1438  0.0106  0.4699
 4237TIP3    H234203   1.147   3.057  10.899 -0.6463 -0.2018 -1.7653
 4238TIP3   OH234204   5.174   4.691   4.652  0.6618  0.2149  0.4599
 4238TIP3    H134205   5.133   4.684   4.738 -1.9457  0.4377 -0.6628
 4238TIP3    H234206   5.149   4.778   4.621  2.5046  0.5818 -0.1116
 4239TIP3   OH234207   2.468   2.463   5.442  0.0133 -0.2032  0.0280
 4239TIP3    H134208   2.377   2.464   5.413 -0.3033 -2.2237  0.7686
 4239TIP3    H234209   2.468   2.517   5.521 -1.1146 -2.0598  1.3766
 4240TIP3   OH234210   2.385   5.881   3.390  0.8771 -0.5337 -0.6583
 4240TIP3    H134211   2.292   5.867   3.410  1.0216  0.8540  1.2297
 4240TIP3    H234212   2.429   5.807   3.432  0.8265  0.3151  0.9794
 4241TIP3   OH234213   6.160   0.646  13.239 -0.2357 -0.3489  0.2631
 4241TIP3    H134214   6.249   0.611  13.236 -0.9715 -2.2925 -0.0912
 4241TIP3    H234215   6.148   0.675  13.329  0.5283 -0.7085  0.4877
 4242TIP3   OH234216   4.337   2.148  10.783 -0.4142  0.1701  0.4093
 4242TIP3    H134217   4.429   2.175  10.779 -0.4939  0.4542  0.4713
 4242TIP3    H234218   4.305   2.160  10.694 -0.6512  1.0138  0.5933
 4243TIP3   OH234219   5.062   0.800   0.533 -0.1053  0.0774 -0.4136
 4243TIP3    H134220   4.993   0.738   0.557  0.7321 -1.3893 -1.5831
 4243TIP3    H234221   5.019   0.885   0.530 -1.8625 -0.8065 -1.1472
 4244TIP3   OH234222   5.721   3.557   5.777  0.2440 -0.3467 -0.4046
 4244TIP3    H134223   5.687   3.587   5.693  0.2021 -2.1929 -1.0953
 4244TIP3    H234224   5.814   3.577   5.774  0.2581 -0.4801 -0.9381
 4245TIP3   OH234225   5.184   4.830   1.758  0.1325 -0.1073  0.1745
 4245TIP3    H134226   5.231   4.753   1.791  1.0504  0.3433 -0.0383
 4245TIP3    H234227   5.095   4.800   1.744  0.4165 -1.0609  0.3584
 4246TIP3   OH234228   0.863   0.359   6.523  0.1135  0.8634  0.1526
 4246TIP3    H134229   0.928   0.322   6.582  1.9626  1.9012 -1.1137
 4246TIP3    H234230   0.865   0.453   6.542  0.2223  1.1189 -1.0300
 4247TIP3   OH234231   1.778   4.756  12.217  0.1240  0.1741  0.4398
 4247TIP3    H134232   1.743   4.738  12.304  1.1459  0.8521  1.0133
 4247TIP3    H234233   1.789   4.670  12.177 -1.3609 -0.1000  0.5453
 4248TIP3   OH234234   1.371   4.071  12.594  0.0575  0.0510  0.6128
 4248TIP3    H134235   1.457   4.049  12.629 -0.0699  0.2800  1.0851
 4248TIP3    H234236   1.356   4.161  12.625 -0.3316  0.0226  0.5019
 4249TIP3   OH234237   0.771   5.647  14.005 -0.5384 -0.3636  0.6256
 4249TIP3    H134238   0.837   5.717  14.013 -0.1449 -0.7200  0.5417
 4249TIP3    H234239   0.796   5.583  14.072  0.9138 -1.8622 -1.2133
 4250TIP3   OH234240   1.766   1.101  14.214  0.2763 -0.0328 -0.6979
 4250TIP3    H134241   1.759   1.189  14.177 -0.1432 -0.1537 -0.9121
 4250TIP3    H234242   1.738   1.043  14.143 -2.0209 -0.1922  0.2349
 4251TIP3   OH234243   6.685   2.409   0.266 -0.1329 -0.0512  0.0558
 4251TIP3    H134244   6.743   2.350   0.314  1.1692  1.1343 -0.0059
 4251TIP3    H234245   6.699   2.388   0.174 -0.0519  0.0142  0.0535
 4252TIP3   OH234246   2.143   0.620  13.947 -0.5469 -0.1634  0.0105
 4252TIP3    H134247   2.165   0.680  14.018 -2.2347  0.4250  0.0879
 4252TIP3    H234248   2.221   0.564  13.937 -0.3928 -0.5134  2.5508
 4253TIP3   OH234249   0.001   6.712  11.891 -0.4378 -0.2286  0.0571
 4253TIP3    H134250   0.049   6.760  11.824 -0.8095 -0.2954 -0.2597
 4253TIP3    H234251   0.062   6.706  11.964 -0.1113  0.0455 -0.1882
 4254TIP3   OH234252   5.417   6.413   5.770  0.3653 -0.1574  0.0911
 4254TIP3    H134253   5.359   6.353   5.817 -0.2426  0.4239  0.0977
 4254TIP3    H234254   5.468   6.357   5.712  1.9376 -1.0478  2.2246
 4255TIP3   OH234255   5.374   6.121  13.349  0.1522 -0.1834 -0.3508
 4255TIP3    H134256   5.425   6.148  13.273 -1.8407 -0.1289 -1.7335
 4255TIP3    H234257   5.372   6.026  13.345  1.5560 -0.2999  0.7257
 4256TIP3   OH234258   3.495   3.656   4.869  0.5046  0.0135  0.0598
 4256TIP3    H134259   3.403   3.634   4.863  0.4776  0.2090 -0.2930
 4256TIP3    H234260   3.499   3.750   4.850  0.8256 -0.0915 -0.4228
 4257TIP3   OH234261   1.405   0.718   0.890  0.4347 -0.0719 -0.0954
 4257TIP3    H134262   1.481   0.671   0.857  0.5527 -0.7206  1.0370
 4257TIP3    H234263   1.431   0.747   0.977 -0.8981 -1.1040  0.6893
 4258TIP3   OH234264   6.058   6.693   2.367  0.1764 -0.2215  0.2897
 4258TIP3    H134265   6.142   6.697   2.320  1.0782 -0.7495  1.7802
 4258TIP3    H234266   5.998   6.652   2.305  1.2191 -0.5749 -0.5233
 4259TIP3   OH234267   3.754   4.433  12.533  0.2349  0.0913  0.0532
 4259TIP3    H134268   3.696   4.474  12.470  0.3501  1.4504  0.7862
 4259TIP3    H234269   3.817   4.501  12.556  0.5504 -0.5416  1.1909
 4260TIP3   OH234270   1.230   4.875  17.213  0.6206 -0.8192  0.7312
 4260TIP3    H134271   1.270   4.788  17.203 -0.3429 -1.1127 -0.9813
 4260TIP3    H234272   1.142   4.865  17.177 -0.1306  0.4613  2.0775
 4261TIP3   OH234273   2.706   6.146   3.184 -0.1440  0.2959 -0.2500
 4261TIP3    H134274   2.678   6.112   3.269  0.6847  0.2891  0.0308
 4261TIP3    H234275   2.637   6.205   3.158  0.5881  2.0129  1.4585
 4262TIP3   OH234276   6.295   3.005  16.268  0.2562  0.1305 -0.6147
 4262TIP3    H134277   6.242   3.061  16.212  2.8427 -1.1337 -4.7912
 4262TIP3    H234278   6.344   3.066  16.324 -2.9502  1.4141  1.0241
 4263TIP3   OH234279   5.319   5.867  14.358 -0.1374  0.3857 -0.4584
 4263TIP3    H134280   5.310   5.888  14.265  1.8082  1.8484 -0.3844
 4263TIP3    H234281   5.412   5.847  14.369 -0.1940  0.9221  1.2635
 4264TIP3   OH234282   4.830   3.158   1.988 -0.5827  0.3607  0.4649
 4264TIP3    H134283   4.924   3.173   1.978 -0.0071 -1.9782  1.5783
 4264TIP3    H234284   4.807   3.097   1.918 -0.9990  0.0061  0.8984
 4265TIP3   OH234285   5.045   5.288  12.812 -0.4095  0.8112 -0.3794
 4265TIP3    H134286   4.967   5.249  12.850  0.9299 -1.4041  0.3009
 4265TIP3    H234287   5.072   5.355  12.875  0.2058 -0.8862  1.2542
 4266TIP3   OH234288   1.067   2.796  14.466  0.1392  0.2133 -0.0035
 4266TIP3    H134289   1.066   2.706  14.500  1.1049  1.1920  2.8835
 4266TIP3    H234290   0.974   2.818  14.457 -0.1194 -0.7842  0.0340
 4267TIP3   OH234291   5.416   3.843  16.905 -0.2413 -0.2712  0.2222
 4267TIP3    H134292   5.360   3.766  16.916 -0.4936 -0.1270 -0.0484
 4267TIP3    H234293   5.493   3.824  16.959  1.1169 -2.0728 -2.1317
 4268TIP3   OH234294   5.974   0.762   2.993  0.5306  0.4645  0.3922
 4268TIP3    H134295   6.017   0.697   2.937  0.3421 -1.1030  1.9619
 4268TIP3    H234296   6.023   0.843   2.979 -0.1510  0.4558 -2.7776
 4269TIP3   OH234297   4.199   5.570   2.359 -0.6000 -0.0177 -0.1557
 4269TIP3    H134298   4.176   5.629   2.287  0.4399  1.0511  0.3449
 4269TIP3    H234299   4.213   5.485   2.318 -2.3942 -0.0299 -0.8715
 4270TIP3   OH234300   6.728   2.674   1.527 -0.3278  0.1199 -0.1111
 4270TIP3    H134301   6.692   2.721   1.451  0.6085 -0.1318 -0.7326
 4270TIP3    H234302   6.680   2.591   1.527  0.0869 -0.1341 -0.8155
 4271TIP3   OH234303   0.427   5.465  12.810  0.3392 -0.2928 -0.1719
 4271TIP3    H134304   0.495   5.519  12.771  0.4169  1.3221  2.0289
 4271TIP3    H234305   0.466   5.377  12.813  1.9229  0.3749  0.0446
 4272TIP3   OH234306   4.506   0.858  12.230 -0.3183  0.7708 -0.0142
 4272TIP3    H134307   4.449   0.935  12.235 -1.4626 -0.0555  0.4026
 4272TIP3    H234308   4.591   0.888  12.262 -0.6812  1.9129 -0.0923
 4273TIP3   OH234309   4.468   2.468  14.663 -0.2004 -0.2549  0.2921
 4273TIP3    H134310   4.528   2.458  14.737  0.6015 -1.3690 -0.4759
 4273TIP3    H234311   4.445   2.378  14.639 -0.5066  0.0945 -0.7701
 4274TIP3   OH234312   0.832   1.850  14.245  0.0006  0.4241  0.5503
 4274TIP3    H134313   0.854   1.772  14.296 -0.2218  0.0537  0.0833
 4274TIP3    H234314   0.915   1.897  14.237  0.2482 -0.0358  0.3793
 4275TIP3   OH234315   0.700   4.264  15.631  0.2931  0.1518  0.6337
 4275TIP3    H134316   0.708   4.344  15.683 -0.2982  0.6265  0.0194
 4275TIP3    H234317   0.719   4.292  15.541  1.3944 -0.6718  0.5973
 4276TIP3   OH234318   6.015   4.578   2.553  0.6673 -0.1575  0.5772
 4276TIP3    H134319   6.052   4.653   2.599  3.1022 -0.9282  0.0365
 4276TIP3    H234320   6.075   4.563   2.479 -1.0064 -1.2709 -0.6345
 4277TIP3   OH234321   0.171   6.605   0.213 -0.3634 -0.1967  0.1002
 4277TIP3    H134322   0.094   6.578   0.163  0.6511 -1.6534 -0.7519
 4277TIP3    H234323   0.170   6.550   0.291 -0.6580  0.4084  0.5279
 4278TIP3   OH234324   2.643   6.548   4.642 -0.3280  0.8429  0.1721
 4278TIP3    H134325   2.672   6.457   4.650  3.0917  1.8775  1.5667
 4278TIP3    H234326   2.578   6.558   4.711 -1.4305 -0.6995 -0.5718
 4279TIP3   OH234327   2.050   4.527  12.985 -0.7769  0.0698  0.0899
 4279TIP3    H134328   2.026   4.611  12.946 -1.3248  0.1145  0.5119
 4279TIP3    H234329   1.984   4.466  12.954 -0.3487 -0.2225 -0.2582
 4280TIP3   OH234330   4.488   0.724   4.687 -0.3908  0.0464 -0.3281
 4280TIP3    H134331   4.560   0.679   4.644 -0.1064  1.6797 -1.6748
 4280TIP3    H234332   4.503   0.711   4.780  1.1248 -0.4155 -0.6140
 4281TIP3   OH234333   1.634   0.323  11.404 -0.1202  0.1343  0.4558
 4281TIP3    H134334   1.726   0.304  11.385  0.0385  1.4303 -0.2039
 4281TIP3    H234335   1.636   0.409  11.446 -0.8534 -0.8343  2.6275
 4282TIP3   OH234336   5.325   0.009   4.873 -0.2359 -0.8079  0.9250
 4282TIP3    H134337   5.272  -0.055   4.826 -0.9674  0.5027 -0.0928
 4282TIP3    H234338   5.261   0.065   4.916  0.2017  1.3607 -1.0532
 4283TIP3   OH234339   0.241   5.501   1.424  0.4671 -0.3248 -0.1481
 4283TIP3    H134340   0.294   5.577   1.448  0.4438 -0.2416 -0.3526
 4283TIP3    H234341   0.163   5.507   1.479 -0.5817  1.0379 -1.6993
 4284TIP3   OH234342   2.877   3.741   0.973 -0.0703 -0.3306  0.3148
 4284TIP3    H134343   2.845   3.652   0.986  0.8723 -0.9966 -1.4980
 4284TIP3    H234344   2.912   3.741   0.884  3.4505  0.7513  1.5276
 4285TIP3   OH234345   6.407   1.055  16.563  0.2600  0.1293 -0.2896
 4285TIP3    H134346   6.362   0.986  16.611 -0.3125  0.3013 -0.5786
 4285TIP3    H234347   6.355   1.134  16.580  0.2574  0.2633 -0.9045
 4286TIP3   OH234348   1.539   2.418  14.936  0.1857  0.1846  0.7563
 4286TIP3    H134349   1.483   2.463  14.873  1.7011  0.1524 -0.6724
 4286TIP3    H234350   1.523   2.325  14.922 -0.6924  0.1876  1.6037
 4287TIP3   OH234351   3.241   0.804  11.227  0.1695 -0.2522 -0.0320
 4287TIP3    H134352   3.187   0.781  11.152  1.5793  0.3547 -1.2821
 4287TIP3    H234353   3.269   0.720  11.264  0.1245 -0.5569 -0.6846
 4288TIP3   OH234354   4.555   3.916  15.505 -0.6454  0.3276 -0.5548
 4288TIP3    H134355   4.644   3.884  15.522 -0.2457 -0.2194 -3.2141
 4288TIP3    H234356   4.536   3.973  15.579  1.0762 -1.1833  1.1714
 4289TIP3   OH234357   2.912   5.740   0.650  0.2021  0.3312  0.0884
 4289TIP3    H134358   2.959   5.805   0.703 -0.8177 -0.7899  2.5392
 4289TIP3    H234359   2.978   5.706   0.590  1.9457  0.4421  1.8304
 4290TIP3   OH234360   6.476   3.908   0.432  0.8081  0.4154  0.1565
 4290TIP3    H134361   6.545   3.944   0.377  1.4015 -0.5009  0.2833
 4290TIP3    H234362   6.444   3.983   0.482 -0.0411  1.3533 -1.7151
 4291TIP3   OH234363   0.273   4.898  14.271 -0.6837 -0.1124  0.0285
 4291TIP3    H134364   0.192   4.934  14.235 -1.2432 -1.2889  0.0579
 4291TIP3    H234365   0.281   4.940  14.356  0.8440  2.9796 -1.4770
 4292TIP3   OH234366   5.821   3.728  12.520 -0.1091 -0.3771  0.5162
 4292TIP3    H134367   5.796   3.638  12.540 -1.3921 -0.2394 -0.3946
 4292TIP3    H234368   5.750   3.781  12.556 -2.1950 -0.0685 -3.5694
 4293TIP3   OH234369   5.077   5.659  12.236 -0.1091  0.2604 -0.4346
 4293TIP3    H134370   5.139   5.590  12.210  0.1404 -0.6559  2.3009
 4293TIP3    H234371   4.999   5.611  12.265  0.3169  0.9853  2.1779
 4294TIP3   OH234372   6.711   2.733   5.680 -0.2578 -0.5197  0.3080
 4294TIP3    H134373   6.647   2.663   5.689  0.4864 -1.0973  1.3622
 4294TIP3    H234374   6.707   2.780   5.763  0.7830 -0.6643  0.4580
 4295TIP3   OH234375   5.837   2.255  14.727 -0.3524 -0.9193 -0.2842
 4295TIP3    H134376   5.786   2.335  14.713 -1.2981 -1.1550  1.5088
 4295TIP3    H234377   5.914   2.284  14.774 -0.7684 -1.0687  0.4991
 4296TIP3   OH234378   5.318   3.148  15.808 -0.5756  0.5563  0.4586
 4296TIP3    H134379   5.311   3.192  15.724 -0.7699  1.8472  1.1227
 4296TIP3    H234380   5.232   3.161  15.849 -1.6245 -2.7376 -0.3468
 4297TIP3   OH234381   1.417   1.116  11.668 -0.3215 -0.1064 -0.1383
 4297TIP3    H134382   1.344   1.129  11.608  0.1428  2.3265 -0.2614
 4297TIP3    H234383   1.495   1.124  11.614  0.0908 -1.6261  0.1804
 4298TIP3   OH234384   4.940   4.897  15.606  0.2235  0.1580  0.3703
 4298TIP3    H134385   4.868   4.958  15.587  1.7613  1.7980 -0.5286
 4298TIP3    H234386   4.987   4.937  15.679  3.2732  2.0753 -2.3642
 4299TIP3   OH234387   2.007   4.631   0.709  0.3459 -0.3002 -0.3021
 4299TIP3    H134388   2.082   4.686   0.688 -0.2229  0.9698  0.8239
 4299TIP3    H234389   1.934   4.692   0.718 -0.5680 -1.3771 -0.1639
 4300TIP3   OH234390   0.062   0.476  14.504 -0.4821 -0.6348 -0.0537
 4300TIP3    H134391   0.095   0.446  14.419 -0.7707  0.4001 -0.5476
 4300TIP3    H234392   0.073   0.571  14.502 -0.0354 -0.6370  1.2757
 4301TIP3   OH234393   1.215   5.155  13.748 -0.2011  0.0022 -0.3128
 4301TIP3    H134394   1.160   5.083  13.777  0.4396  0.2023  1.5186
 4301TIP3    H234395   1.238   5.202  13.828  1.4017  0.8016 -1.1892
 4302TIP3   OH234396   3.252   0.813   4.232 -0.0465  0.0846 -0.8452
 4302TIP3    H134397   3.224   0.903   4.212 -2.3713 -0.6876 -1.3897
 4302TIP3    H234398   3.229   0.800   4.324 -2.0256 -0.6719 -1.3902
 4303TIP3   OH234399   2.802   4.703  11.689  0.3873 -0.1658 -0.1487
 4303TIP3    H134400   2.747   4.646  11.636 -1.6073  0.9526  0.6313
 4303TIP3    H234401   2.875   4.647  11.716 -0.8694 -2.0104 -0.3752
 4304TIP3   OH234402   2.889   4.022  16.224 -0.2843 -0.0120 -0.2745
 4304TIP3    H134403   2.869   4.032  16.317  0.1665  3.2057 -0.3872
 4304TIP3    H234404   2.804   4.012  16.182 -0.5026 -1.3264  0.4405
 4305TIP3   OH234405   4.664   2.924  15.471 -0.4493 -0.0713 -0.2769
 4305TIP3    H134406   4.687   3.015  15.453  0.6282 -0.5659 -1.5378
 4305TIP3    H234407   4.578   2.912  15.430 -0.1446  0.1103 -0.9758
 4306TIP3   OH234408   0.812   0.072   0.632 -0.5177  0.8336 -0.3691
 4306TIP3    H134409   0.765  -0.011   0.639  0.3182  0.2003 -1.7542
 4306TIP3    H234410   0.786   0.121   0.710 -1.7492 -0.3497  0.0097
 4307TIP3   OH234411   2.863   1.776  13.974 -0.5589 -0.2213  0.3842
 4307TIP3    H134412   2.888   1.863  14.004 -0.1532  0.1064 -0.8493
 4307TIP3    H234413   2.852   1.725  14.054 -1.2992  1.0877  1.1506
 4308TIP3   OH234414   6.809   2.541   0.676 -0.0061 -0.1405  0.1586
 4308TIP3    H134415   6.863   2.512   0.750 -0.4915 -0.0517  0.5558
 4308TIP3    H234416   6.747   2.469   0.662 -0.0327 -0.0776 -0.0447
 4309TIP3   OH234417   6.712   4.932  15.196  0.4907 -0.4434  0.3895
 4309TIP3    H134418   6.733   5.019  15.232 -1.7668  0.0802  0.5663
 4309TIP3    H234419   6.696   4.878  15.273 -2.5204  0.2064  0.3530
 4310TIP3   OH234420   3.746   1.442  16.698 -0.4554  0.4997  0.2526
 4310TIP3    H134421   3.817   1.447  16.762  0.3701  1.2220 -0.7010
 4310TIP3    H234422   3.756   1.520  16.644 -0.0158 -0.9842 -1.9102
 4311TIP3   OH234423   4.151   0.474   5.170  0.1060  0.2848  0.2280
 4311TIP3    H134424   4.127   0.440   5.256  0.9084  2.9392  1.6297
 4311TIP3    H234425   4.081   0.535   5.148 -0.3059 -0.6822 -1.2504
 4312TIP3   OH234426   4.174   6.499  11.285 -0.1957  0.1574  0.6499
 4312TIP3    H134427   4.225   6.501  11.203 -3.0139  0.3453 -1.2419
 4312TIP3    H234428   4.181   6.588  11.320 -0.6677  0.7064 -0.5813
 4313TIP3   OH234429   0.844   6.382   4.052 -0.1932  0.1128  0.2036
 4313TIP3    H134430   0.923   6.413   4.006  1.5530 -2.2973  1.3539
 4313TIP3    H234431   0.848   6.425   4.137  0.7042 -1.0148  0.7669
 4314TIP3   OH234432   0.995   2.806   5.081 -0.2349  0.5789  0.5709
 4314TIP3    H134433   1.020   2.859   5.156 -1.9536  0.7763  1.0608
 4314TIP3    H234434   0.899   2.810   5.081 -0.4167 -2.0827  0.3207
 4315TIP3   OH234435   5.111   4.429   0.636  0.2530  0.0188  0.1146
 4315TIP3    H134436   5.194   4.426   0.683  0.4514 -0.1073 -0.2407
 4315TIP3    H234437   5.120   4.500   0.574  0.1084 -0.0222  0.0449
 4316TIP3   OH234438   5.849   0.117  11.103 -0.6201 -0.3115 -0.6865
 4316TIP3    H134439   5.868   0.127  11.196 -2.9151  2.0368 -0.3243
 4316TIP3    H234440   5.932   0.134  11.059 -0.1968  2.3197  0.8828
 4317TIP3   OH234441   4.661   3.805   4.015 -0.6795  0.1319 -0.5379
 4317TIP3    H134442   4.672   3.791   4.109 -3.0894  0.1495 -0.1928
 4317TIP3    H234443   4.683   3.721   3.976 -0.0190  0.0091  0.0826
 4318TIP3   OH234444   4.109   6.215   4.148 -0.1895  0.1353  0.9620
 4318TIP3    H134445   4.203   6.215   4.128 -0.5051  2.2262 -0.8875
 4318TIP3    H234446   4.102   6.264   4.229  0.2525  0.8268  0.5927
 4319TIP3   OH234447   4.675   2.628  12.317 -0.2260 -0.1676  0.1019
 4319TIP3    H134448   4.644   2.694  12.379 -2.6220 -0.3307 -0.8188
 4319TIP3    H234449   4.659   2.544  12.361 -1.0609 -0.2492 -0.3353
 4320TIP3   OH234450   5.618   2.575  17.081  0.1885  0.2283 -0.1001
 4320TIP3    H134451   5.677   2.513  17.123 -0.8895 -1.1544 -0.5504
 4320TIP3    H234452   5.533   2.531  17.080 -0.9429  2.2380  0.7188
 4321TIP3   OH234453   1.204   3.819  15.230  0.3203  0.3868  0.0456
 4321TIP3    H134454   1.266   3.889  15.212  0.0725  0.7329  0.5235
 4321TIP3    H234455   1.192   3.775  15.145  0.4878  0.9062 -0.2489
 4322TIP3   OH234456   1.145   5.088   1.206 -0.1883 -0.1632  0.1025
 4322TIP3    H134457   1.104   5.007   1.175 -2.1807  0.2436  1.4684
 4322TIP3    H234458   1.239   5.071   1.202 -0.5031 -1.6762 -1.8382
 4323TIP3   OH234459   3.155   6.557  12.959 -0.2353 -0.7577 -0.5936
 4323TIP3    H134460   3.063   6.585  12.965 -0.3634 -1.0539 -1.0914
 4323TIP3    H234461   3.194   6.618  12.896  0.3690  0.4984  0.9292
 4324TIP3   OH234462   3.427   2.270  14.361 -0.0714 -0.4259  0.0928
 4324TIP3    H134463   3.346   2.319  14.344 -0.3732 -0.9174  0.0874
 4324TIP3    H234464   3.497   2.332  14.341 -0.4165  0.8773  2.5744
 4325TIP3   OH234465   5.123   0.252  14.652  0.1015 -0.3233 -1.0637
 4325TIP3    H134466   5.099   0.330  14.603  0.1010 -0.6226 -1.5454
 4325TIP3    H234467   5.072   0.182  14.612 -0.1236 -0.5236 -0.4407
 4326TIP3   OH234468   2.047   5.916   0.138 -0.0902  0.4640 -0.1576
 4326TIP3    H134469   2.122   5.935   0.195 -0.4409  0.7432  0.2146
 4326TIP3    H234470   1.986   5.988   0.153 -0.9468 -0.3629  0.4184
 4327TIP3   OH234471   5.568   2.270   3.244 -0.2408  0.2992 -0.2209
 4327TIP3    H134472   5.487   2.321   3.241  0.6356  1.8015  0.3839
 4327TIP3    H234473   5.603   2.276   3.155 -0.6653 -0.1751 -0.4279
 4328TIP3   OH234474   0.552   2.446  10.613  0.8374 -0.0475 -0.0913
 4328TIP3    H134475   0.627   2.474  10.666  0.2870 -0.8731  1.1457
 4328TIP3    H234476   0.586   2.446  10.523  1.8078  1.3042  0.2257
 4329TIP3   OH234477   5.482   4.394  14.534 -0.0322 -0.0026  0.3654
 4329TIP3    H134478   5.574   4.393  14.561 -0.0170  0.2184  0.3225
 4329TIP3    H234479   5.472   4.477  14.487  0.2446 -0.9180 -1.3715
 4330TIP3   OH234480   3.403   6.563  17.205  0.8219  0.5248  0.3497
 4330TIP3    H134481   3.428   6.653  17.226  1.6832 -0.0049  1.7681
 4330TIP3    H234482   3.311   6.557  17.232  0.4079  1.2684 -0.8089
 4331TIP3   OH234483   6.533   6.478   4.729 -0.0554 -0.1958  0.3851
 4331TIP3    H134484   6.442   6.495   4.752  0.0073 -1.3701  1.6770
 4331TIP3    H234485   6.583   6.541   4.782  0.0037 -1.8362  2.4268
 4332TIP3   OH234486   3.544   5.922  13.744  0.4016  0.2497 -0.3780
 4332TIP3    H134487   3.541   5.854  13.811  0.7914 -1.7085 -2.2285
 4332TIP3    H234488   3.630   5.912  13.704 -0.2824  0.4993 -1.9795
 4333TIP3   OH234489   2.901   1.529  16.634  0.3733 -0.1017 -0.2044
 4333TIP3    H134490   2.843   1.460  16.601  0.8861 -0.7565  0.2311
 4333TIP3    H234491   2.966   1.540  16.565  0.4350 -0.2361 -0.1684
 4334TIP3   OH234492   4.815   3.653  13.986  0.2594  0.4543  0.7507
 4334TIP3    H134493   4.853   3.570  13.958  1.5805  0.4463  2.3981
 4334TIP3    H234494   4.811   3.706  13.907  1.5240 -0.3960  0.0918
 4335TIP3   OH234495   4.164   0.201   4.683 -0.4232 -0.0836  0.0473
 4335TIP3    H134496   4.091   0.161   4.729 -0.9626  0.0419 -0.6908
 4335TIP3    H234497   4.162   0.293   4.709  1.0152 -0.5377  2.0045
 4336TIP3   OH234498   0.671   6.738  12.491  0.1556  0.1914 -0.1902
 4336TIP3    H134499   0.679   6.672  12.561  0.0698 -0.5322 -0.8457
 4336TIP3    H234500   0.744   6.798  12.506  0.4564 -0.2655  0.2069
 4337TIP3   OH234501   5.626   6.824   1.655  0.2075  0.0423 -0.4249
 4337TIP3    H134502   5.700   6.874   1.692 -0.2462 -0.0516  0.6649
 4337TIP3    H234503   5.636   6.833   1.561  0.7982  1.2318 -0.2736
 4338TIP3   OH234504   3.769   1.035  14.197  0.1773 -0.4226 -0.1396
 4338TIP3    H134505   3.694   1.034  14.256 -0.6553 -1.2834 -1.1786
 4338TIP3    H234506   3.842   1.063  14.252 -0.7542 -0.2835  1.0678
 4339TIP3   OH234507   3.972   2.008  11.514  0.1122 -0.2843  0.0401
 4339TIP3    H134508   4.043   1.951  11.483 -0.5164 -2.1613  1.8262
 4339TIP3    H234509   3.976   2.001  11.609 -0.6218  1.9679  0.2899
 4340TIP3   OH234510   0.403   2.441  14.141 -0.4975  0.1997  0.6197
 4340TIP3    H134511   0.371   2.382  14.209  1.6593 -2.4213 -0.4168
 4340TIP3    H234512   0.497   2.449  14.159 -0.5606  2.6253  0.1481
 4341TIP3   OH234513   1.493   4.870   4.459 -0.4170 -0.1361  0.1487
 4341TIP3    H134514   1.587   4.858   4.448 -0.2251  0.6304  0.8484
 4341TIP3    H234515   1.459   4.884   4.371  0.3800  1.2870  0.0429
 4342TIP3   OH234516   6.199   5.570   4.419  0.0529  0.6557  0.2145
 4342TIP3    H134517   6.133   5.561   4.350 -0.4183  1.4757  0.5440
 4342TIP3    H234518   6.274   5.610   4.374  0.7695 -1.2995 -0.4123
 4343TIP3   OH234519   2.207   0.613   3.256 -0.0006 -0.4610 -0.6521
 4343TIP3    H134520   2.178   0.703   3.239  1.3659  0.4803  1.4474
 4343TIP3    H234521   2.290   0.605   3.209  0.0318 -0.5079 -0.5875
 4344TIP3   OH234522   2.927   2.035   3.011 -0.2148 -0.4173 -0.1375
 4344TIP3    H134523   2.982   1.983   3.069  1.1692  1.8443  0.6936
 4344TIP3    H234524   2.889   1.971   2.951  4.3110 -2.1038 -1.6262
 4345TIP3   OH234525   0.898   1.194   4.524 -0.4383  0.0721 -0.5496
 4345TIP3    H134526   0.811   1.177   4.560 -0.3001  0.7298  0.1381
 4345TIP3    H234527   0.885   1.196   4.429 -1.1081 -0.1597 -0.4696
 4346TIP3   OH234528   3.045   4.542  12.091 -0.3872  0.2368 -0.6219
 4346TIP3    H134529   2.993   4.622  12.080  1.3614  1.4154 -0.6918
 4346TIP3    H234530   3.027   4.515  12.182 -3.0311 -0.8738 -1.3673
 4347TIP3   OH234531   3.831   0.559   3.305 -0.2098  0.0422 -0.0316
 4347TIP3    H134532   3.809   0.652   3.302 -2.8683 -0.5120 -0.2967
 4347TIP3    H234533   3.783   0.525   3.380 -0.5458 -1.3831 -0.8567
 4348TIP3   OH234534   6.163   1.909  13.563  0.4837 -0.0124  0.0741
 4348TIP3    H134535   6.204   1.934  13.480  0.2422 -0.6335 -0.2332
 4348TIP3    H234536   6.071   1.934  13.552  0.1436 -1.4006 -0.4033
 4349TIP3   OH234537   3.127   3.654  16.645 -0.2477 -0.1526 -1.1291
 4349TIP3    H134538   3.056   3.629  16.585 -0.7812  1.1011 -1.0535
 4349TIP3    H234539   3.122   3.590  16.716 -1.6863  0.2281 -0.8466
 4350TIP3   OH234540   5.132   0.888   4.499 -0.7029 -0.4765 -0.0113
 4350TIP3    H134541   5.124   0.797   4.529 -2.6450 -0.6584 -0.8700
 4350TIP3    H234542   5.081   0.890   4.418  0.4589  1.0813 -0.7577
 4351TIP3   OH234543   4.524   3.897  11.385  0.1752 -0.4415  0.0049
 4351TIP3    H134544   4.501   3.987  11.364 -0.1251 -0.5939 -0.3267
 4351TIP3    H234545   4.512   3.890  11.480  1.7957  0.3304  0.3148
 4352TIP3   OH234546   6.031   4.436   4.624 -0.7289  0.1226  0.0172
 4352TIP3    H134547   6.046   4.519   4.578 -0.2309  0.0892  0.1142
 4352TIP3    H234548   5.992   4.379   4.557  3.1406 -1.0779 -1.5260
 4353TIP3   OH234549   6.095   3.020  14.819 -0.0576 -0.0856 -0.1502
 4353TIP3    H134550   6.009   3.012  14.861 -0.4973 -0.9058 -1.1529
 4353TIP3    H234551   6.107   3.114  14.806 -1.6695 -0.0389 -1.6844
 4354TIP3   OH234552   6.399   3.735   4.525  0.3857 -1.2286 -0.7261
 4354TIP3    H134553   6.367   3.655   4.565 -0.5801 -0.1939  0.6692
 4354TIP3    H234554   6.407   3.797   4.598 -1.6486  0.8161 -2.1082
 4355TIP3   OH234555   1.458   5.306   3.188 -0.5440 -0.0401 -0.0889
 4355TIP3    H134556   1.533   5.291   3.131 -1.0093 -1.4453 -0.3747
 4355TIP3    H234557   1.383   5.270   3.141 -1.0945 -0.3698  0.9903
 4356TIP3   OH234558   0.233   5.221  11.757 -0.0663 -0.5903 -0.4412
 4356TIP3    H134559   0.155   5.245  11.808  0.8888 -0.9009  1.2309
 4356TIP3    H234560   0.272   5.304  11.731 -1.1877 -0.4240 -1.7499
 4357TIP3   OH234561   6.774   2.363   4.606  0.2050  0.0326 -0.5469
 4357TIP3    H134562   6.815   2.373   4.520  0.4600 -0.9895 -0.5609
 4357TIP3    H234563   6.848   2.351   4.666  0.0417  1.0393 -0.1360
 4358TIP3   OH234564   5.940   2.817  16.647 -0.1489 -0.3783 -0.2336
 4358TIP3    H134565   6.016   2.834  16.591  0.7834 -0.1683  1.0305
 4358TIP3    H234566   5.929   2.722  16.644 -0.0086 -0.3813 -0.6492
 4359TIP3   OH234567   4.679   6.725   4.024 -0.3686  0.4641  0.0924
 4359TIP3    H134568   4.705   6.693   4.110 -0.0484 -0.2376 -0.2555
 4359TIP3    H234569   4.674   6.646   3.970 -1.2743  0.8144 -0.3527
 4360TIP3   OH234570   1.853   3.746   5.693  0.4266 -0.0216  0.2718
 4360TIP3    H134571   1.817   3.685   5.758  0.7162 -1.2899 -0.7117
 4360TIP3    H234572   1.829   3.708   5.609  0.2407  1.4873 -0.3853
 4361TIP3   OH234573   4.082   2.559   0.852  0.6522 -0.5704 -0.2918
 4361TIP3    H134574   4.030   2.537   0.775  0.6666  1.7432 -1.0320
 4361TIP3    H234575   4.128   2.640   0.828  1.0611 -0.0701  1.9530
 4362TIP3   OH234576   0.516   3.181   2.157 -0.0057  0.4252 -0.5231
 4362TIP3    H134577   0.575   3.149   2.088 -1.8277  0.0304 -1.9930
 4362TIP3    H234578   0.575   3.219   2.223  2.1334 -3.1736 -0.0823
 4363TIP3   OH234579   2.399   0.601   0.295  0.4676  0.3110  0.5520
 4363TIP3    H134580   2.420   0.685   0.334  0.4820  0.5328  0.0724
 4363TIP3    H234581   2.471   0.584   0.234  0.0862  0.3037  0.0984
 4364TIP3   OH234582   5.922   2.389  11.334  0.0412  0.2186  0.1303
 4364TIP3    H134583   5.967   2.320  11.384  0.6062  0.3842 -0.1425
 4364TIP3    H234584   5.986   2.459  11.327 -0.5399  0.7969  0.4302
 4365TIP3   OH234585   1.699   4.866   2.414 -0.5822 -0.6315 -0.1466
 4365TIP3    H134586   1.769   4.867   2.348 -0.0017 -0.7407  0.4545
 4365TIP3    H234587   1.670   4.775   2.418 -1.9393 -0.2977 -1.5978
 4366TIP3   OH234588   4.948   5.019   4.251 -0.1710 -0.6126 -0.8145
 4366TIP3    H134589   4.894   5.098   4.249 -1.6337 -1.4856  0.6198
 4366TIP3    H234590   4.887   4.948   4.231  0.7867 -1.5028 -0.6874
 4367TIP3   OH234591   0.358   2.552   3.958  0.3850 -0.3044  0.3602
 4367TIP3    H134592   0.417   2.529   4.030  1.0411 -2.3140 -0.7215
 4367TIP3    H234593   0.348   2.470   3.909 -0.8101  0.7647 -1.2783
 4368TIP3   OH234594   5.913   5.274   4.169 -0.1705  0.3503  0.4445
 4368TIP3    H134595   5.934   5.326   4.091 -1.6693 -1.2398 -1.0939
 4368TIP3    H234596   5.997   5.237   4.195  0.1668 -0.2249 -1.2965
 4369TIP3   OH234597   5.534   3.028   4.413  0.0094  0.6997  0.2228
 4369TIP3    H134598   5.622   2.994   4.398 -0.4634 -1.2461  1.4503
 4369TIP3    H234599   5.547   3.118   4.442  1.6801  0.1097  1.4488
 4370TIP3   OH234600   6.080   6.644  16.486  0.2658 -0.2113 -0.3737
 4370TIP3    H134601   6.045   6.636  16.575  0.4402  0.5761 -0.2197
 4370TIP3    H234602   6.008   6.616  16.429 -0.7993  1.6923 -0.0817
 4371TIP3   OH234603   0.783   0.400   2.785 -0.0409  0.1928  0.0999
 4371TIP3    H134604   0.849   0.366   2.846 -1.2384 -1.5619  0.5091
 4371TIP3    H234605   0.725   0.453   2.840  0.5966  1.1316 -0.1197
 4372TIP3   OH234606   5.371   6.534  13.941 -0.2297 -0.0009 -0.0959
 4372TIP3    H134607   5.291   6.484  13.957 -0.3204  0.1405 -0.1077
 4372TIP3    H234608   5.378   6.593  14.017  1.0355 -1.5242  1.0495
 4373TIP3   OH234609   6.783   2.246  13.666 -0.1082 -0.2088 -0.1081
 4373TIP3    H134610   6.718   2.176  13.667  0.4093 -0.7028  0.4696
 4373TIP3    H234611   6.738   2.323  13.700 -0.3780 -0.5534  0.3139
 4374TIP3   OH234612   2.306   5.545  12.832 -0.2792  0.0040 -0.0814
 4374TIP3    H134613   2.291   5.463  12.880 -0.9612 -0.4682 -1.0604
 4374TIP3    H234614   2.391   5.575  12.862 -0.0732 -1.0047  0.3894
 4375TIP3   OH234615   6.172   0.712  15.123 -0.2784  0.7740 -0.2666
 4375TIP3    H134616   6.200   0.645  15.186 -0.7373 -1.0558 -1.9231
 4375TIP3    H234617   6.246   0.720  15.063  0.0166  2.2511  0.2561
 4376TIP3   OH234618   4.982   6.750   4.074  0.1141 -0.8891  0.0005
 4376TIP3    H134619   4.940   6.740   3.988 -1.1894 -2.6313  0.7808
 4376TIP3    H234620   4.973   6.664   4.115  0.5094 -0.0354  1.9804
 4377TIP3   OH234621   3.302   2.232   4.854 -0.0372  0.0651 -0.3215
 4377TIP3    H134622   3.339   2.283   4.782 -1.0255 -1.0742 -1.6919
 4377TIP3    H234623   3.316   2.141   4.829  0.4686 -0.3815  1.4153
 4378TIP3   OH234624   6.240   1.456  15.088  0.4162  0.0253  0.3410
 4378TIP3    H134625   6.162   1.459  15.033 -0.0895  1.0240  1.0966
 4378TIP3    H234626   6.280   1.542  15.079 -0.1092  0.4864  2.1428
 4379TIP3   OH234627   6.586   5.190   0.093  0.9462 -0.7510  1.0425
 4379TIP3    H134628   6.612   5.227   0.177 -1.6832 -0.8061  1.9425
 4379TIP3    H234629   6.509   5.137   0.112  0.3091 -0.8193 -1.3822
 4380TIP3   OH234630   1.081   4.654   3.375  0.0751 -0.5628  0.2683
 4380TIP3    H134631   1.131   4.731   3.403 -2.0514  0.9162  0.2258
 4380TIP3    H234632   1.142   4.605   3.319  1.4244  1.2006  0.1035
 4381TIP3   OH234633   5.366   3.046  16.192 -0.6991 -0.0174 -0.3269
 4381TIP3    H134634   5.404   3.103  16.126  0.2526  0.2622  0.4512
 4381TIP3    H234635   5.327   3.105  16.256  0.3253 -0.2183  0.5045
 4382TIP3   OH234636   0.640   3.298   5.459 -0.3070  0.2674 -0.2401
 4382TIP3    H134637   0.697   3.222   5.473 -1.7352 -0.5777  1.2697
 4382TIP3    H234638   0.618   3.329   5.547 -1.7816  0.8618 -0.7853
 4383TIP3   OH234639   6.779   2.668  14.628  0.7152 -0.0922 -0.3481
 4383TIP3    H134640   6.793   2.578  14.659  0.3552 -0.7772 -2.0644
 4383TIP3    H234641   6.684   2.676  14.622  0.7620  0.2774 -0.5950
 4384TIP3   OH234642   4.752   0.961  11.364  0.2032  0.0345 -0.0850
 4384TIP3    H134643   4.710   0.878  11.383 -0.5764  0.6930  1.1607
 4384TIP3    H234644   4.775   0.955  11.271  0.1684 -1.5569 -0.0164
 4385TIP3   OH234645   4.833   3.303  12.426 -0.0274 -0.3115 -0.4202
 4385TIP3    H134646   4.833   3.208  12.433 -0.6722 -0.3497 -0.8348
 4385TIP3    H234647   4.746   3.325  12.394 -0.7049  0.6065  1.8920
 4386TIP3   OH234648   5.220   2.387   6.377  0.2724 -0.7165  0.1906
 4386TIP3    H134649   5.291   2.450   6.389  0.5835 -0.3982 -2.7387
 4386TIP3    H234650   5.196   2.361   6.466  3.5323 -0.2917  1.3293
 4387TIP3   OH234651   6.772   4.253  16.183 -0.1302 -0.9448 -0.7031
 4387TIP3    H134652   6.754   4.347  16.194  0.8908 -0.9808  2.0522
 4387TIP3    H234653   6.836   4.249  16.112  0.2805  0.5452 -0.4597
 4388TIP3   OH234654   3.542   6.794   2.584 -0.3320 -0.0926  0.1264
 4388TIP3    H134655   3.451   6.797   2.613 -0.2564 -1.6226  0.6377
 4388TIP3    H234656   3.536   6.774   2.490 -0.5289  0.5860 -0.0070
 4389TIP3   OH234657   1.109   4.715  16.951 -0.1567 -0.1208  0.0715
 4389TIP3    H134658   1.074   4.673  17.029  2.2717 -1.6181  0.4541
 4389TIP3    H234659   1.119   4.645  16.888  2.3407  0.0956  0.1154
 4390TIP3   OH234660   5.078   3.730   0.164  0.0202  0.1669 -0.0162
 4390TIP3    H134661   5.096   3.647   0.120  1.7591  1.1115 -1.2028
 4390TIP3    H234662   5.129   3.794   0.116  0.7957  1.5305  2.4392
 4391TIP3   OH234663   3.553   2.636  13.868  0.7875  0.1047  0.0965
 4391TIP3    H134664   3.537   2.639  13.774 -0.7349 -1.6063  0.2327
 4391TIP3    H234665   3.530   2.723  13.900  1.2363  0.6730 -1.1039
 4392TIP3   OH234666   6.329   0.846   0.800  0.3366  0.1180  0.0456
 4392TIP3    H134667   6.298   0.828   0.889  1.3875  0.6534  0.5395
 4392TIP3    H234668   6.249   0.868   0.752 -0.5358 -2.2898  0.2681
 4393TIP3   OH234669   4.801   1.237   0.450 -1.0739  0.6634  0.0418
 4393TIP3    H134670   4.717   1.209   0.486 -1.3604  2.8616  1.3006
 4393TIP3    H234671   4.782   1.322   0.410  0.5299  1.1342  0.2262
 4394TIP3   OH234672   2.916   5.601  10.617  0.0710 -0.0618  0.1527
 4394TIP3    H134673   2.873   5.593  10.532 -1.4736 -0.0231  0.9097
 4394TIP3    H234674   2.878   5.531  10.669  0.2437  0.5695  1.1391
 4395TIP3   OH234675   0.490   1.351  14.426  0.3246  0.1176 -0.3008
 4395TIP3    H134676   0.537   1.293  14.486  0.5717  1.2843  0.6852
 4395TIP3    H234677   0.490   1.304  14.343  2.4509 -0.3394 -0.1048
 4396TIP3   OH234678   0.449   1.243  10.240  0.8739 -0.8329 -0.4938
 4396TIP3    H134679   0.389   1.287  10.179  0.8572 -0.6736 -0.3618
 4396TIP3    H234680   0.395   1.177  10.283  1.0936 -1.5442 -1.2876
 4397TIP3   OH234681   4.312   6.144   2.019  0.0710  0.5145 -0.2830
 4397TIP3    H134682   4.355   6.122   1.936  1.8310  1.4485  0.3406
 4397TIP3    H234683   4.349   6.082   2.082  0.9117  1.6703  0.3707
 4398TIP3   OH234684   5.464   3.749   3.756 -0.7357 -0.1258  0.1335
 4398TIP3    H134685   5.388   3.800   3.782 -0.1461  0.5917  0.4800
 4398TIP3    H234686   5.451   3.732   3.662 -1.2015  0.1947  0.1372
 4399TIP3   OH234687   4.197   1.485  13.417 -0.0285 -0.1819  0.7066
 4399TIP3    H134688   4.268   1.434  13.379 -0.2616  0.7611 -1.0702
 4399TIP3    H234689   4.188   1.561  13.360 -1.2983  0.6222  1.9120
 4400TIP3   OH234690   1.219   3.328  12.129 -0.0266 -0.1464  0.1090
 4400TIP3    H134691   1.290   3.392  12.125 -0.3305  0.1431 -0.9635
 4400TIP3    H234692   1.233   3.283  12.212  0.6762  0.7472  0.5009
 4401TIP3   OH234693   1.524   5.827   0.950 -0.2779 -0.8437 -0.1798
 4401TIP3    H134694   1.602   5.787   0.987  1.0466 -0.5984 -2.4948
 4401TIP3    H234695   1.506   5.776   0.871  0.8835  2.3256 -2.6943
 4402TIP3   OH234696   0.284   4.049  14.707  0.4333 -0.4168  0.3026
 4402TIP3    H134697   0.342   4.102  14.651 -0.0562 -0.8218 -0.5965
 4402TIP3    H234698   0.258   4.109  14.777 -0.0331  0.5252 -0.6460
 4403TIP3   OH234699   4.208   3.180   2.350  0.5247 -0.4450  0.3400
 4403TIP3    H134700   4.263   3.258   2.345 -0.1724  0.1075  1.0291
 4403TIP3    H234701   4.162   3.178   2.266 -1.3704  1.3667  1.2411
 4404TIP3   OH234702   2.328   0.409  12.548 -0.3684 -0.2307  0.3859
 4404TIP3    H134703   2.310   0.363  12.466 -0.5103 -0.6040  0.6250
 4404TIP3    H234704   2.284   0.494  12.539  1.0881  0.4704 -0.6508
 4405TIP3   OH234705   2.453   2.633   2.168 -0.1503  0.1916  0.3118
 4405TIP3    H134706   2.510   2.682   2.226 -1.6551  0.3772  1.6951
 4405TIP3    H234707   2.412   2.567   2.224 -0.5465 -0.5925 -0.8558
 4406TIP3   OH234708   3.149   3.976  10.936 -0.2958 -0.1710  0.2735
 4406TIP3    H134709   3.094   3.952  11.011 -2.3046 -0.1533 -1.0939
 4406TIP3    H234710   3.186   3.893  10.906  0.1053 -0.2478  0.9850
 4407TIP3   OH234711   0.539   6.805  15.354  0.3465  0.1758 -0.1178
 4407TIP3    H134712   0.515   6.884  15.306 -0.8905  0.0995  0.3353
 4407TIP3    H234713   0.526   6.733  15.291 -0.2015  0.1789 -0.0119
 4408TIP3   OH234714   1.432   0.420  11.636 -0.2976  0.7729 -0.2092
 4408TIP3    H134715   1.484   0.407  11.715  0.1807  2.3295 -0.2368
 4408TIP3    H234716   1.348   0.454  11.668 -0.4487  0.5250 -0.3302
 4409TIP3   OH234717   3.620   0.102   4.527  0.2217 -0.4103  0.1402
 4409TIP3    H134718   3.695   0.077   4.472  0.4904 -0.3667  0.4848
 4409TIP3    H234719   3.555   0.134   4.465  0.9280  0.6629 -0.0905
 4410TIP3   OH234720   5.426   6.719  14.844 -0.2851  0.2227  0.2313
 4410TIP3    H134721   5.391   6.695  14.759 -0.8640  0.0089  0.5243
 4410TIP3    H234722   5.521   6.721  14.832 -0.2939 -0.9048 -0.1375
 4411TIP3   OH234723   5.817   5.625   4.433 -0.4286 -0.2660  0.2796
 4411TIP3    H134724   5.763   5.665   4.365 -0.1294 -1.2408 -0.5503
 4411TIP3    H234725   5.778   5.538   4.446  1.9353 -1.7009 -1.5875
 4412TIP3   OH234726   1.464   3.312  11.887  0.0143 -0.0566 -0.2863
 4412TIP3    H134727   1.416   3.231  11.903  1.0132 -1.0580 -2.0782
 4412TIP3    H234728   1.400   3.371  11.848 -0.1915 -0.7822 -1.0690
 4413TIP3   OH234729   0.916   6.295  11.776  0.2766 -0.1302  0.2520
 4413TIP3    H134730   0.888   6.384  11.797  1.1324  0.1602  0.1912
 4413TIP3    H234731   0.989   6.306  11.716 -0.7669 -0.9156 -1.2250
 4414TIP3   OH234732   6.111   2.266  14.416  0.9850  0.1022  0.0242
 4414TIP3    H134733   6.066   2.256  14.332 -0.1277  0.4852  0.5541
 4414TIP3    H234734   6.092   2.356  14.442  2.5080  0.4460  0.0296
 4415TIP3   OH234735   3.187   2.187  11.899  0.1246 -0.4955  0.6601
 4415TIP3    H134736   3.233   2.125  11.955  0.1960 -1.5147 -0.4796
 4415TIP3    H234737   3.095   2.162  11.904  0.0769 -0.3250  0.6529
 4416TIP3   OH234738   6.529   5.340   6.163 -0.6097 -0.7129  0.0027
 4416TIP3    H134739   6.534   5.432   6.136 -0.8254 -0.5154  0.6192
 4416TIP3    H234740   6.583   5.294   6.099 -0.0696 -0.0870 -0.0049
 4417TIP3   OH234741   4.242   1.574  15.741  0.4536 -0.5274  0.3128
 4417TIP3    H134742   4.265   1.581  15.648  2.3532 -0.0376  0.7828
 4417TIP3    H234743   4.188   1.495  15.746  0.0675 -0.3974 -1.2432
 4418TIP3   OH234744   3.977   3.185   0.594 -0.2357  0.5642 -0.3404
 4418TIP3    H134745   3.980   3.281   0.603  0.4101  0.3863  1.9212
 4418TIP3    H234746   3.903   3.159   0.649  1.1978 -0.3833  1.2305
 4419TIP3   OH234747   5.990   2.143   3.249 -0.1660 -0.0001  0.1576
 4419TIP3    H134748   5.948   2.100   3.175 -1.1306  0.2099  0.5710
 4419TIP3    H234749   6.067   2.186   3.211  0.0833 -0.9880 -0.4796
 4420TIP3   OH234750   6.357   3.863   2.350  0.2758 -0.5740  0.3048
 4420TIP3    H134751   6.364   3.767   2.345 -0.3018 -0.5838 -0.5322
 4420TIP3    H234752   6.264   3.880   2.342  0.4024  0.0788  0.2149
 4421TIP3   OH234753   0.483   0.004   1.562  0.6563  0.7820 -0.2388
 4421TIP3    H134754   0.538  -0.054   1.615  0.4054  0.3889 -0.4108
 4421TIP3    H234755   0.426   0.048   1.626  1.1339  1.1622 -0.0626
 4422TIP3   OH234756   4.410   0.524   1.028  0.0016  0.9908 -0.3512
 4422TIP3    H134757   4.457   0.441   1.036 -1.0605  0.5485  3.0233
 4422TIP3    H234758   4.323   0.500   0.998  0.3197  1.1673 -1.4379
 4423TIP3   OH234759   3.881   4.860   4.669  0.0690  0.8805 -0.3485
 4423TIP3    H134760   3.883   4.776   4.623  1.3336 -0.1135  1.3887
 4423TIP3    H234761   3.790   4.872   4.695 -0.5635  1.1969 -2.5101
 4424TIP3   OH234762   3.261   5.497  13.504  0.1245 -0.0324 -0.4241
 4424TIP3    H134763   3.230   5.586  13.518  0.3285  0.6811 -3.6263
 4424TIP3    H234764   3.352   5.498  13.533  0.2418  0.9273 -0.8029
 4425TIP3   OH234765   4.417   1.823  13.389 -0.1804 -0.0439  0.2598
 4425TIP3    H134766   4.503   1.786  13.369  0.2705  1.5017 -0.9189
 4425TIP3    H234767   4.413   1.825  13.484  0.2433 -1.9537  0.3473
 4426TIP3   OH234768   0.425   0.370  13.249 -0.3341  0.1276 -0.2083
 4426TIP3    H134769   0.474   0.444  13.286 -1.6402  0.2632  1.4373
 4426TIP3    H234770   0.435   0.300  13.313  0.9391 -1.1972 -1.7831
 4427TIP3   OH234771   0.176   4.202   3.553 -0.2381 -0.0230  0.1657
 4427TIP3    H134772   0.084   4.223   3.571  0.3957  1.8890  1.4403
 4427TIP3    H234773   0.199   4.139   3.622 -0.6026 -0.6230 -0.2461
 4428TIP3   OH234774   1.529   3.601   1.644 -0.2018 -0.2094 -0.2830
 4428TIP3    H134775   1.493   3.627   1.559 -1.7648  0.0794  0.4267
 4428TIP3    H234776   1.494   3.665   1.706 -0.6770 -1.4931  0.8525
 4429TIP3   OH234777   4.572   6.748  15.946  0.1416 -0.8173 -0.4363
 4429TIP3    H134778   4.587   6.808  16.019 -1.0028  1.1646 -1.7388
 4429TIP3    H234779   4.579   6.661  15.985 -0.3723  0.1561  2.0110
 4430TIP3   OH234780   0.427   5.929   0.252 -0.3444  0.4333  0.0169
 4430TIP3    H134781   0.338   5.905   0.228 -1.1664  1.1853  2.1048
 4430TIP3    H234782   0.439   5.892   0.340  1.2297  0.7711 -0.0288
 4431TIP3   OH234783   3.583   2.907  13.026 -0.1752 -0.7040 -0.1147
 4431TIP3    H134784   3.507   2.931  12.974  0.6736 -0.8655 -1.5096
 4431TIP3    H234785   3.581   2.811  13.029  0.9766 -0.8307 -1.8433
 4432TIP3   OH234786   0.088   0.298  16.556  0.4436  0.3964  0.4665
 4432TIP3    H134787   0.142   0.338  16.624 -0.0820  0.8897  0.6019
 4432TIP3    H234788   0.098   0.355  16.480  1.2177 -0.2865  0.0520
 4433TIP3   OH234789   0.869   2.089  12.691 -0.0846 -0.4236  0.0300
 4433TIP3    H134790   0.907   2.012  12.732  0.8457  0.0358  0.0549
 4433TIP3    H234791   0.784   2.101  12.735 -0.8980 -2.2426 -0.9514
 4434TIP3   OH234792   0.992   0.331  13.711 -0.2181 -0.4597  0.6804
 4434TIP3    H134793   0.903   0.312  13.679 -0.8727  0.9700  1.5257
 4434TIP3    H234794   0.981   0.338  13.806  0.5190  1.0386  0.6785
 4435TIP3   OH234795   4.758   3.323  14.426 -0.3241 -0.0013 -0.2261
 4435TIP3    H134796   4.829   3.260  14.417 -1.3887 -1.2444 -0.1551
 4435TIP3    H234797   4.770   3.384  14.353  1.1343  0.1631  0.1268
 4436TIP3   OH234798   0.658   2.755  13.371 -0.3349 -0.8646 -0.0379
 4436TIP3    H134799   0.623   2.772  13.458  0.0100 -0.9427  0.1169
 4436TIP3    H234800   0.716   2.828  13.353  0.2349 -1.2710  0.1415
 4437TIP3   OH234801   3.439   2.960   3.759 -0.6524 -0.1064 -0.1421
 4437TIP3    H134802   3.475   2.916   3.836  1.2955 -0.6751 -1.3147
 4437TIP3    H234803   3.513   3.009   3.722 -1.1169 -1.0203 -2.4685
 4438TIP3   OH234804   2.334   5.040  10.336  0.0773  0.4534 -0.0899
 4438TIP3    H134805   2.302   4.975  10.399  0.5533 -0.1742 -0.4976
 4438TIP3    H234806   2.417   5.070  10.373 -0.7027  1.7166  0.7094
 4439TIP3   OH234807   4.330   0.132   5.542  0.0917 -0.2466 -0.9017
 4439TIP3    H134808   4.285   0.106   5.462  0.5792 -1.3405 -0.8314
 4439TIP3    H234809   4.322   0.056   5.600 -1.6314  1.0593  0.7283
 4440TIP3   OH234810   1.349   2.623   3.817 -0.4526  0.4103  0.2518
 4440TIP3    H134811   1.269   2.643   3.768 -0.7387  0.3846  0.7050
 4440TIP3    H234812   1.344   2.678   3.895  0.2784  0.8735 -0.0216
 4441TIP3   OH234813   4.472   1.789  13.678 -0.4279 -0.0016  0.0893
 4441TIP3    H134814   4.553   1.740  13.672 -0.8571 -0.6070 -1.2164
 4441TIP3    H234815   4.447   1.784  13.770  0.0727 -1.3475  0.1654
 4442TIP3   OH234816   0.265   3.684  11.840 -0.1305 -0.2753  0.1159
 4442TIP3    H134817   0.360   3.681  11.828  0.3905  0.4084  3.2501
 4442TIP3    H234818   0.252   3.749  11.909 -3.1140  1.4007 -1.7917
 4443TIP3   OH234819   0.799   5.856  16.057  0.3667 -0.1432  0.0954
 4443TIP3    H134820   0.824   5.772  16.096  1.3675 -0.5086 -1.2425
 4443TIP3    H234821   0.867   5.917  16.087  0.2617 -0.0661  0.1767
 4444TIP3   OH234822   6.252   2.276   0.197  0.5461  0.0633  0.2291
 4444TIP3    H134823   6.235   2.369   0.215 -0.0838  0.0167 -0.1327
 4444TIP3    H234824   6.200   2.229   0.262 -0.7426 -0.0776 -0.8663
 4445TIP3   OH234825   5.891   2.020   4.741  0.2319 -0.3319  0.0449
 4445TIP3    H134826   5.953   2.060   4.801  0.2816 -0.4722  0.0890
 4445TIP3    H234827   5.839   2.093   4.707 -1.5974 -0.4970  2.2895
 4446TIP3   OH234828   3.534   3.979  11.204  0.1042  0.1217  0.7701
 4446TIP3    H134829   3.498   3.906  11.254 -0.8281  0.2010  0.2433
 4446TIP3    H234830   3.465   4.046  11.205  0.3194  0.3717 -0.0725
 4447TIP3   OH234831   4.307   5.083  16.753  0.1775  0.3628  0.1427
 4447TIP3    H134832   4.354   5.028  16.815  0.5000 -0.9743 -1.2289
 4447TIP3    H234833   4.338   5.172  16.772  0.1353  0.0141  1.9648
 4448TIP3   OH234834   4.628   4.649   4.604  0.0891  0.1805 -0.3909
 4448TIP3    H134835   4.629   4.736   4.644  0.3952  0.4174 -0.9045
 4448TIP3    H234836   4.698   4.651   4.539  0.8837 -0.8466  0.4000
 4449TIP3   OH234837   6.348   2.521  13.304  0.1637  0.0771 -0.0877
 4449TIP3    H134838   6.270   2.560  13.343  0.1443 -0.1339  0.0866
 4449TIP3    H234839   6.328   2.428  13.296  0.1473  0.1267 -0.6611
 4450TIP3   OH234840   0.629   5.563   0.874  0.4115  0.3082 -0.4136
 4450TIP3    H134841   0.636   5.496   0.942 -0.2778  1.6790  1.1120
 4450TIP3    H234842   0.682   5.636   0.907  0.1895  0.9555 -1.4376
 4451TIP3   OH234843   5.950   6.661  11.496 -0.5512 -0.0717 -0.6136
 4451TIP3    H134844   5.935   6.612  11.577 -2.4738 -0.9816 -1.4575
 4451TIP3    H234845   6.019   6.723  11.518 -0.3398 -0.9559  1.4333
 4452TIP3   OH234846   0.358   0.799   0.078 -0.1838 -0.4842 -0.6411
 4452TIP3    H134847   0.398   0.727   0.127 -1.0966 -0.1692  0.6220
 4452TIP3    H234848   0.373   0.777  -0.014  2.4843 -0.5814 -0.2555
 4453TIP3   OH234849   0.389   0.641   5.752 -0.2928 -0.2405  0.1889
 4453TIP3    H134850   0.297   0.664   5.767 -0.7293 -2.4575  1.3881
 4453TIP3    H234851   0.419   0.608   5.837  1.8342  0.9936 -0.0174
 4454TIP3   OH234852   6.332   1.831  13.762 -0.2035  0.2327  0.5916
 4454TIP3    H134853   6.334   1.878  13.845  1.3793  2.6842 -0.6852
 4454TIP3    H234854   6.264   1.876  13.711  0.6825  0.5754 -0.3260
 4455TIP3   OH234855   1.306   0.361   2.047 -0.4115  0.1790  0.3616
 4455TIP3    H134856   1.229   0.379   1.992  0.4061 -1.9492 -1.6382
 4455TIP3    H234857   1.304   0.266   2.061  2.9577 -0.3441 -1.6573
 4456TIP3   OH234858   4.017   1.643  12.220  0.4514 -0.9024 -0.2293
 4456TIP3    H134859   3.936   1.609  12.258  0.4662  0.7981  1.4826
 4456TIP3    H234860   4.078   1.648  12.293  1.3197  0.0952 -0.9817
 4457TIP3   OH234861   4.980   0.584  13.080  0.1817  0.7367  0.0357
 4457TIP3    H134862   4.888   0.609  13.087  0.0852  1.1265 -2.1332
 4457TIP3    H234863   5.028   0.660  13.113 -0.2423  0.5154  1.2118
 4458TIP3   OH234864   5.835   3.782   0.634  0.1115  0.0091  0.0603
 4458TIP3    H134865   5.883   3.763   0.554  1.7684  0.2270  0.9520
 4458TIP3    H234866   5.769   3.847   0.609  0.8188  0.3121 -1.0540
 4459TIP3   OH234867   2.376   2.923  13.444  0.5233  0.2082 -0.6660
 4459TIP3    H134868   2.310   2.886  13.386 -0.5708  3.0116 -1.4017
 4459TIP3    H234869   2.460   2.895  13.406 -0.1960  0.1910 -2.3449
 4460TIP3   OH234870   1.733   1.792  11.513 -0.0392  0.0258  0.1433
 4460TIP3    H134871   1.826   1.808  11.497  0.4228  0.4763  2.7793
 4460TIP3    H234872   1.694   1.880  11.515 -0.3372 -0.1038 -0.0221
 4461TIP3   OH234873   0.426   1.686   4.314 -0.3949 -0.8040  0.2798
 4461TIP3    H134874   0.502   1.676   4.257 -0.2656 -0.6199  0.4200
 4461TIP3    H234875   0.462   1.684   4.402 -0.5538 -0.7086  0.3464
 4462TIP3   OH234876   2.858   4.961  14.080 -0.4427 -0.3525 -0.3418
 4462TIP3    H134877   2.862   4.877  14.035 -1.0572 -1.2975  1.2680
 4462TIP3    H234878   2.942   4.968  14.126 -0.1390  0.2252 -0.9677
 4463TIP3   OH234879   3.563   5.986   2.890  0.5809 -0.0883  0.0822
 4463TIP3    H134880   3.631   6.003   2.825  0.3949  2.3690  0.4358
 4463TIP3    H234881   3.609   5.979   2.973  0.6842 -1.8617 -0.0920
 4464TIP3   OH234882   2.090   2.642  13.155  0.4781  0.2238 -0.0496
 4464TIP3    H134883   2.167   2.597  13.191 -1.3023 -1.2114  2.2076
 4464TIP3    H234884   2.049   2.577  13.098  1.3681  1.3199 -2.0512
 4465TIP3   OH234885   3.616   2.888   3.403 -0.5092 -0.2329  0.1771
 4465TIP3    H134886   3.665   2.808   3.382 -0.1516 -0.2071  0.8773
 4465TIP3    H234887   3.525   2.866   3.384 -0.2565 -0.3474 -0.9476
 4466TIP3   OH234888   1.939   4.103   0.322  0.1974 -0.1572 -0.2375
 4466TIP3    H134889   2.013   4.120   0.264 -0.6066 -1.7384 -1.8089
 4466TIP3    H234890   1.906   4.190   0.345  1.5384  0.5332 -0.8210
 4467TIP3   OH234891   0.332   3.086   0.420 -0.3035  0.0241  0.5969
 4467TIP3    H134892   0.280   3.011   0.388 -0.4441 -0.5485  2.1102
 4467TIP3    H234893   0.412   3.047   0.455  1.5567  0.9457 -2.2822
 4468TIP3   OH234894   1.191   1.503  15.966  0.3226 -0.0231  0.1766
 4468TIP3    H134895   1.153   1.445  15.900  0.7956 -0.5878  0.3836
 4468TIP3    H234896   1.176   1.457  16.049  1.4105 -0.2549  0.2656
 4469TIP3   OH234897   5.029   1.458   4.727 -0.5473 -0.4558  0.4766
 4469TIP3    H134898   5.115   1.459   4.769 -1.6728 -0.0319  2.9631
 4469TIP3    H234899   5.048   1.455   4.634  2.1898  0.8352  0.8888
 4470TIP3   OH234900   5.401   3.435  16.592  0.1791 -0.0818 -0.5608
 4470TIP3    H134901   5.465   3.369  16.564  1.2395  1.7262 -2.7404
 4470TIP3    H234902   5.453   3.515  16.604 -1.4896  1.2170 -1.4744
 4471TIP3   OH234903   0.272   1.735   5.013  0.3271 -0.3411 -0.0734
 4471TIP3    H134904   0.341   1.714   4.951  0.3533  0.0639 -0.1851
 4471TIP3    H234905   0.202   1.672   4.994  0.2893 -0.1462 -0.5935
 4472TIP3   OH234906   2.423   1.205  11.463  0.7041  0.4749 -0.0268
 4472TIP3    H134907   2.448   1.189  11.554 -0.9884 -0.2940  0.3365
 4472TIP3    H234908   2.503   1.239  11.422  1.4357  1.0814  1.7916
 4473TIP3   OH234909   4.082   4.509   2.193  0.2952 -0.0095 -0.0706
 4473TIP3    H134910   4.177   4.497   2.191  0.2680 -0.3569  0.5470
 4473TIP3    H234911   4.069   4.602   2.176  0.7119 -0.0832 -0.8245
 4474TIP3   OH234912   1.101   5.031  11.883 -0.3634 -0.2510 -0.1925
 4474TIP3    H134913   1.186   5.018  11.925  0.0929  0.3007 -0.9298
 4474TIP3    H234914   1.122   5.049  11.791 -1.0856  2.3821  0.0671
 4475TIP3   OH234915   5.650   3.289   0.744 -0.8811  0.3329 -0.0032
 4475TIP3    H134916   5.628   3.376   0.709 -0.8365  0.3941  0.1177
 4475TIP3    H234917   5.714   3.254   0.682  0.2499  1.0163  0.7440
 4476TIP3   OH234918   1.368   3.083   5.582 -0.0975  0.0115  0.5428
 4476TIP3    H134919   1.400   3.122   5.664  0.9931 -0.4735  0.3743
 4476TIP3    H234920   1.431   3.013   5.564 -1.3335 -1.0461  0.2203
 4477TIP3   OH234921   0.847   1.318  15.275  0.0890  0.2900 -0.1199
 4477TIP3    H134922   0.869   1.348  15.363 -1.0164  1.3325 -0.1697
 4477TIP3    H234923   0.800   1.391  15.236 -4.5644 -1.9963  0.4555
 4478TIP3   OH234924   4.340   5.974  15.755 -0.3758  0.1178 -0.3552
 4478TIP3    H134925   4.423   5.940  15.789 -0.3238  0.9950  0.4529
 4478TIP3    H234926   4.334   5.939  15.666  0.4645 -0.6196 -0.1335
 4479TIP3   OH234927   4.292   3.852   5.979  0.4158  0.2054  0.6990
 4479TIP3    H134928   4.348   3.927   6.000 -1.1228  1.6278 -0.0845
 4479TIP3    H234929   4.312   3.832   5.888 -0.1058  0.5288  0.5074
 4480TIP3   OH234930   4.997   6.041  14.701  0.3274 -0.0200 -0.9396
 4480TIP3    H134931   4.997   6.039  14.797  0.7948  0.7329 -0.9111
 4480TIP3    H234932   4.924   6.098  14.679 -0.8291 -1.5041 -1.0984
 4481TIP3   OH234933   5.442   0.445   1.214 -0.2374 -0.0515  0.2086
 4481TIP3    H134934   5.429   0.411   1.125  0.1954 -1.4258  0.6435
 4481TIP3    H234935   5.418   0.372   1.271 -2.9144  1.5565  1.3507
 4482TIP3   OH234936   5.847   0.234   3.779  0.1863 -0.1391  0.4742
 4482TIP3    H134937   5.815   0.319   3.749 -0.6040 -1.2089 -1.9155
 4482TIP3    H234938   5.768   0.182   3.793  0.6639 -1.4654 -1.3314
 4483TIP3   OH234939   3.895   0.609   4.710 -0.1391  0.2701 -0.2376
 4483TIP3    H134940   3.987   0.622   4.734 -0.2172 -0.4778  0.5174
 4483TIP3    H234941   3.894   0.622   4.615  0.6221  0.9273 -0.1717
 4484TIP3   OH234942   6.570   4.830  12.722  0.1349  0.1223  0.3341
 4484TIP3    H134943   6.483   4.853  12.752  0.3190  2.2509 -0.5976
 4484TIP3    H234944   6.561   4.741  12.688 -1.6705  0.3150  0.2343
 4485TIP3   OH234945   4.336   3.036  15.830  0.4923  0.2083 -0.0975
 4485TIP3    H134946   4.327   3.113  15.774  1.0417  1.8714  2.0042
 4485TIP3    H234947   4.403   3.060  15.893 -0.8342 -1.1842  1.9378
 4486TIP3   OH234948   3.731   2.318   0.715 -0.0876  0.4867 -0.2552
 4486TIP3    H134949   3.690   2.288   0.796  0.9041  0.4933  0.2713
 4486TIP3    H234950   3.694   2.405   0.701 -0.7772  0.2109 -0.1904
 4487TIP3   OH234951   2.351   0.582   2.007 -0.0587  0.1973 -0.0371
 4487TIP3    H134952   2.270   0.545   2.043  0.1110  0.6111  0.7975
 4487TIP3    H234953   2.421   0.528   2.044  0.2203  1.4844  1.4843
 4488TIP3   OH234954   5.464   2.696  13.365 -0.5285  0.0711 -0.3923
 4488TIP3    H134955   5.539   2.749  13.337 -0.3869  0.3484  0.4828
 4488TIP3    H234956   5.494   2.652  13.445 -0.5871 -1.4839 -1.2035
 4489TIP3   OH234957   4.523   0.099   3.046 -0.3116  0.2283 -0.4210
 4489TIP3    H134958   4.604   0.134   3.010 -0.4144  0.1885 -0.6992
 4489TIP3    H234959   4.539   0.092   3.140 -0.0710  0.4264 -0.4464
 4490TIP3   OH234960   1.935   4.888   1.936 -0.0660 -0.3920  0.2902
 4490TIP3    H134961   1.915   4.863   1.845  0.5953  0.0875  0.0033
 4490TIP3    H234962   1.858   4.936   1.965  0.0065  0.0678 -0.2634
 4491TIP3   OH234963   2.076   4.206   2.394  0.5164 -0.0350  0.3957
 4491TIP3    H134964   2.013   4.135   2.401  0.5554 -0.3770 -1.9517
 4491TIP3    H234965   2.158   4.169   2.426 -0.4790  0.6559  4.2792
 4492TIP3   OH234966   6.107   0.252  15.274  0.1728  0.0868 -0.2921
 4492TIP3    H134967   6.100   0.160  15.300  2.8800  0.2571  1.3576
 4492TIP3    H234968   6.031   0.294  15.316  1.4017 -0.6550  2.9833
 4493TIP3   OH234969   2.996   6.012  11.454  0.4709  0.4941  0.1925
 4493TIP3    H134970   3.013   6.106  11.451  1.9190  0.3140  1.3412
 4493TIP3    H234971   3.061   5.974  11.395  0.2162  0.1708  0.1156
 4494TIP3   OH234972   5.239   1.104  17.042 -1.2759  0.0129 -0.2653
 4494TIP3    H134973   5.198   1.070  16.963 -0.9603 -0.7967 -0.0996
 4494TIP3    H234974   5.189   1.064  17.114  0.3766 -1.8215 -0.0499
 4495TIP3   OH234975   1.836   6.471  10.485  0.1364  0.4992  0.6258
 4495TIP3    H134976   1.850   6.486  10.392  1.3612 -0.8538  0.5598
 4495TIP3    H234977   1.764   6.530  10.508 -1.9357 -0.9433 -1.6931
 4496TIP3   OH234978   5.354   6.419  15.521 -0.3497 -0.2784  0.4153
 4496TIP3    H134979   5.299   6.365  15.464  0.9935  0.5217 -1.8003
 4496TIP3    H234980   5.419   6.457  15.461 -1.8613  4.7495  1.5198
 4497TIP3   OH234981   4.554   1.494  16.686 -0.0999 -0.2157 -0.4310
 4497TIP3    H134982   4.531   1.434  16.616 -1.2411 -0.1378 -0.1352
 4497TIP3    H234983   4.619   1.553  16.647 -0.5906 -0.2813 -1.3716
 4498TIP3   OH234984   6.684   2.771  14.928 -0.5532 -0.3702  0.3796
 4498TIP3    H134985   6.615   2.829  14.897  0.5255  0.7908  0.0478
 4498TIP3    H234986   6.736   2.752  14.850  0.0236 -0.4736  0.7775
 4499TIP3   OH234987   2.439   1.602  13.681  0.0192  0.6039  0.1536
 4499TIP3    H134988   2.403   1.633  13.764  0.6086  1.5146  0.0891
 4499TIP3    H234989   2.406   1.664  13.616 -0.3837 -0.0639 -0.2890
 4500TIP3   OH234990   0.731   4.669  13.151 -0.0185 -0.9324  0.0016
 4500TIP3    H134991   0.699   4.751  13.114 -2.4620 -2.3406 -1.3055
 4500TIP3    H234992   0.812   4.692  13.196 -0.2171  2.0184 -0.9665
 4501TIP3   OH234993   0.326   0.931  15.110  0.2913 -0.1314  0.4491
 4501TIP3    H134994   0.317   1.015  15.065  0.0525 -0.0002  0.7380
 4501TIP3    H234995   0.408   0.939  15.160 -0.5936  0.5852  1.8416
 4502TIP3   OH234996   0.840   6.160  17.072 -0.6549  0.0171  0.2887
 4502TIP3    H134997   0.918   6.215  17.066 -0.3116 -0.4804  0.1027
 4502TIP3    H234998   0.847   6.118  17.158 -0.0966 -0.9232 -0.1920
 4503TIP3   OH234999   5.710   0.228  15.841  0.6586 -0.6691 -0.0763
 4503TIP3    H135000   5.805   0.221  15.851  0.5994 -1.3276  0.0191
 4503TIP3    H235001   5.687   0.156  15.782  0.6224  1.3136 -2.7072
 4504TIP3   OH235002   0.650   3.947  12.572  0.1977  0.2012 -0.0809
 4504TIP3    H135003   0.706   3.996  12.631  0.1331  0.4322 -0.2119
 4504TIP3    H235004   0.666   3.855  12.594 -1.7027  0.2825  2.0551
 4505TIP3   OH235005   6.543   3.716  17.101 -0.4118 -0.1294  0.1521
 4505TIP3    H135006   6.479   3.749  17.038  0.0847  1.1610  0.2997
 4505TIP3    H235007   6.490   3.679  17.172 -1.0120  1.0364  0.3344
 4506TIP3   OH235008   0.397   1.951   4.582  0.4955  0.0982  0.0405
 4506TIP3    H135009   0.420   1.864   4.616  1.1132  0.1970 -0.1062
 4506TIP3    H235010   0.472   2.006   4.606  0.2391  0.5192 -0.1281
 4507TIP3   OH235011   2.917   0.842   5.111  0.1763  0.3031  0.1738
 4507TIP3    H135012   2.976   0.851   5.186 -0.6968 -1.2796  1.1152
 4507TIP3    H235013   2.896   0.748   5.108  1.9996 -0.1765 -3.5111
 4508TIP3   OH235014   0.595   2.814  13.957  0.2991 -0.1506  0.2153
 4508TIP3    H135015   0.526   2.774  13.905  0.3999 -0.0592  0.0123
 4508TIP3    H235016   0.593   2.907  13.933 -1.3001  0.3867  2.1632
 4509TIP3   OH235017   3.552   0.102  15.777 -0.0289 -0.4928 -0.7435
 4509TIP3    H135018   3.575   0.037  15.844  1.2676 -1.0040 -1.6318
 4509TIP3    H235019   3.584   0.185  15.813  0.3753 -0.7129 -0.5774
 4510TIP3   OH235020   1.630   2.393  13.017 -0.0672  0.3990  0.2652
 4510TIP3    H135021   1.606   2.470  13.069 -0.6142  0.3830  0.0439
 4510TIP3    H235022   1.584   2.321  13.060  1.4346 -0.0296  1.2291
 4511TIP3   OH235023   2.374   6.060  13.546  0.2035  0.9327  0.1628
 4511TIP3    H135024   2.310   6.086  13.480  3.2532  0.7593 -3.1181
 4511TIP3    H235025   2.412   6.143  13.577  0.4276  0.9229 -0.0850
 4512TIP3   OH235026   0.077   3.883   4.482 -0.0344  0.2135 -0.0022
 4512TIP3    H135027   0.146   3.933   4.526 -0.2441  0.3144  0.2074
 4512TIP3    H235028   0.068   3.924   4.396 -0.1018  0.4375  0.1137
 4513TIP3   OH235029   3.297   4.444  15.042 -0.4459 -0.3043  0.3432
 4513TIP3    H135030   3.247   4.417  15.119 -0.3517  0.9348  0.8608
 4513TIP3    H235031   3.360   4.508  15.076  1.0046 -1.2690 -0.4197
 4514TIP3   OH235032   0.247   0.343  16.825 -0.2303 -0.0074 -0.7272
 4514TIP3    H135033   0.338   0.361  16.801 -0.1763 -0.0057 -0.5218
 4514TIP3    H235034   0.212   0.427  16.852  0.6443 -0.4877  2.3492
 4515TIP3   OH235035   0.235   6.203  14.845  0.2335 -0.1000  0.2529
 4515TIP3    H135036   0.243   6.114  14.810 -1.5312  0.6509 -2.4545
 4515TIP3    H235037   0.246   6.259  14.768  1.8228  2.1168  1.9619
 4516TIP3   OH235038   0.217   6.667   1.815 -0.6293 -0.1198 -0.0141
 4516TIP3    H135039   0.137   6.665   1.763  0.2434 -0.5935 -1.4075
 4516TIP3    H235040   0.265   6.743   1.783 -0.2917 -0.1363  0.4360
 4517TIP3   OH235041   0.971   0.334   5.816 -0.6229 -0.2679  0.6368
 4517TIP3    H135042   1.003   0.362   5.902 -0.7847 -1.8187  1.2317
 4517TIP3    H235043   0.953   0.241   5.826 -0.9283 -0.4176 -1.0109
 4518TIP3   OH235044   1.014   1.170  13.095  0.3473  1.0079 -0.2409
 4518TIP3    H135045   1.011   1.254  13.142 -0.7179  1.3730 -0.9186
 4518TIP3    H235046   1.068   1.188  13.019 -0.7716  1.4237 -0.9708
 4519TIP3   OH235047   4.640   2.348   4.241 -0.5240 -0.2368 -0.1054
 4519TIP3    H135048   4.677   2.306   4.319  0.4196  0.2566 -0.2700
 4519TIP3    H235049   4.613   2.275   4.186 -0.7721 -0.5981  0.4811
 4520TIP3   OH235050   1.943   5.646   4.904 -0.1081  0.0354  0.9280
 4520TIP3    H135051   1.867   5.699   4.880  0.0277 -0.1295  0.1016
 4520TIP3    H235052   2.017   5.704   4.892 -0.0983  0.1798  1.6816
 4521TIP3   OH235053   2.440   5.957   2.255  0.7463 -0.4273 -0.0898
 4521TIP3    H135054   2.348   5.949   2.230  0.0916  0.7819  1.6837
 4521TIP3    H235055   2.448   5.905   2.335  1.1481  0.8218  0.7176
 4522TIP3   OH235056   0.179   1.970  17.227  0.8484  0.1460 -0.0922
 4522TIP3    H135057   0.158   2.025  17.303  0.8673 -0.6306  0.4877
 4522TIP3    H235058   0.193   2.032  17.156 -1.1467  0.8178  0.0300
 4523TIP3   OH235059   3.026   6.382   0.355  0.6370  0.8562  0.5262
 4523TIP3    H135060   2.945   6.332   0.346 -0.1320  2.3186 -1.5010
 4523TIP3    H235061   2.996   6.472   0.373  1.8875  1.0866  1.6212
 4524TIP3   OH235062   3.524   5.884   4.883  0.4660  0.1482 -0.8522
 4524TIP3    H135063   3.545   5.850   4.970  0.3331 -2.1919 -1.6672
 4524TIP3    H235064   3.602   5.934   4.858  0.6944  0.4699  0.3914
 4525TIP3   OH235065   3.977   4.582  12.888  0.3162 -0.6898 -0.0704
 4525TIP3    H135066   3.927   4.501  12.880  0.0987 -0.4356 -1.9919
 4525TIP3    H235067   4.032   4.583  12.809  1.6767  0.1398  0.8643
 4526TIP3   OH235068   2.753   6.151  16.250  0.0041 -0.4390 -0.4438
 4526TIP3    H135069   2.769   6.061  16.278 -0.0861 -0.3025  0.0540
 4526TIP3    H235070   2.728   6.197  16.330 -0.8717 -0.1814 -0.8572
 4527TIP3   OH235071   0.332   4.343   6.201 -0.2462  0.4757  0.4789
 4527TIP3    H135072   0.348   4.366   6.109  0.1639 -1.4242  0.0298
 4527TIP3    H235073   0.415   4.359   6.245  0.0101 -0.0252  0.1897
 4528TIP3   OH235074   4.429   6.384   2.217  0.5765  0.9680  0.3505
 4528TIP3    H135075   4.502   6.339   2.175 -0.4026  1.3083 -1.9063
 4528TIP3    H235076   4.456   6.397   2.307  2.7077 -0.1488 -0.0799
 4529TIP3   OH235077   4.779   4.221  16.498  0.4127  0.0142 -0.1949
 4529TIP3    H135078   4.796   4.134  16.462 -2.3076 -0.2289 -1.1612
 4529TIP3    H235079   4.824   4.281  16.438 -0.1760 -0.6193 -1.3015
 4530TIP3   OH235080   2.639   3.398   6.652 -0.6590  0.1045  0.3001
 4530TIP3    H135081   2.715   3.455   6.667 -1.3777  0.9136  1.0028
 4530TIP3    H235082   2.676   3.311   6.641  0.5176  0.7582 -1.2743
 4531TIP3   OH235083   2.439   4.294   2.801 -0.6195 -0.4614  0.7333
 4531TIP3    H135084   2.402   4.210   2.827 -1.1662 -0.2538  0.6475
 4531TIP3    H235085   2.388   4.320   2.724 -0.7881  0.1782  1.0548
 4532TIP3   OH235086   6.330   2.019  13.973 -0.4233 -0.7753  0.3662
 4532TIP3    H135087   6.399   2.036  14.038  0.3463  1.4537 -0.9152
 4532TIP3    H235088   6.252   2.057  14.012 -0.4191 -1.2471  0.8421
 4533TIP3   OH235089   2.827   5.284   1.868  0.3637 -0.5676 -0.3113
 4533TIP3    H135090   2.736   5.255   1.877 -0.2158  0.6305 -1.9359
 4533TIP3    H235091   2.879   5.207   1.893 -1.0822 -1.3987  0.2402
 4534TIP3   OH235092   0.578   2.131   2.258 -0.1720  0.2524  0.2770
 4534TIP3    H135093   0.611   2.178   2.335  0.4909 -1.2299  0.9332
 4534TIP3    H235094   0.629   2.165   2.185  0.3517  0.4851  0.7493
 4535TIP3   OH235095   3.710   5.105  13.806 -0.6150 -0.1695  0.4475
 4535TIP3    H135096   3.785   5.135  13.856 -1.0517  0.1072  0.9469
 4535TIP3    H235097   3.715   5.010  13.808  1.1750 -0.2024 -1.7323
 4536TIP3   OH235098   4.871   5.879   5.788 -0.2333  0.3348 -0.2226
 4536TIP3    H135099   4.834   5.949   5.734  0.2197  1.2476  0.6092
 4536TIP3    H235100   4.798   5.849   5.842  0.0796  1.8807  1.1554
 4537TIP3   OH235101   5.918   5.851   2.688  0.6067 -0.4746 -0.3071
 4537TIP3    H135102   6.007   5.878   2.712  1.2489 -1.4134 -1.5071
 4537TIP3    H235103   5.889   5.797   2.761  0.5075  0.8643  0.6799
 4538TIP3   OH235104   0.053   3.270  15.169 -0.6866 -0.3079 -0.0427
 4538TIP3    H135105   0.109   3.199  15.137 -0.7870 -0.9021  1.0518
 4538TIP3    H235106   0.019   3.238  15.253 -2.2014  0.2846 -0.4029
 4539TIP3   OH235107   0.879   3.799   0.517  0.0388 -0.0106 -0.5441
 4539TIP3    H135108   0.799   3.844   0.546 -0.6730 -1.5724  0.0248
 4539TIP3    H235109   0.861   3.776   0.426 -1.5180 -3.0372  0.3935
 4540TIP3   OH235110   4.407   4.101  10.831 -1.1908 -0.0812 -0.1102
 4540TIP3    H135111   4.380   4.190  10.855 -0.0983  0.3575 -0.4886
 4540TIP3    H235112   4.502   4.101  10.839 -1.1535 -1.1347 -0.3979
 4541TIP3   OH235113   0.934   6.489  15.580  0.0743 -0.0753  0.4463
 4541TIP3    H135114   0.935   6.408  15.632  0.3286 -0.5696 -0.3184
 4541TIP3    H235115   0.909   6.557  15.643  0.7872 -0.5915  1.3087
 4542TIP3   OH235116   3.250   2.328   1.811 -0.5421  0.1804 -0.2013
 4542TIP3    H135117   3.298   2.346   1.891  0.2621 -0.7140 -0.4685
 4542TIP3    H235118   3.199   2.408   1.795 -1.8997 -0.1942  1.9903
 4543TIP3   OH235119   5.629   4.977   3.651 -0.0829  0.3470 -0.3624
 4543TIP3    H135120   5.540   4.995   3.681  0.1065  2.1593 -0.7291
 4543TIP3    H235121   5.663   4.913   3.714 -1.2735  0.4656  0.4326
 4544TIP3   OH235122   5.134   5.513   0.119 -0.5798  0.4210  0.3201
 4544TIP3    H135123   5.156   5.604   0.140 -2.5323  1.0499 -0.1667
 4544TIP3    H235124   5.072   5.519   0.047 -0.8655 -1.3100  0.3714
 4545TIP3   OH235125   5.031   6.373  13.629  0.0282  0.0891  0.0837
 4545TIP3    H135126   4.966   6.388  13.560  0.3644  1.1261 -0.0360
 4545TIP3    H235127   5.095   6.314  13.590 -1.2947 -1.7029  0.5162
 4546TIP3   OH235128   2.358   5.779  13.838  0.1621 -0.1108  0.3941
 4546TIP3    H135129   2.408   5.804  13.760 -1.0209  1.6221  0.1296
 4546TIP3    H235130   2.407   5.705  13.875  1.4124 -0.2050 -1.3070
 4547TIP3   OH235131   1.107   0.402  11.261  0.0450  0.1782 -0.1134
 4547TIP3    H135132   1.180   0.371  11.314 -0.8011  0.4846  1.2756
 4547TIP3    H235133   1.092   0.332  11.198 -0.1995 -1.1369  1.3435
 4548TIP3   OH235134   6.347   2.253   5.034 -0.0897 -0.4989  0.3015
 4548TIP3    H135135   6.292   2.249   5.112  0.6035 -0.4325  0.7969
 4548TIP3    H235136   6.358   2.346   5.016  0.7483 -0.4909  0.8375
 4549TIP3   OH235137   5.725   5.864   5.515 -0.2745 -0.0774 -0.1007
 4549TIP3    H135138   5.656   5.823   5.566 -0.6631 -2.6907 -2.4589
 4549TIP3    H235139   5.806   5.825   5.548  0.0764  2.0304  1.7888
 4550TIP3   OH235140   5.771   3.557   3.536  0.1331  0.3296  0.2713
 4550TIP3    H135141   5.840   3.535   3.598 -1.0806  0.4038  1.7002
 4550TIP3    H235142   5.735   3.472   3.510 -0.6328  0.3447  1.2073
 4551TIP3   OH235143   2.511   5.997  16.086 -0.2574 -0.3755  0.2468
 4551TIP3    H135144   2.598   5.971  16.056 -0.2230 -0.8937  0.7690
 4551TIP3    H235145   2.468   6.031  16.008 -0.0562 -1.3681 -0.3200
 4552TIP3   OH235146   1.757   3.499  11.356 -0.4625  0.0684  0.0240
 4552TIP3    H135147   1.819   3.480  11.427  0.4371 -0.3076 -0.8367
 4552TIP3    H235148   1.705   3.420  11.347  0.4682 -0.4786 -0.7532
 4553TIP3   OH235149   1.890   2.932   2.736 -0.0552  0.2537 -0.0786
 4553TIP3    H135150   1.971   2.915   2.688  0.1396  0.5837  0.1351
 4553TIP3    H235151   1.888   2.865   2.804  0.8512  1.2278  0.9376
 4554TIP3   OH235152   2.500   4.187   4.082  0.3014 -0.1976 -0.2700
 4554TIP3    H135153   2.589   4.221   4.084  0.8412 -1.6055  0.8695
 4554TIP3    H235154   2.507   4.097   4.114 -1.8381  0.3461  2.0783
 4555TIP3   OH235155   0.034   5.857   2.622 -0.2572  0.2364  0.0889
 4555TIP3    H135156   0.068   5.769   2.610 -0.9454 -0.2040  1.2545
 4555TIP3    H235157   0.090   5.896   2.689  0.1099  0.7496 -0.4918
 4556TIP3   OH235158   4.608   0.518   5.774 -0.2913  0.0582 -0.5912
 4556TIP3    H135159   4.541   0.461   5.737 -0.1071 -0.8625  0.4400
 4556TIP3    H235160   4.591   0.516   5.869 -0.4725  1.9778 -0.5526
 4557TIP3   OH235161   6.029   3.212  16.618 -0.0084 -0.4828 -0.1881
 4557TIP3    H135162   6.024   3.123  16.583  1.1083 -0.3801 -0.6291
 4557TIP3    H235163   6.047   3.199  16.711 -2.8862 -0.7512  0.4428
 4558TIP3   OH235164   0.701   4.104   4.598  0.2866 -0.0709  0.0770
 4558TIP3    H135165   0.765   4.037   4.571 -0.9429 -1.1627 -0.2176
 4558TIP3    H235166   0.623   4.054   4.623 -0.0846  1.1692  1.5446
 4559TIP3   OH235167   1.877   3.194   2.238  0.2787  0.4485 -0.1470
 4559TIP3    H135168   1.797   3.170   2.191 -0.2653  1.9224 -0.0364
 4559TIP3    H235169   1.886   3.127   2.305 -1.8958  1.1755  0.9896
 4560TIP3   OH235170   2.945   4.290   3.200  0.2094  0.0790 -0.2699
 4560TIP3    H135171   3.016   4.226   3.209 -0.3302 -0.5565 -0.4751
 4560TIP3    H235172   2.966   4.337   3.119  1.2398  0.9814  0.4848
 4561TIP3   OH235173   1.552   0.260  17.200  0.5721  0.2621 -0.7046
 4561TIP3    H135174   1.635   0.214  17.207  0.2439 -0.2265  0.2311
 4561TIP3    H235175   1.486   0.191  17.211  0.0140  0.4840 -2.3930
 4562TIP3   OH235176   5.965   1.983  16.648 -0.0633  0.8855  0.3526
 4562TIP3    H135177   5.901   1.988  16.577 -0.8682  1.5099  1.0999
 4562TIP3    H235178   6.039   1.934  16.611 -1.4495 -0.9184 -0.1631
 4563TIP3   OH235179   4.130   1.610   3.261  0.0327  0.1143 -0.6570
 4563TIP3    H135180   4.052   1.582   3.309 -1.5890  3.0707 -1.3653
 4563TIP3    H235181   4.198   1.615   3.328 -0.8918 -0.5387  0.3872
 4564TIP3   OH235182   1.602   6.321  12.844  0.4510 -0.0020  0.3716
 4564TIP3    H135183   1.668   6.385  12.872 -1.6563  1.7786  1.6381
 4564TIP3    H235184   1.554   6.365  12.774  0.0407 -0.8849  0.0822
 4565TIP3   OH235185   0.538   1.559   3.663  0.3226  0.2547 -0.3126
 4565TIP3    H135186   0.467   1.567   3.600 -0.5599  0.3981  0.6705
 4565TIP3    H235187   0.566   1.467   3.656 -2.6799 -1.0183  2.0323
 4566TIP3   OH235188   6.775   5.896  13.035 -0.6182 -0.1732  0.3935
 4566TIP3    H135189   6.732   5.819  12.998  0.6197 -1.5035  1.5890
 4566TIP3    H235190   6.741   5.970  12.984  0.4314 -1.7865 -2.8810
 4567TIP3   OH235191   2.452   1.681   2.390  0.3395  0.4584 -0.3370
 4567TIP3    H135192   2.431   1.617   2.458  1.2375  1.5270  0.9992
 4567TIP3    H235193   2.512   1.634   2.331  0.0814 -0.2769 -0.0297
 4568TIP3   OH235194   4.349   4.296   4.786  0.6333  0.1324  0.8004
 4568TIP3    H135195   4.435   4.280   4.825  1.4280 -0.3667 -1.0340
 4568TIP3    H235196   4.356   4.259   4.698 -0.6460  2.2495 -0.2652
 4569TIP3   OH235197   1.767   1.533  16.227 -0.0805 -0.2219  0.5086
 4569TIP3    H135198   1.813   1.600  16.276  0.2248 -1.9573  2.7791
 4569TIP3    H235199   1.682   1.526  16.270 -0.6309 -0.3794 -0.5624
 4570TIP3   OH235200   2.267   5.070   2.650  0.2338 -0.1854  0.7320
 4570TIP3    H135201   2.238   5.119   2.727  0.9096 -0.8247  1.4138
 4570TIP3    H235202   2.189   5.063   2.595  0.4019  2.7799 -0.0510
 4571TIP3   OH235203   5.636   5.496   2.887 -0.1035 -0.3659 -0.4115
 4571TIP3    H135204   5.664   5.414   2.928  1.0216  1.7129  3.3811
 4571TIP3    H235205   5.715   5.530   2.846 -0.1334 -0.3398 -0.4468
 4572TIP3   OH235206   4.401   3.211   2.756 -0.5338  0.2314 -0.3773
 4572TIP3    H135207   4.312   3.191   2.784 -0.3836  0.4007  0.2350
 4572TIP3    H235208   4.438   3.263   2.827  1.8923 -4.3103  2.1683
 4573TIP3   OH235209   5.933   5.200   3.852 -0.3551 -0.0600  0.0062
 4573TIP3    H135210   6.019   5.230   3.822 -0.0447 -1.8938 -1.1286
 4573TIP3    H235211   5.953   5.126   3.910 -1.1466  0.1898  0.6148
 4574TIP3   OH235212   5.774   4.073   5.740  0.0170  0.4239  0.0991
 4574TIP3    H135213   5.695   4.121   5.712 -0.6113  0.0771  1.2108
 4574TIP3    H235214   5.741   4.005   5.798  1.0965 -0.1192  0.0930
 4575TIP3   OH235215   4.677   3.311  16.754  0.1421  0.2472 -0.5553
 4575TIP3    H135216   4.745   3.378  16.753 -1.0652  1.5002 -0.7315
 4575TIP3    H235217   4.653   3.303  16.846  0.5446 -0.2234 -0.4886
 4576TIP3   OH235218   6.456   6.217   5.031  0.2554 -0.0668 -0.2248
 4576TIP3    H135219   6.388   6.276   5.062  0.2670  0.1484 -0.6122
 4576TIP3    H235220   6.440   6.207   4.938 -1.3513 -2.7495  0.2238
 4577TIP3   OH235221   2.811   4.195   1.935 -0.6963  0.1365  0.3038
 4577TIP3    H135222   2.890   4.144   1.953 -1.3130 -1.1477 -0.4658
 4577TIP3    H235223   2.787   4.170   1.846 -0.2373  2.8719 -0.6869
 4578TIP3   OH235224   4.189   0.729  14.717  0.0460 -0.5452  0.8757
 4578TIP3    H135225   4.152   0.657  14.666 -1.0047  0.2799  0.4429
 4578TIP3    H235226   4.181   0.701  14.808 -0.2193 -1.0394  0.7045
 4579TIP3   OH235227   4.391   2.780  15.728  0.2394 -0.1769  0.0934
 4579TIP3    H135228   4.451   2.795  15.655 -1.5712  0.2553 -1.3759
 4579TIP3    H235229   4.372   2.868  15.762  2.4870 -0.4622  2.3791
 4580TIP3   OH235230   6.473   1.872   5.720 -0.0633 -0.1411  0.1622
 4580TIP3    H135231   6.509   1.959   5.738 -1.1338  0.5099 -0.7320
 4580TIP3    H235232   6.548   1.813   5.731  0.5286  0.7855  1.4829
 4581TIP3   OH235233   5.797   3.695   6.111  0.4704 -0.8303  0.6969
 4581TIP3    H135234   5.845   3.777   6.126 -2.2006  0.8807  0.5051
 4581TIP3    H235235   5.864   3.634   6.081  2.7062  1.0435  1.5324
 4582TIP3   OH235236   5.077   3.421   0.940 -0.0453 -0.3688  0.3594
 4582TIP3    H135237   5.168   3.425   0.910  0.2818 -1.4009  1.1513
 4582TIP3    H235238   5.028   3.469   0.874  1.5007  3.6261  1.7504
 4583TIP3   OH235239   1.134   3.539   1.594 -0.2792 -0.0780  0.2171
 4583TIP3    H135240   1.042   3.550   1.620 -0.2339  1.0853 -0.0493
 4583TIP3    H235241   1.181   3.607   1.643  0.2365  0.2094 -0.6609
 4584TIP3   OH235242   5.849   4.018   4.262  0.3717 -0.2436 -0.7057
 4584TIP3    H135243   5.859   3.938   4.314  0.6401 -0.2448 -0.7587
 4584TIP3    H235244   5.807   3.989   4.181  0.7503 -0.3790 -0.8540
 4585TIP3   OH235245   4.575   6.135   4.572 -0.1426  0.7238 -0.3929
 4585TIP3    H135246   4.573   6.075   4.647  0.7606  1.9374  0.6554
 4585TIP3    H235247   4.486   6.168   4.566 -0.5374 -0.3566 -0.6927
 4586TIP3   OH235248   5.192   0.427  15.633  0.3184 -0.0579  0.2234
 4586TIP3    H135249   5.119   0.401  15.577 -0.9798 -0.6722  2.1146
 4586TIP3    H235250   5.261   0.363  15.615 -0.6760 -1.2310  0.4893
 4587TIP3   OH235251   4.966   1.689  12.995 -0.1385  0.5890 -0.0830
 4587TIP3    H135252   4.956   1.707  12.901 -0.5684  0.6395 -0.0308
 4587TIP3    H235253   4.964   1.775  13.036  0.9434  0.6289 -0.1017
 4588TIP3   OH235254   5.720   5.774   1.587  0.0174  0.0466  0.3441
 4588TIP3    H135255   5.672   5.856   1.600 -0.9583 -0.4510 -0.0528
 4588TIP3    H235256   5.804   5.789   1.631 -0.9257  0.5341  2.0743
 4589TIP3   OH235257   3.881   5.502  15.900 -0.1078  0.4229  0.6532
 4589TIP3    H135258   3.939   5.505  15.824 -0.8729 -0.6731 -0.0028
 4589TIP3    H235259   3.935   5.470  15.971  0.6646  1.6250  0.6344
 4590TIP3   OH235260   0.484   0.259   4.686  0.2442  0.4226 -0.0674
 4590TIP3    H135261   0.415   0.223   4.742 -0.3064 -0.0794 -1.0524
 4590TIP3    H235262   0.554   0.194   4.688  0.5280  0.7376  0.5952
 4591TIP3   OH235263   4.881   6.757   3.521 -0.0214  0.8021 -0.0920
 4591TIP3    H135264   4.851   6.848   3.524 -1.3437  0.6243 -3.4026
 4591TIP3    H235265   4.973   6.763   3.495  0.1381  1.1772  0.5308
 4592TIP3   OH235266   1.964   1.245   0.489 -0.1958 -0.3435  0.8482
 4592TIP3    H135267   1.897   1.177   0.483  0.0139 -0.5935  1.2836
 4592TIP3    H235268   1.945   1.290   0.572 -2.1587  2.0909 -0.7824
 4593TIP3   OH235269   2.383   3.109   1.906 -0.2616 -0.1357 -0.2743
 4593TIP3    H135270   2.375   3.046   1.835  0.4565 -0.8794  0.2837
 4593TIP3    H235271   2.463   3.083   1.952 -2.4439 -1.8755  2.9196
 4594TIP3   OH235272   5.167   2.442  10.776 -0.7016  0.4861  0.1862
 4594TIP3    H135273   5.254   2.420  10.810 -0.3106 -2.4279 -2.2049
 4594TIP3    H235274   5.180   2.520  10.723  0.9000 -0.7373 -1.3442
 4595TIP3   OH235275   5.901   6.432  14.143  0.4116  0.6290  0.3638
 4595TIP3    H135276   5.984   6.444  14.188  0.3823  1.0938  0.2997
 4595TIP3    H235277   5.922   6.441  14.050  0.1377  1.7535  0.3906
 4596TIP3   OH235278   4.170   4.181  13.288  0.0300  0.5455 -0.1191
 4596TIP3    H135279   4.084   4.201  13.252 -1.2747 -2.2388  1.1867
 4596TIP3    H235280   4.222   4.155  13.212 -1.1163 -0.3127 -0.6290
 4597TIP3   OH235281   1.077   4.622  15.703  0.5581 -0.2284  0.0902
 4597TIP3    H135282   1.029   4.701  15.729 -1.3686 -0.6424 -1.9401
 4597TIP3    H235283   1.165   4.634  15.740 -0.5133  1.4647  2.3360
 4598TIP3   OH235284   3.858   0.892   5.326 -0.1945 -0.5467 -0.3899
 4598TIP3    H135285   3.806   0.885   5.245  2.5898 -3.3440 -2.1610
 4598TIP3    H235286   3.854   0.805   5.364 -1.2479  0.6605  2.5433
 4599TIP3   OH235287   6.496   0.796  12.048  1.0341  0.5780  0.1072
 4599TIP3    H135288   6.428   0.863  12.047 -0.2804 -0.6929  0.2454
 4599TIP3    H235289   6.499   0.767  12.139  2.5048  1.3200  0.3135
 4600TIP3   OH235290   2.617   4.896  16.372  0.0660  0.3078  0.8703
 4600TIP3    H135291   2.627   4.991  16.361  1.4200 -0.1068 -2.5093
 4600TIP3    H235292   2.696   4.869  16.419 -0.4717  0.8273  2.1329
 4601TIP3   OH235293   2.884   5.580   6.504  0.4896 -0.2248 -0.4788
 4601TIP3    H135294   2.929   5.528   6.571  0.9204  1.0447  0.2310
 4601TIP3    H235295   2.838   5.648   6.553 -2.7591 -1.7603 -1.0833
 4602TIP3   OH235296   4.732   1.246   6.327  0.3914 -0.0664 -0.8496
 4602TIP3    H135297   4.786   1.184   6.377  0.1288  0.6587  0.3869
 4602TIP3    H235298   4.667   1.191   6.282 -1.3702 -0.6224  2.0958
 4603TIP3   OH235299   1.414   2.177  12.525  0.8541 -0.0491 -0.3458
 4603TIP3    H135300   1.366   2.112  12.577 -0.0316  0.6829 -0.2332
 4603TIP3    H235301   1.462   2.228  12.590  1.6852 -0.6866 -0.4469
 4604TIP3   OH235302   4.816   4.992   0.240 -0.0875 -0.8474  0.3083
 4604TIP3    H135303   4.786   5.051   0.171 -0.0263 -0.3690  0.6876
 4604TIP3    H235304   4.808   4.904   0.202 -1.5526 -0.7047  0.2539
 4605TIP3   OH235305   2.720   6.090  11.994 -0.2644  0.4347 -0.0537
 4605TIP3    H135306   2.681   6.125  11.914  0.2084  1.3513  0.0974
 4605TIP3    H235307   2.789   6.031  11.964 -1.8936 -1.4174 -0.3245
 4606TIP3   OH235308   3.977   6.499  16.285  0.2567  0.2826 -0.0413
 4606TIP3    H135309   3.964   6.423  16.228  1.2859  1.2040 -1.5773
 4606TIP3    H235310   4.049   6.474  16.343 -1.6107 -1.1423  1.8446
 4607TIP3   OH235311   3.341   5.658   3.526  0.4875  0.1634 -0.0390
 4607TIP3    H135312   3.292   5.577   3.537  1.2843 -0.0631  2.6526
 4607TIP3    H235313   3.433   5.631   3.525  0.7894  1.0147  1.3421
 4608TIP3   OH235314   0.723   0.191  11.826 -0.3284  0.2998  0.1067
 4608TIP3    H135315   0.773   0.234  11.895  0.1286 -0.5217  0.2967
 4608TIP3    H235316   0.688   0.263  11.774  0.6867  0.9100  0.2310
 4609TIP3   OH235317   3.129   6.811  15.490  0.5322 -0.4550 -0.1296
 4609TIP3    H135318   3.035   6.820  15.506  0.3371  1.5038 -1.9574
 4609TIP3    H235319   3.160   6.755  15.561 -2.2655 -2.4774 -0.3491
 4610TIP3   OH235320   3.432   5.573   3.901 -1.1153 -0.6499 -0.1380
 4610TIP3    H135321   3.375   5.496   3.897 -0.2721 -1.3337  0.6175
 4610TIP3    H235322   3.453   5.583   3.994  1.0392 -1.2129 -0.5118
 4611TIP3   OH235323   6.737   5.689  12.180  0.7460 -0.7491 -0.2835
 4611TIP3    H135324   6.645   5.677  12.156  0.5902 -1.1703  0.5216
 4611TIP3    H235325   6.782   5.613  12.141  0.5453 -1.2529  0.4582
 4612TIP3   OH235326   2.182   5.354   0.439 -0.1061  0.6097 -0.0962
 4612TIP3    H135327   2.155   5.443   0.464  0.1875  0.9869 -1.0810
 4612TIP3    H235328   2.219   5.364   0.351  0.1493 -0.4535 -0.1196
 4613TIP3   OH235329   6.629   6.052   4.619  0.0326  0.1746  0.7069
 4613TIP3    H135330   6.562   6.089   4.676 -0.7677  2.4339 -1.5236
 4613TIP3    H235331   6.636   6.114   4.546  1.4551 -2.1840 -1.3309
 4614TIP3   OH235332   2.724   5.285   2.589  0.2840  0.2044  0.1409
 4614TIP3    H135333   2.706   5.228   2.664 -1.6567  1.9729  1.1394
 4614TIP3    H235334   2.766   5.362   2.627 -0.3909  0.9610 -0.6139
 4615TIP3   OH235335   1.556   5.727  11.365  0.0217  0.1398 -0.3162
 4615TIP3    H135336   1.503   5.682  11.300 -0.0472  0.5697 -0.5627
 4615TIP3    H235337   1.546   5.820  11.343  1.3255  0.2040 -0.7172
 4616TIP3   OH235338   1.126   4.052  13.160  0.3607  0.2148 -0.1948
 4616TIP3    H135339   1.181   4.001  13.100  0.5476 -0.4721  0.5446
 4616TIP3    H235340   1.147   4.018  13.247  0.8219  1.8773  0.3733
 4617TIP3   OH235341   1.035   0.685   5.860 -0.0547 -0.2347  0.0474
 4617TIP3    H135342   1.012   0.612   5.918 -2.2085  1.2820  1.2095
 4617TIP3    H235343   1.091   0.741   5.913 -0.2053  0.0620 -0.1094
 4618TIP3   OH235344   4.452   1.183   2.760 -0.5889 -0.2714 -0.0253
 4618TIP3    H135345   4.429   1.121   2.691 -0.7414  0.5879 -0.7605
 4618TIP3    H235346   4.470   1.265   2.714 -2.6308  0.8742  1.0779
 4619TIP3   OH235347   5.163   0.169  15.884 -0.4220 -0.8368  0.5162
 4619TIP3    H135348   5.105   0.095  15.901 -1.8577  0.4462  1.6440
 4619TIP3    H235349   5.157   0.184  15.790 -0.7436 -1.6628  0.4045
 4620TIP3   OH235350   3.924   3.845   0.406  0.5113 -0.0722  0.1853
 4620TIP3    H135351   4.012   3.827   0.437  0.8724  1.7994  0.3892
 4620TIP3    H235352   3.894   3.762   0.369  1.9775 -0.9989  0.9707
 4621TIP3   OH235353   0.974   6.176   1.528  0.2982  0.4651 -0.0282
 4621TIP3    H135354   1.035   6.189   1.455 -1.4367 -0.5466 -1.7520
 4621TIP3    H235355   0.933   6.092   1.510  0.7593 -0.5276  2.9131
 4622TIP3   OH235356   0.356   1.882   3.695  0.2628  0.0056  0.0872
 4622TIP3    H135357   0.301   1.941   3.746  0.4013  0.1065  0.1176
 4622TIP3    H235358   0.307   1.799   3.696 -0.0582  0.1879 -0.1772
 4623TIP3   OH235359   6.292   4.098  14.027 -0.0570  0.0660 -0.1333
 4623TIP3    H135360   6.217   4.061  13.979  0.1523 -0.1159 -0.3251
 4623TIP3    H235361   6.295   4.048  14.108  2.3094 -2.8339 -1.8056
 4624TIP3   OH235362   2.401   0.099  10.652  0.4508 -0.2596 -0.1217
 4624TIP3    H135363   2.445   0.034  10.707 -2.3013 -0.9611  1.4567
 4624TIP3    H235364   2.465   0.169  10.640  1.2385  0.0125  4.1712
 4625TIP3   OH235365   5.587   5.415  15.475  0.2170  0.0552 -0.3985
 4625TIP3    H135366   5.624   5.376  15.396 -0.7561 -0.4551 -0.6172
 4625TIP3    H235367   5.659   5.463  15.514  1.5067 -2.0199 -0.0700
 4626TIP3   OH235368   3.948   6.217   4.888 -0.1199 -0.5658  0.1884
 4626TIP3    H135369   4.005   6.184   4.958  0.4660  0.3923  0.1837
 4626TIP3    H235370   3.995   6.196   4.808 -0.6766 -1.4488  0.0927
 4627TIP3   OH235371   2.095   2.746   4.122  0.3359 -0.2347  0.2260
 4627TIP3    H135372   2.129   2.727   4.209  0.2289  0.9729  0.5510
 4627TIP3    H235373   2.120   2.837   4.106 -2.8465  0.8196  0.5663
 4628TIP3   OH235374   2.608   3.737  13.005  0.3284  0.1584 -0.2300
 4628TIP3    H135375   2.527   3.763  12.963  0.7371 -0.6502 -1.5843
 4628TIP3    H235376   2.608   3.783  13.089 -1.0781  0.8762 -0.6015
 4629TIP3   OH235377   0.066   0.757   2.401 -0.2470 -0.4121  0.1263
 4629TIP3    H135378   0.154   0.760   2.363 -0.2119  0.8825  0.2801
 4629TIP3    H235379   0.073   0.693   2.471  0.7544  0.1478  0.5562
 4630TIP3   OH235380   6.176   1.801   3.014  0.4459  0.1527  0.1483
 4630TIP3    H135381   6.261   1.765   3.042  0.6096 -1.3994 -2.1242
 4630TIP3    H235382   6.196   1.851   2.935 -0.5621  1.0640  0.4505
 4631TIP3   OH235383   3.303   4.960  14.940  0.0518 -0.4242 -0.5588
 4631TIP3    H135384   3.373   4.898  14.959  0.2194  0.2194  1.0929
 4631TIP3    H235385   3.348   5.042  14.923 -0.2449  0.4633  2.3356
 4632TIP3   OH235386   0.704   1.840   5.463  0.1332  0.1803 -0.2643
 4632TIP3    H135387   0.682   1.747   5.463  1.0998 -0.1187  1.9706
 4632TIP3    H235388   0.636   1.880   5.517 -0.2160  0.7808 -1.1259
 4633TIP3   OH235389   4.011   5.499   0.574 -0.2265 -0.3788  0.3260
 4633TIP3    H135390   3.986   5.531   0.661 -1.0846 -0.5829  0.1582
 4633TIP3    H235391   4.103   5.524   0.565  0.0829 -0.9944  1.5895
 4634TIP3   OH235392   0.703   3.649  11.465  0.0645 -0.0428 -0.7993
 4634TIP3    H135393   0.608   3.651  11.453  0.0905  0.6162 -0.9986
 4634TIP3    H235394   0.727   3.557  11.456 -0.7159 -0.4116  0.6851
 4635TIP3   OH235395   1.348   2.195   3.708  0.3830 -0.6927  0.6197
 4635TIP3    H135396   1.351   2.257   3.781  2.8782  0.1716 -0.1082
 4635TIP3    H235397   1.428   2.142   3.719  0.2310 -1.2697 -0.8774
 4636TIP3   OH235398   1.295   4.260   5.880  0.4039 -0.3370  0.1587
 4636TIP3    H135399   1.277   4.279   5.972 -0.3187  1.3705 -0.2893
 4636TIP3    H235400   1.334   4.173   5.880 -2.2102 -1.6259  1.8073
 4637TIP3   OH235401   0.535   5.381  15.916 -0.2925  0.8650  0.2417
 4637TIP3    H135402   0.587   5.340  15.847 -0.1838  0.5122  0.5301
 4637TIP3    H235403   0.488   5.452  15.872  0.6615  1.3834  0.0263
 4638TIP3   OH235404   2.019   3.528   3.376 -0.3356  0.1044 -0.1290
 4638TIP3    H135405   2.109   3.499   3.357 -0.5018 -0.7687  0.3949
 4638TIP3    H235406   1.992   3.573   3.296  0.7153  0.7384 -0.1437
 4639TIP3   OH235407   1.614   0.540  16.722  0.2265  0.0662 -0.3433
 4639TIP3    H135408   1.574   0.619  16.759  0.4425  1.0777 -2.1022
 4639TIP3    H235409   1.541   0.479  16.710 -0.3095  0.7812 -0.8117
 4640TIP3   OH235410   5.582   1.947  15.393  0.1613  0.1769  1.0690
 4640TIP3    H135411   5.575   1.855  15.369 -0.1701  0.0360  1.6887
 4640TIP3    H235412   5.627   1.988  15.319 -2.1287  0.0492 -0.5322
 4641TIP3   OH235413   6.494   0.705  15.711 -0.6949  0.2899 -0.5384
 4641TIP3    H135414   6.459   0.617  15.700 -0.7601  0.3997 -1.2708
 4641TIP3    H235415   6.547   0.701  15.790  0.2550 -0.7011 -1.2135
 4642TIP3   OH235416   3.521   1.422   0.742  0.4349 -0.2059 -0.5440
 4642TIP3    H135417   3.435   1.384   0.722  0.1839  0.7818 -1.3800
 4642TIP3    H235418   3.516   1.445   0.835  0.1514 -1.0423 -0.3405
 4643TIP3   OH235419   5.485   6.044   5.134  0.0874 -0.2458 -0.7332
 4643TIP3    H135420   5.569   6.018   5.097  0.0839 -0.8426 -0.3354
 4643TIP3    H235421   5.431   5.965   5.131 -0.5286  0.1799 -1.1665
 4644TIP3   OH235422   3.598   0.375  11.063  0.1271 -0.2085 -0.0270
 4644TIP3    H135423   3.584   0.280  11.065  2.5628 -0.7563 -2.6982
 4644TIP3    H235424   3.568   0.403  10.977 -0.9497  1.6116  0.8622
 4645TIP3   OH235425   4.212   2.421  12.359  0.1237 -0.2084 -0.2393
 4645TIP3    H135426   4.233   2.370  12.436  1.8469 -0.5911 -0.9252
 4645TIP3    H235427   4.204   2.357  12.288 -1.4419  0.1329 -0.4152
 4646TIP3   OH235428   0.579   2.766   3.913  0.1363 -0.1166 -0.7248
 4646TIP3    H135429   0.593   2.676   3.944  0.4228  0.1284 -0.1238
 4646TIP3    H235430   0.485   2.779   3.918  0.0085 -0.6525 -1.5828
 4647TIP3   OH235431   6.657   0.745   5.296 -0.6634 -0.6626  0.3835
 4647TIP3    H135432   6.746   0.715   5.317 -1.0871  0.1543  3.9663
 4647TIP3    H235433   6.600   0.676   5.328 -1.3809  0.3791  1.4531
 4648TIP3   OH235434   2.798   6.250   0.376  0.6579  0.0269  0.1133
 4648TIP3    H135435   2.707   6.221   0.375  1.0607 -1.2810 -0.9550
 4648TIP3    H235436   2.835   6.209   0.455  0.8227 -1.1522 -0.5525
 4649TIP3   OH235437   4.699   4.544  16.853  0.7222 -0.2083  0.3583
 4649TIP3    H135438   4.608   4.513  16.854  0.7192 -0.1968  0.5513
 4649TIP3    H235439   4.751   4.465  16.870  0.6668  0.0364  1.8206
 4650TIP3   OH235440   2.205   3.769   2.205  0.1503  0.5779 -0.6078
 4650TIP3    H135441   2.269   3.708   2.243 -0.1980  0.5532 -0.0545
 4650TIP3    H235442   2.124   3.720   2.202  0.1447  0.6221 -1.2833
 4651TIP3   OH235443   2.253   0.097   3.460  0.3984  0.5257  0.6753
 4651TIP3    H135444   2.190   0.163   3.433  0.7630  0.3132 -0.7819
 4651TIP3    H235445   2.264   0.111   3.554 -0.6249  1.5789  0.6553
 4652TIP3   OH235446   6.254   3.709   0.722 -0.1878 -0.1283  0.4426
 4652TIP3    H135447   6.297   3.699   0.638  1.5159  1.6043  1.0336
 4652TIP3    H235448   6.195   3.784   0.710  0.0505  0.1154  0.7820
 4653TIP3   OH235449   3.792   2.573  11.063  0.9254 -0.7049 -0.5780
 4653TIP3    H135450   3.728   2.597  10.996  0.5591 -0.4902 -0.1560
 4653TIP3    H235451   3.838   2.654  11.082 -0.4819 -0.2355  1.0308
 4654TIP3   OH235452   5.541   3.918  11.465  0.0860  0.3176 -0.2172
 4654TIP3    H135453   5.571   3.907  11.374 -0.7734 -0.4199 -0.4278
 4654TIP3    H235454   5.601   3.982  11.502  0.4097  0.6929 -1.3322
 4655TIP3   OH235455   6.620   1.503  13.891  0.0659 -0.3828  0.4390
 4655TIP3    H135456   6.590   1.588  13.923  0.5164  0.0874 -0.3474
 4655TIP3    H235457   6.706   1.492  13.931  0.4546  0.0171 -0.2788
 4656TIP3   OH235458   5.869   2.718  12.074 -0.0976  0.0710  0.2852
 4656TIP3    H135459   5.843   2.749  11.988  0.2613  2.9476  1.0867
 4656TIP3    H235460   5.936   2.652  12.057 -0.2723  0.3361 -1.6257
 4657TIP3   OH235461   4.232   1.806  14.981 -0.1776 -0.1018 -0.1193
 4657TIP3    H135462   4.317   1.761  14.985 -0.6884 -1.0558  0.1601
 4657TIP3    H235463   4.231   1.860  15.060 -0.9310 -2.1367  1.3388
 4658TIP3   OH235464   4.607   6.381  16.617 -0.3297  0.1139 -0.0347
 4658TIP3    H135465   4.568   6.296  16.633  0.7690 -0.3278  0.3865
 4658TIP3    H235466   4.532   6.441  16.611 -1.0532 -0.6541  0.9803
 4659TIP3   OH235467   6.649   2.041   1.665 -0.3156 -0.0760  0.2681
 4659TIP3    H135468   6.662   2.019   1.758  1.1877 -1.6229 -0.2433
 4659TIP3    H235469   6.696   2.123   1.652 -0.9711  0.4224  0.9653
 4660TIP3   OH235470   1.434   6.406   0.670 -0.2264 -0.0771  0.7843
 4660TIP3    H135471   1.516   6.442   0.705 -0.0749  1.0671 -0.6585
 4660TIP3    H235472   1.365   6.458   0.712 -0.0980  0.4208  0.3985
 4661TIP3   OH235473   2.756   4.841  13.664 -0.8108  0.0715  0.3181
 4661TIP3    H135474   2.700   4.901  13.616 -0.0989  0.2969 -0.2520
 4661TIP3    H235475   2.844   4.855  13.628 -0.8654 -2.5553 -1.0963
 4662TIP3   OH235476   2.793   3.637  17.090  0.1685  0.4862  0.2646
 4662TIP3    H135477   2.709   3.624  17.134  0.3085  1.0228  0.7072
 4662TIP3    H235478   2.817   3.550  17.058 -0.0649  0.1252  1.0402
 4663TIP3   OH235479   6.008   2.718   1.907 -0.4303  0.1538  0.0683
 4663TIP3    H135480   6.037   2.691   1.820 -0.2410  1.4469 -0.2982
 4663TIP3    H235481   6.056   2.660   1.967 -0.6188 -0.8004 -0.6782
 4664TIP3   OH235482   0.327   2.805  11.485 -0.1553  0.1371  0.0284
 4664TIP3    H135483   0.396   2.739  11.500 -0.7980 -0.8123 -1.0230
 4664TIP3    H235484   0.282   2.775  11.406 -0.1778  2.1168 -0.7651
 4665TIP3   OH235485   1.234   3.539  16.568  0.0390 -0.4866 -0.4415
 4665TIP3    H135486   1.320   3.581  16.581 -0.3764  0.0465  0.7127
 4665TIP3    H235487   1.225   3.479  16.643 -0.5289 -0.6446 -0.6320
 4666TIP3   OH235488   1.538   5.549  12.760 -0.1583  0.5662 -0.2821
 4666TIP3    H135489   1.520   5.474  12.817 -1.0942  1.5075  0.7074
 4666TIP3    H235490   1.614   5.592  12.801 -0.8831  1.2910  0.3543
 4667TIP3   OH235491   0.444   5.498  13.086 -0.0905 -0.2702 -0.1980
 4667TIP3    H135492   0.501   5.566  13.122  0.3733 -1.3732  1.2214
 4667TIP3    H235493   0.403   5.540  13.009 -0.5617  1.9271  1.1548
 4668TIP3   OH235494   3.391   6.166  15.750  0.1069  0.2643  0.2488
 4668TIP3    H135495   3.461   6.220  15.787 -0.3098  0.7598  0.3193
 4668TIP3    H235496   3.433   6.082  15.731  0.5725  0.3507  0.8746
 4669TIP3   OH235497   3.389   2.375   0.453 -1.0208 -0.2760 -0.3864
 4669TIP3    H135498   3.372   2.410   0.540  2.6658 -0.6454  0.6355
 4669TIP3    H235499   3.449   2.439   0.413 -0.5005 -1.4580 -1.5690
 4670TIP3   OH235500   5.565   4.348  14.176 -0.1409 -0.2933  0.0797
 4670TIP3    H135501   5.569   4.328  14.083  0.1604  0.4858 -0.0822
 4670TIP3    H235502   5.653   4.327  14.209 -0.2793 -0.6727  0.2165
 4671TIP3   OH235503   1.385   4.042  15.190 -0.3727  0.1472  0.4524
 4671TIP3    H135504   1.399   4.108  15.258 -0.1238  1.0728 -0.4817
 4671TIP3    H235505   1.316   4.078  15.135  1.1223  0.5759 -1.2300
 4672TIP3   OH235506   3.695   2.626   5.614 -0.2093  0.1089 -0.3194
 4672TIP3    H135507   3.743   2.702   5.580 -1.7344  0.4934 -1.7823
 4672TIP3    H235508   3.692   2.566   5.539 -0.4940 -0.6529  0.3005
 4673TIP3   OH235509   4.488   6.339   2.457 -0.5195 -0.5060 -0.5320
 4673TIP3    H135510   4.494   6.254   2.501  0.2780 -0.5735 -0.7605
 4673TIP3    H235511   4.481   6.402   2.528  0.3475 -0.6478 -0.3150
 4674TIP3   OH235512   4.693   3.975   1.148  0.2242  0.0422  0.1014
 4674TIP3    H135513   4.651   4.045   1.097 -1.0847 -0.4336  0.4792
 4674TIP3    H235514   4.774   3.956   1.101  1.3120  2.7010  0.6746
 4675TIP3   OH235515   0.387   0.559   1.051  0.2765 -0.5827  0.1668
 4675TIP3    H135516   0.350   0.471   1.049 -2.9242  0.6276 -0.8482
 4675TIP3    H235517   0.382   0.589   0.960  5.0412 -0.5963 -0.3588
 4676TIP3   OH235518   3.685   5.656  12.786  0.4264 -0.1221 -0.1718
 4676TIP3    H135519   3.692   5.566  12.752 -2.3453 -0.1893 -0.7294
 4676TIP3    H235520   3.628   5.648  12.863  0.5226  1.1303  0.0473
 4677TIP3   OH235521   2.905   2.324   3.745  0.3180  0.5760 -0.3909
 4677TIP3    H135522   2.849   2.401   3.758 -0.2350  0.0331  0.5768
 4677TIP3    H235523   2.926   2.326   3.652 -1.6830  0.5719 -0.9034
 4678TIP3   OH235524   1.322   1.603  13.605  0.2750  0.2974  0.1520
 4678TIP3    H135525   1.286   1.672  13.549 -0.0008 -0.0399 -0.0902
 4678TIP3    H235526   1.267   1.527  13.587  0.4041  0.0904  0.6236
 4679TIP3   OH235527   3.395   0.863   3.056  0.3499 -0.5470  0.8998
 4679TIP3    H135528   3.474   0.834   3.101 -0.5565 -1.0126  2.2636
 4679TIP3    H235529   3.324   0.842   3.116 -1.0195 -1.8205 -1.0206
 4680TIP3   OH235530   0.556   4.954  15.298 -0.0569 -0.0084  0.1985
 4680TIP3    H135531   0.571   5.002  15.217 -0.7491 -1.5433 -0.8955
 4680TIP3    H235532   0.614   4.995  15.362  1.0958  0.7255 -1.2637
 4681TIP3   OH235533   5.378   4.657  16.171 -0.0990 -0.4490  0.3906
 4681TIP3    H135534   5.466   4.690  16.155 -0.2514 -0.4659 -0.5417
 4681TIP3    H235535   5.355   4.609  16.091 -2.3675  2.6252 -0.9785
 4682TIP3   OH235536   0.921   4.663   0.194  0.6473 -0.4316 -0.8838
 4682TIP3    H135537   0.901   4.721   0.267 -1.3797 -1.3453 -0.6269
 4682TIP3    H235538   0.994   4.609   0.225 -0.0073 -0.6181  0.3855
 4683TIP3   OH235539   2.864   0.418   0.859  0.2738  0.0469 -0.1416
 4683TIP3    H135540   2.829   0.370   0.935 -0.8416  0.8721 -0.1129
 4683TIP3    H235541   2.799   0.403   0.790  1.0595 -0.3287 -0.8140
 4684TIP3   OH235542   0.565   4.168  11.403  0.5576  0.1420  0.5674
 4684TIP3    H135543   0.566   4.264  11.400 -0.5551  0.1514 -1.7446
 4684TIP3    H235544   0.641   4.142  11.352  0.0328 -0.1746 -0.0664
 4685TIP3   OH235545   2.855   4.279  13.332 -0.2329  0.2592 -0.0150
 4685TIP3    H135546   2.931   4.312  13.379 -0.9721  0.3026  1.1664
 4685TIP3    H235547   2.801   4.357  13.315 -0.3632  0.1283 -0.2084
 4686TIP3   OH235548   3.878   0.821  15.054 -0.5880  0.0981  0.2061
 4686TIP3    H135549   3.806   0.875  15.085 -0.6601  0.3360 -0.3685
 4686TIP3    H235550   3.861   0.809  14.960 -0.5647 -0.9010  0.3152
 4687TIP3   OH235551   4.143   4.287  11.085  0.0549 -0.1752  0.1414
 4687TIP3    H135552   4.213   4.306  11.022  0.3508 -1.7210 -0.0338
 4687TIP3    H235553   4.103   4.206  11.053  0.5123 -1.2640  2.1580
 4688TIP3   OH235554   4.146   3.705  14.191 -0.8189 -0.2526  0.4591
 4688TIP3    H135555   4.205   3.632  14.172 -1.5680 -0.6205 -0.5137
 4688TIP3    H235556   4.060   3.673  14.165 -1.5392  0.1405  2.1890
 4689TIP3   OH235557   2.388   3.765   1.243 -0.3923  0.0903 -0.0171
 4689TIP3    H135558   2.392   3.846   1.293 -1.4020 -0.9614  1.8526
 4689TIP3    H235559   2.447   3.705   1.288 -0.7869 -0.6667 -0.4758
 4690TIP3   OH235560   4.494   0.868   5.995  0.1969 -0.1290  0.7159
 4690TIP3    H135561   4.441   0.933   5.948  1.0659  0.4146  0.4708
 4690TIP3    H235562   4.513   0.801   5.930  0.1495 -0.1249  0.6976
 4691TIP3   OH235563   1.472   3.182  14.805 -0.0136 -0.0977 -0.4628
 4691TIP3    H135564   1.456   3.097  14.844  1.5863 -0.4932 -0.5881
 4691TIP3    H235565   1.386   3.211  14.774 -0.5626 -1.7277 -0.5670
 4692TIP3   OH235566   6.435   0.258  12.438  0.5740 -0.0886 -0.7700
 4692TIP3    H135567   6.405   0.261  12.347  0.6237  0.8900 -0.7698
 4692TIP3    H235568   6.412   0.170  12.468 -0.8257  0.0835 -1.2693
 4693TIP3   OH235569   0.670   6.152   4.174 -0.2538 -0.2528 -0.0649
 4693TIP3    H135570   0.717   6.151   4.257 -0.6579  2.0610  0.2689
 4693TIP3    H235571   0.724   6.209   4.118 -0.8916 -0.3612 -0.7960
 4694TIP3   OH235572   0.578   0.144   5.639 -0.1550 -0.2598 -0.0498
 4694TIP3    H135573   0.577   0.154   5.734 -2.2198  0.2328 -0.0707
 4694TIP3    H235574   0.499   0.189   5.610  0.7984  0.2122 -2.0789
 4695TIP3   OH235575   5.214   4.327  12.128  0.0349 -0.3937 -0.0173
 4695TIP3    H135576   5.131   4.361  12.093  1.0563  1.4055 -0.8595
 4695TIP3    H235577   5.222   4.240  12.089 -0.2053  0.4691 -2.1447
 4696TIP3   OH235578   0.023   6.363   4.001  0.0000  0.2203 -0.8489
 4696TIP3    H135579   0.020   6.301   4.074  0.8664 -0.0562 -1.0259
 4696TIP3    H235580  -0.014   6.444   4.035 -1.6200 -0.5238 -0.7554
 4697TIP3   OH235581   2.906   3.951  11.401  0.3748  0.1462  0.0797
 4697TIP3    H135582   2.895   3.961  11.495 -1.3907  0.5722 -0.1386
 4697TIP3    H235583   2.871   4.032  11.364 -1.6717 -1.1511 -1.0518
 4698TIP3   OH235584   5.880   1.747  13.306 -0.1092 -0.6732 -0.0279
 4698TIP3    H135585   5.797   1.794  13.311 -0.1075 -0.7419  0.6211
 4698TIP3    H235586   5.942   1.812  13.274 -0.0205 -0.1037  1.2541
 4699TIP3   OH235587   6.633   1.258   6.554 -0.1861 -0.3626 -0.0533
 4699TIP3    H135588   6.582   1.265   6.635 -0.4007  0.3647 -0.2429
 4699TIP3    H235589   6.613   1.338   6.506 -0.4633 -1.0172 -1.0657
 4700TIP3   OH235590   6.650   2.318  14.977 -0.0041  0.7135 -0.0801
 4700TIP3    H135591   6.567   2.271  14.967 -0.1555  1.3452 -2.7001
 4700TIP3    H235592   6.626   2.399  15.021 -0.1572 -0.5031  2.2052
 4701TIP3   OH235593   6.814   6.008  10.849 -0.0744  0.3218 -0.1411
 4701TIP3    H135594   6.873   6.064  10.899 -1.2678  0.9349  0.6165
 4701TIP3    H235595   6.826   5.921  10.887 -0.4933  0.6575  0.7808
 4702TIP3   OH235596   0.900   3.055   2.310  0.0828  0.0787 -0.3096
 4702TIP3    H135597   0.852   3.034   2.230 -0.6108  1.0658 -0.1746
 4702TIP3    H235598   0.849   3.126   2.350  0.6136 -0.1610  0.8231
 4703TIP3   OH235599   0.286   6.344  15.718  0.1641 -0.0938 -0.0782
 4703TIP3    H135600   0.277   6.425  15.769 -0.8993  1.1581 -2.0838
 4703TIP3    H235601   0.362   6.300  15.756 -0.0921  1.1154  2.0242
 4704TIP3   OH235602   3.758   0.020   0.421  0.0237 -0.1604 -0.2845
 4704TIP3    H135603   3.713   0.090   0.376  1.0567 -0.2750 -1.5585
 4704TIP3    H235604   3.690  -0.025   0.471 -0.4607  2.6393  1.8705
 4705TIP3   OH235605   5.089   4.042  13.991  0.0456  0.3012  0.0022
 4705TIP3    H135606   5.051   3.963  13.952 -0.1759  0.5490 -0.2905
 4705TIP3    H235607   5.026   4.111  13.972  1.1055  0.9441 -1.4659
 4706TIP3   OH235608   3.244   5.274   4.152 -0.0124  0.3221 -0.5890
 4706TIP3    H135609   3.326   5.305   4.190 -0.3738  1.1390 -0.4757
 4706TIP3    H235610   3.237   5.320   4.069 -0.4874  0.4459 -0.4810
 4707TIP3   OH235611   6.263   1.561   1.042  0.6477  0.2156  0.0662
 4707TIP3    H135612   6.300   1.643   1.076 -1.3906  1.1227  0.2508
 4707TIP3    H235613   6.245   1.509   1.120 -0.2356  0.5956  0.1279
 4708TIP3   OH235614   5.343   2.431  15.215 -0.1993 -0.0863  0.3139
 4708TIP3    H135615   5.295   2.362  15.170  0.1249 -0.2967  0.2851
 4708TIP3    H235616   5.395   2.473  15.146 -2.5724  2.1251 -0.2623
 4709TIP3   OH235617   5.723   5.887  11.003 -0.7074  0.9948 -0.3179
 4709TIP3    H135618   5.773   5.807  10.993  1.3045  1.7956  2.1411
 4709TIP3    H235619   5.633   5.858  11.018 -0.0295 -0.8112  0.4976
 4710TIP3   OH235620   3.207   5.409   3.905  0.7543 -0.5477  0.4142
 4710TIP3    H135621   3.122   5.365   3.914  1.1925 -1.5409 -0.1513
 4710TIP3    H235622   3.185   5.501   3.895 -0.4104 -1.0124 -1.9178
 4711TIP3   OH235623   3.314   1.021   4.954 -0.2192 -0.2157  0.0279
 4711TIP3    H135624   3.403   1.055   4.945  0.7065 -1.6054  2.6744
 4711TIP3    H235625   3.327   0.931   4.985 -2.5683 -1.3265 -1.9052
 4712TIP3   OH235626   4.317   6.565   4.274  0.1865 -0.5849  0.2797
 4712TIP3    H135627   4.315   6.631   4.205  1.9255 -1.7805 -0.9957
 4712TIP3    H235628   4.347   6.613   4.351 -0.5719  0.5207 -0.0821
 4713TIP3   OH235629   0.392   4.147   0.045 -0.2563  0.5340  0.1643
 4713TIP3    H135630   0.373   4.096   0.124  0.9392  0.5304  0.4676
 4713TIP3    H235631   0.326   4.119  -0.018 -1.5822  0.9414  1.3185
 4714TIP3   OH235632   1.718   5.545   2.126 -0.2542  0.5011 -0.3797
 4714TIP3    H135633   1.772   5.469   2.108 -1.3755  0.0178 -1.8945
 4714TIP3    H235634   1.651   5.514   2.187 -0.0571  0.5697 -0.1264
 4715TIP3   OH235635   2.200   3.959  14.667 -0.1127  0.3953  0.0651
 4715TIP3    H135636   2.151   3.885  14.631 -0.0869  1.3463 -2.0842
 4715TIP3    H235637   2.290   3.945  14.636  0.4832  0.0058  1.8357
 4716TIP3   OH235638   4.314   0.596   5.969  0.7062 -0.0311 -0.0631
 4716TIP3    H135639   4.278   0.657   6.033  1.1255 -0.8298  0.9661
 4716TIP3    H235640   4.238   0.544   5.941  0.3177  1.0199 -1.0611
 4717TIP3   OH235641   4.445   1.925  12.921  0.4388  0.5592 -0.3836
 4717TIP3    H135642   4.493   1.863  12.865 -0.4542  0.1455 -0.7083
 4717TIP3    H235643   4.500   1.933  12.999  0.5698 -0.6898 -0.3148
 4718TIP3   OH235644   5.141   2.465  12.825 -0.3277  0.0612  0.3497
 4718TIP3    H135645   5.141   2.379  12.783  0.1535  1.2199 -2.1934
 4718TIP3    H235646   5.174   2.448  12.913 -0.3802 -2.3633 -0.0212
 4719TIP3   OH235647   3.464   4.476  11.186 -0.3479  0.3838 -1.0697
 4719TIP3    H135648   3.507   4.524  11.257 -0.0377 -0.6821 -0.5180
 4719TIP3    H235649   3.529   4.472  11.116  0.3269 -0.8492 -0.3997
 4720TIP3   OH235650   3.959   6.322  16.074  0.2024  0.3940 -0.0788
 4720TIP3    H135651   3.923   6.387  16.013  0.9294 -0.9280 -2.0136
 4720TIP3    H235652   3.932   6.238  16.038 -0.5952 -0.4507  2.3022
 4721TIP3   OH235653   1.216   2.635   3.094  0.0245 -0.3399  0.2028
 4721TIP3    H135654   1.260   2.632   3.179  3.7137  2.1683 -1.3877
 4721TIP3    H235655   1.254   2.562   3.045  0.6201  0.3743 -0.4127
 4722TIP3   OH235656   2.427   5.949  14.534  0.2849 -0.2375 -0.3039
 4722TIP3    H135657   2.358   5.958  14.469  0.2689  1.0769 -0.1315
 4722TIP3    H235658   2.490   6.018  14.512  0.5162 -0.0869  0.7623
 4723TIP3   OH235659   2.960   4.153   0.162  0.7098  0.4679 -0.1069
 4723TIP3    H135660   2.906   4.232   0.160 -0.7905 -0.3719  2.2793
 4723TIP3    H235661   3.025   4.166   0.093  0.1535  3.4988 -0.1931
 4724TIP3   OH235662   2.418   4.765   0.915 -0.2202  0.3020  0.1936
 4724TIP3    H135663   2.491   4.827   0.915  0.4858 -0.5222 -0.1395
 4724TIP3    H235664   2.416   4.729   1.003 -0.0418  0.1081  0.1179
 4725TIP3   OH235665   1.226   2.415   1.352 -0.0444 -0.1207 -0.0903
 4725TIP3    H135666   1.285   2.359   1.301 -0.0894  1.3678 -1.9076
 4725TIP3    H235667   1.278   2.494   1.369 -1.3606  1.1264 -1.5300
 4726TIP3   OH235668   6.387   0.143   1.138  0.2560 -0.0480  0.4513
 4726TIP3    H135669   6.397   0.229   1.179  0.0245 -1.4206  3.6099
 4726TIP3    H235670   6.470   0.129   1.092  0.8785  1.2091  1.1317
 4727TIP3   OH235671   4.130   0.743  13.581  0.2446  0.4371  0.1569
 4727TIP3    H135672   4.145   0.699  13.664 -1.1267  0.7708  0.6179
 4727TIP3    H235673   4.073   0.684  13.532 -1.7505  1.6935  0.8496
 4728TIP3   OH235674   6.180   0.048   2.979  0.0450  0.3966  0.0344
 4728TIP3    H135675   6.128   0.011   2.908 -1.7241  1.1311  0.8754
 4728TIP3    H235676   6.258  -0.008   2.983  0.4984  0.6683 -2.7883
 4729TIP3   OH235677   0.451   1.404   3.433 -0.3352 -0.1755 -0.2856
 4729TIP3    H135678   0.375   1.356   3.466 -0.5969  2.0102  2.6000
 4729TIP3    H235679   0.414   1.466   3.370 -1.1640  1.4341  1.6929
 4730TIP3   OH235680   2.820   3.507   2.019 -0.1957  0.0484  0.4322
 4730TIP3    H135681   2.729   3.537   2.022  0.3045  1.5388  2.9378
 4730TIP3    H235682   2.813   3.412   2.007 -1.8735  0.4785 -5.1496
 4731TIP3   OH235683   2.482   0.534   5.193 -0.0764  0.0734 -0.3532
 4731TIP3    H135684   2.512   0.475   5.124  0.3262 -0.5577  0.3410
 4731TIP3    H235685   2.476   0.479   5.271  3.0153  1.4306  1.0342
 4732TIP3   OH235686   3.894   1.422   2.868 -0.0573  0.2548  0.3572
 4732TIP3    H135687   3.868   1.500   2.917 -3.0883  0.3992 -1.2616
 4732TIP3    H235688   3.973   1.449   2.822 -1.4622  2.7495 -0.8168
 4733TIP3   OH235689   1.319   5.670   1.626 -0.3496 -0.4984 -0.1440
 4733TIP3    H135690   1.252   5.641   1.563 -2.5482  0.2140  1.7373
 4733TIP3    H235691   1.351   5.589   1.665 -0.7227 -0.8064 -0.4654
 4734TIP3   OH235692   0.912   6.026   4.354  0.6503 -0.2076 -0.0897
 4734TIP3    H135693   0.834   6.011   4.408 -0.1623  0.8003 -0.9273
 4734TIP3    H235694   0.966   5.948   4.368 -0.1092 -0.5487  1.1725
 4735TIP3   OH235695   0.478   1.250   1.696  0.9503  0.0526  0.2581
 4735TIP3    H135696   0.401   1.220   1.744  0.9706  0.8020  0.7763
 4735TIP3    H235697   0.550   1.196   1.727  0.9319  0.4238  0.9600
 4736TIP3   OH235698   5.622   4.766  16.141 -0.2351  0.5885  0.3609
 4736TIP3    H135699   5.684   4.746  16.211  0.4584 -1.9265 -0.8820
 4736TIP3    H235700   5.676   4.773  16.062 -1.1012  2.6194 -0.1249
 4737TIP3   OH235701   3.163   1.037  16.068  0.1049 -0.1396 -0.0682
 4737TIP3    H135702   3.130   1.126  16.080  0.4482 -0.2165  1.6420
 4737TIP3    H235703   3.083   0.983  16.063 -0.0912  0.0666  0.6895
 4738TIP3   OH235704   0.658   5.613  14.990  0.4592  0.0584  0.0725
 4738TIP3    H135705   0.696   5.528  14.967  1.0031 -0.2334  1.8725
 4738TIP3    H235706   0.733   5.667  15.015 -0.0266  0.4792  0.6620
 4739TIP3   OH235707   6.359   0.758   1.692  0.1703 -0.0208 -0.1850
 4739TIP3    H135708   6.404   0.812   1.756 -2.5286  0.5828  1.3601
 4739TIP3    H235709   6.293   0.815   1.654 -1.8837 -1.7775  0.5202
 4740TIP3   OH235710   4.299   6.092  13.749 -0.1359  0.5073  0.3410
 4740TIP3    H135711   4.345   6.164  13.793 -1.0439  1.4200 -0.1607
 4740TIP3    H235712   4.259   6.133  13.672 -1.5894 -0.2977  0.6326
 4741TIP3   OH235713   5.246   3.973  11.505  0.6986 -0.2557 -0.0506
 4741TIP3    H135714   5.337   3.981  11.475  0.1933  1.3552 -1.2876
 4741TIP3    H235715   5.199   4.042  11.459 -0.8661 -0.0172  1.7547
 4742TIP3   OH235716   4.662   5.463  17.228  0.2146 -0.7119  0.1686
 4742TIP3    H135717   4.752   5.478  17.200  0.4665 -0.1850  1.2313
 4742TIP3    H235718   4.664   5.377  17.271  0.0095 -1.1194 -0.6161
 4743TIP3   OH235719   2.401   0.312  12.261  0.2218 -0.4413 -0.2540
 4743TIP3    H135720   2.413   0.370  12.185 -0.2430 -0.3516 -0.2600
 4743TIP3    H235721   2.314   0.274  12.248  0.4517 -1.0145 -0.1610
 4744TIP3   OH235722   0.057   6.111  13.752  0.0683  0.4987 -0.3143
 4744TIP3    H135723   0.127   6.090  13.814 -0.3041 -1.8639 -0.6082
 4744TIP3    H235724   0.083   6.067  13.671  0.2313  2.9961 -1.7208
 4745TIP3   OH235725   1.832   4.766  13.170 -0.4875  0.0987 -0.1355
 4745TIP3    H135726   1.859   4.746  13.080  0.0133 -1.0925  0.2603
 4745TIP3    H235727   1.829   4.862  13.173  0.9499  0.1968 -1.0047
 4746TIP3   OH235728   0.884   6.022  13.784  0.0820  0.5672 -0.0570
 4746TIP3    H135729   0.869   6.095  13.845  1.6297  1.0830 -0.2578
 4746TIP3    H235730   0.977   6.003  13.792 -0.1851 -0.9988 -0.4749
 4747TIP3   OH235731   3.093   2.578   3.930  0.0306  0.2153  0.2971
 4747TIP3    H135732   3.115   2.555   3.840 -0.7138  1.4348 -0.2264
 4747TIP3    H235733   3.144   2.657   3.948 -1.4451  1.2457  0.1517
 4748TIP3   OH235734   6.010   4.289   3.331  0.5982 -0.3858  0.6323
 4748TIP3    H135735   6.027   4.244   3.414  0.6687 -0.4411  0.5883
 4748TIP3    H235736   6.097   4.317   3.302  1.0506 -3.0528 -0.9757
 4749TIP3   OH235737   6.476   2.758   4.583  0.4168  0.0647  0.6116
 4749TIP3    H135738   6.441   2.799   4.504  3.0720 -0.8385 -1.1755
 4749TIP3    H235739   6.407   2.698   4.611 -0.4672  0.1139 -1.2696
 4750TIP3   OH235740   4.349   0.048   5.977 -0.2228 -0.4461 -0.5565
 4750TIP3    H135741   4.343   0.022   6.069 -0.0097  0.6381 -0.2180
 4750TIP3    H235742   4.441   0.068   5.964 -0.1846 -0.9956 -1.1207
 4751TIP3   OH235743   5.096   1.946   1.138  0.2808 -0.3244 -0.3246
 4751TIP3    H135744   5.040   2.022   1.155  0.2783 -0.3652 -0.1538
 4751TIP3    H235745   5.181   1.971   1.174  0.2984 -0.3769 -0.3301
 4752TIP3   OH235746   5.659   0.394  13.661 -0.1569 -0.2901  0.3190
 4752TIP3    H135747   5.747   0.411  13.698 -0.3316  0.1695  0.5381
 4752TIP3    H235748   5.602   0.455  13.708 -0.2906  0.7573 -1.1601
 4753TIP3   OH235749   1.480   6.655  14.770  0.1806 -0.5066 -0.1533
 4753TIP3    H135750   1.530   6.614  14.840 -1.0827 -1.7133  0.0831
 4753TIP3    H235751   1.421   6.716  14.814  0.3741 -0.2242 -0.2871
 4754TIP3   OH235752   5.861   5.707  14.878 -0.7371 -0.2904  0.5059
 4754TIP3    H135753   5.915   5.742  14.949 -0.6392  0.0192  0.2846
 4754TIP3    H235754   5.793   5.773  14.865 -0.8662 -0.4361  0.4375
 4755TIP3   OH235755   0.152   2.865   5.633  0.3772 -0.3252 -0.3152
 4755TIP3    H135756   0.066   2.849   5.594  0.6337 -0.2336 -0.9299
 4755TIP3    H235757   0.134   2.880   5.725 -0.2117 -0.8826 -0.3310
 4756TIP3   OH235758   5.283   3.121   0.801  0.3091  0.1837 -0.0822
 4756TIP3    H135759   5.240   3.098   0.883  0.9000  1.3022  0.5609
 4756TIP3    H235760   5.345   3.051   0.785  1.6088  0.9114  1.4920
 4757TIP3   OH235761   1.101   5.689  13.643  0.2676 -0.2220  0.6447
 4757TIP3    H135762   1.187   5.649  13.649  0.0025 -0.5837  3.7993
 4757TIP3    H235763   1.109   5.772  13.690 -0.8069  0.3403 -0.1080
 4758TIP3   OH235764   1.992   5.796  10.343 -0.0341 -0.6514 -0.2714
 4758TIP3    H135765   1.948   5.854  10.281 -2.1626 -2.2311 -0.3672
 4758TIP3    H235766   1.923   5.772  10.406  1.9177  0.6030  2.5673
 4759TIP3   OH235767   3.177   3.044   1.976  0.7249  0.1518  0.3387
 4759TIP3    H135768   3.244   3.037   1.907  1.0404  0.0961  0.6452
 4759TIP3    H235769   3.136   3.129   1.961  0.3027 -0.1643 -0.3519
 4760TIP3   OH235770   0.712   6.363  15.448  0.2512  0.2764  0.5691
 4760TIP3    H135771   0.640   6.300  15.454  0.8786 -0.5509 -0.2534
 4760TIP3    H235772   0.768   6.342  15.523 -0.0524  0.5122  0.8615
 4761TIP3   OH235773   1.255   6.077  12.440  0.7664 -0.3302  0.7423
 4761TIP3    H135774   1.277   6.129  12.517  3.8941 -0.7072  0.2297
 4761TIP3    H235775   1.291   5.991  12.458  1.3532 -0.4956 -1.0026
 4762TIP3   OH235776   5.462   2.063   4.453  0.2463  0.6205  0.1528
 4762TIP3    H135777   5.423   1.983   4.486 -1.1442  1.4377  0.5785
 4762TIP3    H235778   5.490   2.042   4.364  1.2535 -0.7340  0.7704
 4763TIP3   OH235779   5.994   6.103  12.780 -0.2321  0.4960  0.5346
 4763TIP3    H135780   5.996   6.007  12.783  0.4973  0.5253  2.0330
 4763TIP3    H235781   5.902   6.125  12.769 -0.2951 -0.3717 -0.9544
 4764TIP3   OH235782   0.749   5.999  16.420  0.8694 -0.4145 -0.6648
 4764TIP3    H135783   0.751   6.086  16.379 -0.0021  0.2570  0.6355
 4764TIP3    H235784   0.666   5.962  16.391 -0.6876  0.8239  1.8276
 4765TIP3   OH235785   1.892   5.609   4.490 -0.1217  0.3732  0.1992
 4765TIP3    H135786   1.940   5.691   4.480  0.1188  0.1208 -0.7989
 4765TIP3    H235787   1.802   5.630   4.463 -0.1353  0.3919  0.2599
 4766TIP3   OH235788   1.568   0.623  12.895 -0.3664  0.0269  0.2258
 4766TIP3    H135789   1.491   0.600  12.947  0.3645 -0.3705  1.1763
 4766TIP3    H235790   1.630   0.658  12.959  0.1782  0.5038 -0.5490
 4767TIP3   OH235791   0.012   0.915   0.341  0.4695  0.6427 -0.1411
 4767TIP3    H135792  -0.019   0.899   0.252 -1.0263 -1.5186  0.6873
 4767TIP3    H235793  -0.029   0.998   0.366 -2.5945 -0.7538 -0.0823
 4768TIP3   OH235794   3.576   3.849   0.090 -0.2310  0.2438  0.2647
 4768TIP3    H135795   3.516   3.922   0.098 -0.4655  0.0483  0.3122
 4768TIP3    H235796   3.661   3.884   0.118  0.3712  1.3813 -2.6283
 4769TIP3   OH235797   3.879   1.840   0.798 -0.6173 -0.0328 -0.0977
 4769TIP3    H135798   3.964   1.880   0.813 -1.1863  0.9902  0.5226
 4769TIP3    H235799   3.887   1.751   0.833  0.0983  0.1475  0.2029
 4770TIP3   OH235800   0.279   4.514  16.657  0.6666 -0.1051  0.3387
 4770TIP3    H135801   0.312   4.583  16.714  0.7655  1.1964 -1.2139
 4770TIP3    H235802   0.193   4.544  16.628 -0.1174 -1.5218  1.0773
 4771TIP3   OH235803   1.148   5.733  11.574 -0.0530 -0.1462 -0.1329
 4771TIP3    H135804   1.145   5.828  11.589  1.3695 -0.1704  0.4519
 4771TIP3    H235805   1.223   5.703  11.625 -1.2368 -1.8064  0.7389
 4772TIP3   OH235806   2.897   1.575   5.206 -0.1617 -0.0533 -0.4919
 4772TIP3    H135807   2.944   1.568   5.289  0.1340 -2.0071 -0.7828
 4772TIP3    H235808   2.966   1.570   5.139 -0.4185  1.2798 -0.8909
 4773TIP3   OH235809   6.264   4.520  15.613 -0.6350  0.2927 -0.3907
 4773TIP3    H135810   6.205   4.456  15.573 -0.3253  0.3543 -0.9542
 4773TIP3    H235811   6.349   4.477  15.615 -0.9879 -0.4393  1.9344
 4774TIP3   OH235812   0.250   6.666  16.440 -0.1171 -0.3423 -0.8974
 4774TIP3    H135813   0.325   6.658  16.499  0.4819  1.2063 -1.3788
 4774TIP3    H235814   0.199   6.587  16.454  0.2762 -0.2696  1.3222
 4775TIP3   OH235815   0.046   0.708   4.861 -0.2092 -0.1542 -0.3346
 4775TIP3    H135816  -0.043   0.674   4.874 -1.0799  1.9134 -0.4143
 4775TIP3    H235817   0.077   0.728   4.950 -0.8028  1.3457 -0.4382
 4776TIP3   OH235818   3.205   2.739  13.523 -0.1000 -0.2367  0.1232
 4776TIP3    H135819   3.129   2.779  13.481  0.0571 -0.4565 -0.3735
 4776TIP3    H235820   3.271   2.809  13.524 -0.0462 -0.2838 -0.1489
 4777TIP3   OH235821   5.913   0.699  12.205  0.6063 -0.1887  0.1179
 4777TIP3    H135822   5.945   0.715  12.116 -1.6121  4.0145 -0.1764
 4777TIP3    H235823   5.818   0.693  12.196  0.3709 -0.1928  2.1765
 4778TIP3   OH235824   1.086   4.523   1.061  0.4299  0.2577 -0.3630
 4778TIP3    H135825   1.106   4.435   1.030  2.0072  0.3275  0.3643
 4778TIP3    H235826   1.015   4.553   1.004  0.3291 -1.2168 -1.0563
 4779TIP3   OH235827   4.393   4.257  11.742  0.1677  0.4743  0.5075
 4779TIP3    H135828   4.337   4.205  11.685  1.6728 -0.1950 -0.4141
 4779TIP3    H235829   4.438   4.318  11.683  1.2965  0.1824  1.0425
 4780TIP3   OH235830   6.023   2.292  16.608  0.1665  0.4694  0.2009
 4780TIP3    H135831   6.017   2.219  16.670  1.4374 -1.0915 -1.4039
 4780TIP3    H235832   5.936   2.298  16.568 -1.1119  2.3791  2.9288
 4781TIP3   OH235833   0.652   1.141  15.773 -0.3993  0.1029 -0.2116
 4781TIP3    H135834   0.698   1.199  15.835  0.4794 -0.1691 -0.5954
 4781TIP3    H235835   0.559   1.154  15.793 -0.2807  2.2869 -0.8571
 4782TIP3   OH235836   4.653   3.665  15.647  0.2812  0.1784 -0.3750
 4782TIP3    H135837   4.649   3.760  15.662 -1.4952 -0.2035  2.2161
 4782TIP3    H235838   4.743   3.642  15.670  0.5645  1.1656 -0.4356
 4783TIP3   OH235839   1.561   3.104  13.419 -0.4003  0.1940 -0.1908
 4783TIP3    H135840   1.604   3.129  13.500  3.4463 -0.7561 -1.6983
 4783TIP3    H235841   1.589   3.013  13.404 -2.2775 -0.1792 -1.7965
 4784TIP3   OH235842   3.965   6.789  14.091  0.1281  0.2164  0.0204
 4784TIP3    H135843   4.035   6.788  14.025 -0.3941  0.8646 -0.5487
 4784TIP3    H235844   3.886   6.813  14.043 -0.2231  0.9296  0.9232
 4785TIP3   OH235845   2.204   2.201  10.783  0.4879  0.1698  0.0289
 4785TIP3    H135846   2.198   2.185  10.689  1.3642 -0.8323  0.1162
 4785TIP3    H235847   2.120   2.239  10.807  0.7340  1.6800 -1.3746
 4786TIP3   OH235848   3.508   4.188  15.052  0.1210 -0.4381 -0.3091
 4786TIP3    H135849   3.553   4.227  14.977  1.1632 -0.0176  0.5054
 4786TIP3    H235850   3.520   4.251  15.123 -0.7876 -0.8571  0.2359
 4787TIP3   OH235851   0.464   6.302  16.764 -0.2009  0.1901  0.6108
 4787TIP3    H135852   0.480   6.208  16.762  0.7260  0.3159  1.2776
 4787TIP3    H235853   0.523   6.335  16.832 -0.2607  1.2950  0.1545
 4788TIP3   OH235854   1.500   1.651  14.790 -0.2635 -0.2881  0.4427
 4788TIP3    H135855   1.409   1.620  14.790 -0.4333  0.1790  1.3123
 4788TIP3    H235856   1.549   1.578  14.752 -1.0006 -0.5307 -0.0787
 4789TIP3   OH235857   3.909   6.410  11.330  0.8038 -0.0152  0.5085
 4789TIP3    H135858   3.948   6.485  11.375 -0.4720  0.3433  1.0722
 4789TIP3    H235859   3.907   6.436  11.238  1.5390  0.1078  0.5222
 4790TIP3   OH235860   2.806   0.605  11.589  0.1706 -0.2769 -0.1214
 4790TIP3    H135861   2.718   0.572  11.606 -0.2468  0.5366 -0.6388
 4790TIP3    H235862   2.802   0.698  11.612  0.7274 -0.0938 -0.7166
 4791TIP3   OH235863   4.980   1.242   0.681 -0.4631 -0.6379 -0.1151
 4791TIP3    H135864   4.945   1.245   0.592  1.8372  0.4014 -1.0759
 4791TIP3    H235865   5.006   1.332   0.700 -0.4731 -0.9291  1.4375
 4792TIP3   OH235866   3.319   3.613   4.243  0.4308  0.0314  0.0911
 4792TIP3    H135867   3.330   3.654   4.158  0.2973 -0.2660 -0.0690
 4792TIP3    H235868   3.232   3.574   4.241  0.8738 -0.9701 -0.0611
 4793TIP3   OH235869   5.750   5.049  12.667  0.0175  0.2102 -0.5593
 4793TIP3    H135870   5.717   4.968  12.705  0.8414  0.6673  1.2254
 4793TIP3    H235871   5.764   5.028  12.574 -0.5586 -1.4304 -0.3002
 4794TIP3   OH235872   1.069   6.786   0.585 -0.2917 -0.1102  0.3801
 4794TIP3    H135873   1.095   6.860   0.532  0.7140  0.5730  1.7678
 4794TIP3    H235874   0.982   6.809   0.618  0.5625  1.1462  1.9133
 4795TIP3   OH235875   1.790   1.032   3.774 -0.5065  0.5930 -0.0075
 4795TIP3    H135876   1.809   0.939   3.783  0.2178  0.5425 -1.7296
 4795TIP3    H235877   1.814   1.053   3.684 -1.9907  2.1434 -0.0900
 4796TIP3   OH235878   3.479   3.537  15.194 -0.4204  0.0868 -0.3630
 4796TIP3    H135879   3.418   3.524  15.267  0.5820  0.3033  0.5427
 4796TIP3    H235880   3.480   3.452  15.149 -2.8064  0.5925 -1.5894
 4797TIP3   OH235881   0.742   3.292   1.002 -0.3783  0.0449 -0.1599
 4797TIP3    H135882   0.702   3.350   1.067  0.1510 -0.7081  0.8812
 4797TIP3    H235883   0.672   3.272   0.940 -1.2836 -0.2529  0.9191
 4798TIP3   OH235884   2.345   4.152  12.464  0.7000  0.0099 -0.2088
 4798TIP3    H135885   2.380   4.069  12.432 -0.3476 -0.0849 -1.1891
 4798TIP3    H235886   2.404   4.218  12.430  1.1561 -0.2923 -0.0050
 4799TIP3   OH235887   4.461   0.840  16.570  0.7424 -0.8182 -0.0627
 4799TIP3    H135888   4.469   0.901  16.643 -0.1926  0.2677 -0.8387
 4799TIP3    H235889   4.439   0.895  16.494  1.4059 -1.9481 -1.1104
 4800TIP3   OH235890   0.175   0.298  12.600 -0.8123 -1.0820 -0.2994
 4800TIP3    H135891   0.235   0.233  12.637 -1.0300 -1.7960 -1.1705
 4800TIP3    H235892   0.093   0.250  12.587 -0.5979 -1.0308 -2.1817
 4801TIP3   OH235893   1.298   1.498   3.585  0.0775  0.1340  0.5918
 4801TIP3    H135894   1.242   1.439   3.635  0.1937 -1.1519 -0.7158
 4801TIP3    H235895   1.321   1.448   3.506  1.3666  1.4024  0.1179
 4802TIP3   OH235896   2.609   5.479   6.028 -0.0900 -0.3132 -0.0460
 4802TIP3    H135897   2.688   5.455   6.077 -0.2970  0.2940  0.6004
 4802TIP3    H235898   2.546   5.410   6.048  0.0241 -0.3879  0.0605
 4803TIP3   OH235899   4.516   1.654   6.166  0.1816  0.0881 -0.2404
 4803TIP3    H135900   4.490   1.731   6.217  1.4335  0.4150 -0.0625
 4803TIP3    H235901   4.578   1.607   6.223  0.4361 -0.3421 -0.8606
 4804TIP3   OH235902   2.704   2.083   0.832  0.4920  0.8903 -0.7026
 4804TIP3    H135903   2.716   2.054   0.923 -0.3801  0.4942 -0.7132
 4804TIP3    H235904   2.721   2.005   0.780  0.6974  1.0451 -0.8693
 4805TIP3   OH235905   2.148   2.980  16.970 -0.2286 -0.4503 -0.4259
 4805TIP3    H135906   2.124   2.890  16.949 -1.6250  0.0753 -1.2849
 4805TIP3    H235907   2.087   3.006  17.039 -0.1226 -0.0305 -0.4843
 4806TIP3   OH235908   1.615   2.895   2.707  0.1612 -0.3837 -0.2431
 4806TIP3    H135909   1.582   2.908   2.796  1.8769  0.9500  0.2627
 4806TIP3    H235910   1.700   2.940   2.706  0.1990 -0.3743 -2.5562
 4807TIP3   OH235911   4.362   1.396   5.429 -0.1404  0.1595  0.1738
 4807TIP3    H135912   4.406   1.325   5.475 -0.7426  0.8013  1.8388
 4807TIP3    H235913   4.271   1.369   5.424 -0.2119  0.4265  0.0168
 4808TIP3   OH235914   3.389   1.068  15.213 -0.2362 -0.3667 -0.0950
 4808TIP3    H135915   3.314   1.053  15.271  0.6973 -2.2336  0.7499
 4808TIP3    H235916   3.352   1.106  15.134 -1.6324  1.8984  1.5232
 4809TIP3   OH235917   0.682   4.074  16.456  0.0913  0.8348 -0.2209
 4809TIP3    H135918   0.613   4.009  16.445 -0.1974  1.3696 -2.0037
 4809TIP3    H235919   0.641   4.146  16.503  0.1382  0.1598  0.8834
 4810TIP3   OH235920   5.233   4.125  14.798 -0.2433 -0.1276 -0.8717
 4810TIP3    H135921   5.191   4.093  14.719 -0.8779  0.1446 -0.6519
 4810TIP3    H235922   5.181   4.088  14.870  0.3953 -0.4693 -0.5823
 4811TIP3   OH235923   1.971   3.634   2.154  0.3455 -0.0302 -0.7027
 4811TIP3    H135924   1.944   3.542   2.153 -1.3215  0.4205 -0.3951
 4811TIP3    H235925   1.930   3.672   2.076 -1.2822  1.0304  0.6089
 4812TIP3   OH235926   5.241   5.648  11.360 -0.0547  0.4790 -0.0702
 4812TIP3    H135927   5.231   5.738  11.327  1.0129  0.3557 -0.8107
 4812TIP3    H235928   5.259   5.596  11.281 -1.0987 -0.4746  0.2953
 4813TIP3   OH235929   6.804   4.476   6.475  0.1220  0.1144  0.4787
 4813TIP3    H135930   6.859   4.507   6.547  0.0558 -0.5611  0.8273
 4813TIP3    H235931   6.844   4.393   6.449  1.0358  1.0419 -1.2579
 4814TIP3   OH235932   0.502   5.136  11.587  0.0495 -0.4093  0.1302
 4814TIP3    H135933   0.424   5.178  11.623  0.1975 -0.5535  0.6264
 4814TIP3    H235934   0.472   5.093  11.507 -0.7383 -1.7468  1.0904
 4815TIP3   OH235935   6.759   2.439  11.061 -1.1883  0.4559 -0.3892
 4815TIP3    H135936   6.734   2.519  11.106 -0.6345 -0.2974  1.3265
 4815TIP3    H235937   6.677   2.390  11.051 -1.1178 -0.1030  1.3608
 4816TIP3   OH235938   2.960   5.462   5.091  0.0913 -0.1728  0.3151
 4816TIP3    H135939   2.947   5.456   4.996 -2.4454 -0.4823  0.6110
 4816TIP3    H235940   2.926   5.379   5.124  1.9838 -0.5346  1.4423
 4817TIP3   OH235941   0.541   3.218   6.342  0.1356  0.2694  0.2720
 4817TIP3    H135942   0.453   3.183   6.327  1.1146 -1.6029 -1.6824
 4817TIP3    H235943   0.526   3.304   6.380 -2.6362  1.4047 -2.8529
 4818TIP3   OH235944   1.062   1.897   1.797  0.3402 -0.4052 -0.1174
 4818TIP3    H135945   1.046   1.851   1.879 -0.8332  1.5808  0.8223
 4818TIP3    H235946   1.072   1.989   1.822 -0.2732  0.2799 -2.2099
 4819TIP3   OH235947   0.564   3.508   5.897 -0.0733 -0.0033  0.0828
 4819TIP3    H135948   0.593   3.552   5.976 -0.1092  0.4973 -0.1817
 4819TIP3    H235949   0.571   3.414   5.918  1.2051  0.1006  0.2160
 4820TIP3   OH235950   5.259   1.683  11.795  0.0194  0.0015  1.0344
 4820TIP3    H135951   5.190   1.749  11.787  0.1941  0.0203 -0.6860
 4820TIP3    H235952   5.336   1.726  11.757 -0.2650 -1.7251 -1.7724
 4821TIP3   OH235953   5.257   6.187   6.247 -0.2752 -0.5395 -0.4546
 4821TIP3    H135954   5.183   6.218   6.299 -0.6041 -2.1757  0.1185
 4821TIP3    H235955   5.334   6.217   6.296 -0.5697 -0.3705 -0.0909
 4822TIP3   OH235956   2.532   3.318  11.673 -0.1739  0.5173  0.0507
 4822TIP3    H135957   2.461   3.321  11.738 -0.5765 -0.7366 -0.3077
 4822TIP3    H235958   2.592   3.251  11.706  0.4548  1.0130 -0.0601
 4823TIP3   OH235959   5.018   1.556   0.443  0.4064 -0.1252 -0.0815
 4823TIP3    H135960   5.099   1.575   0.397 -0.4711  1.5851 -1.0074
 4823TIP3    H235961   4.961   1.517   0.377  0.0711 -0.2073  0.2503
 4824TIP3   OH235962   4.284   2.157   5.254  0.2902  0.0953  0.4509
 4824TIP3    H135963   4.376   2.182   5.258  1.2490 -2.7959 -0.7478
 4824TIP3    H235964   4.255   2.189   5.168  1.0956 -1.4882 -0.4604
 4825TIP3   OH235965   2.650   2.834   0.149 -0.5409 -0.5819  0.2153
 4825TIP3    H135966   2.569   2.785   0.136 -0.3123 -0.8245 -0.3381
 4825TIP3    H235967   2.710   2.799   0.082  0.5343 -1.5184  1.6127
 4826TIP3   OH235968   5.213   5.989  15.569 -0.1912 -0.1912  0.2392
 4826TIP3    H135969   5.256   5.967  15.486 -2.0313  0.8674 -1.0821
 4826TIP3    H235970   5.191   6.082  15.561 -0.7178 -0.1470  1.7863
 4827TIP3   OH235971   5.971   5.746   2.083 -0.0638  0.0855  0.6941
 4827TIP3    H135972   6.014   5.679   2.136 -0.5124  0.7098  1.8855
 4827TIP3    H235973   6.024   5.751   2.003  0.1906 -1.4070  0.7439
 4828TIP3   OH235974   0.328   0.651  12.200 -0.0318 -0.2469  0.2878
 4828TIP3    H135975   0.306   0.614  12.115  1.2259  0.6857 -0.4889
 4828TIP3    H235976   0.248   0.697  12.227 -0.0535  0.5542 -1.0236
 4829TIP3   OH235977   6.119   3.467   3.914  0.1903 -0.8161 -0.1815
 4829TIP3    H135978   6.187   3.465   3.982 -0.1639  1.4234  0.3341
 4829TIP3    H235979   6.054   3.403   3.942 -0.1441  0.3557  1.8566
 4830TIP3   OH235980   6.648   1.498  14.881  0.3946 -0.6477  0.5025
 4830TIP3    H135981   6.605   1.463  14.959 -0.1909 -1.5906 -0.2187
 4830TIP3    H235982   6.589   1.476  14.809  1.3486 -0.6046 -0.3224
 4831TIP3   OH235983   4.546   1.236   3.340  0.0453 -0.0391 -0.1093
 4831TIP3    H135984   4.604   1.303   3.305  1.5877 -1.0343  0.4706
 4831TIP3    H235985   4.464   1.248   3.293  0.6913  1.4459 -0.8920
 4832TIP3   OH235986   6.312   5.982  13.015  0.0066  0.4076  0.3052
 4832TIP3    H135987   6.339   6.061  13.062 -0.9256  1.7642 -1.3194
 4832TIP3    H235988   6.334   6.000  12.923 -0.1976 -1.2467 -0.1026
 4833TIP3   OH235989   5.625   6.149  16.232  0.2359 -0.4048 -0.3433
 4833TIP3    H135990   5.599   6.179  16.145  0.5950 -0.1732 -0.3736
 4833TIP3    H235991   5.720   6.165  16.236  0.0954  0.3435  0.3826
 4834TIP3   OH235992   1.280   1.311  15.645  0.2588  0.1790  0.2409
 4834TIP3    H135993   1.292   1.405  15.658 -0.5920  0.4307 -0.7012
 4834TIP3    H235994   1.303   1.296  15.553  0.0414 -0.4779  0.2871
 4835TIP3   OH235995   1.680   5.960  15.493  0.1042 -0.0463  0.0629
 4835TIP3    H135996   1.763   5.912  15.501 -0.0760 -0.6448 -1.3116
 4835TIP3    H235997   1.706   6.052  15.490  0.6185 -0.1592  0.7897
 4836TIP3   OH235998   0.548   4.792  13.901 -0.8051 -0.0026  0.1604
 4836TIP3    H135999   0.600   4.789  13.821 -1.5811 -2.0639 -0.3410
 4836TIP3    H236000   0.464   4.828  13.873 -0.8281 -0.0216  0.2055
 4837TIP3   OH236001   1.521   6.471   1.441  0.0495  0.1168 -0.0309
 4837TIP3    H136002   1.433   6.485   1.406 -0.2810  0.3441  0.8460
 4837TIP3    H236003   1.542   6.381   1.419 -0.2169  0.2040 -0.6478
 4838TIP3   OH236004   0.099   3.442  11.854 -0.3367  0.8250 -0.0963
 4838TIP3    H136005   0.136   3.359  11.884 -1.3207  1.1108  2.1133
 4838TIP3    H236006   0.173   3.504  11.860  0.1549  0.3230 -0.8390
 4839TIP3   OH236007   2.066   3.681   5.438 -0.2737 -0.5318 -0.1136
 4839TIP3    H136008   2.106   3.626   5.371 -0.3978 -0.8774  0.0931
 4839TIP3    H236009   1.983   3.638   5.458 -0.0914 -0.6127  0.4954
 4840TIP3   OH236010   4.795   0.263   5.160  0.1460  0.1084  0.5441
 4840TIP3    H136011   4.758   0.196   5.102  2.1654  1.0531 -2.0844
 4840TIP3    H236012   4.799   0.342   5.105  1.7284  1.2200  2.1514
 4841TIP3   OH236013   6.183   1.597   2.302  0.2491  0.8644  0.1591
 4841TIP3    H136014   6.235   1.643   2.367  2.2760  1.1155 -1.5401
 4841TIP3    H236015   6.109   1.656   2.284  0.7484  1.6941  0.7710
 4842TIP3   OH236016   5.798   4.717  12.222 -0.3654  0.2087 -0.1207
 4842TIP3    H136017   5.869   4.774  12.252 -0.8308  0.4756  0.4836
 4842TIP3    H236018   5.740   4.709  12.297 -1.3399  0.5515 -0.8207
 4843TIP3   OH236019   1.527   2.963  10.721 -0.6160 -0.1188 -0.0482
 4843TIP3    H136020   1.496   2.876  10.695 -0.3126 -0.4657  0.7080
 4843TIP3    H236021   1.612   2.945  10.763 -1.1228  0.3982  1.2425
 4844TIP3   OH236022   0.039   3.693   2.095  0.5644  0.2125  0.4483
 4844TIP3    H136023   0.018   3.784   2.071  0.3224  0.1235  0.3175
 4844TIP3    H236024   0.068   3.699   2.186 -0.9090  0.2343  0.9531
 4845TIP3   OH236025   3.016   4.140  16.692  0.5249 -1.0246  0.0285
 4845TIP3    H136026   3.004   4.048  16.717 -1.9866 -0.7586  0.0600
 4845TIP3    H236027   2.939   4.185  16.727  0.8675  0.7978 -1.3982
 4846TIP3   OH236028   3.108   0.309  16.415 -0.2578 -0.1036  0.5310
 4846TIP3    H136029   3.128   0.219  16.440  0.5353 -0.0381  0.1618
 4846TIP3    H236030   3.126   0.312  16.321 -1.7527  0.0474  0.2336
 4847TIP3   OH236031   6.806   1.425  14.132 -0.2961 -0.1267 -0.3165
 4847TIP3    H136032   6.757   1.421  14.214  0.7967  0.1013  0.3791
 4847TIP3    H236033   6.895   1.399  14.156  0.7680  2.6016 -0.8060
 4848TIP3   OH236034   3.379   2.404   2.046 -0.0963 -0.2551  0.0209
 4848TIP3    H136035   3.403   2.384   2.137 -0.1279  0.0017  0.0881
 4848TIP3    H236036   3.340   2.492   2.051 -0.8243 -0.5608 -0.1192
 4849TIP3   OH236037   5.935   4.540  14.666  0.0381 -0.0516 -0.2143
 4849TIP3    H136038   5.973   4.595  14.598 -0.1457 -0.2742 -0.5017
 4849TIP3    H236039   5.846   4.573  14.676  0.2054  0.2639  0.2288
 4850TIP3   OH236040   3.074   3.606  13.592  0.2286  0.2637 -0.4267
 4850TIP3    H136041   3.110   3.613  13.680 -1.5950  1.3096  0.2880
 4850TIP3    H236042   3.060   3.696  13.564 -0.4587 -0.0768 -1.2453
 4851TIP3   OH236043   5.117   4.806  12.594 -0.3202  0.1432 -0.2987
 4851TIP3    H136044   5.158   4.875  12.647  1.2368  0.6247 -2.0342
 4851TIP3    H236045   5.157   4.815  12.508 -3.0104 -0.3984 -1.7037
 4852TIP3   OH236046   0.399   6.365  11.198  0.1938 -0.3253  0.0646
 4852TIP3    H136047   0.476   6.316  11.225  0.2995 -0.6745 -0.8190
 4852TIP3    H236048   0.401   6.363  11.102 -1.7545 -1.7307 -0.0183
 4853TIP3   OH236049   6.221   4.057   6.116 -0.0664 -0.2142 -0.0241
 4853TIP3    H136050   6.203   4.081   6.207  0.2008  0.6555 -0.1922
 4853TIP3    H236051   6.315   4.041   6.113  0.0288  0.3655 -0.2740
 4854TIP3   OH236052   3.294   1.755   1.976 -0.2265 -0.0003  0.2532
 4854TIP3    H136053   3.207   1.739   2.013 -0.7539 -0.0483 -0.9654
 4854TIP3    H236054   3.283   1.835   1.924  0.9001  0.9858  1.4742
 4855TIP3   OH236055   5.838   4.314  13.872 -0.1703 -0.2048  0.7309
 4855TIP3    H136056   5.870   4.224  13.876  0.2137 -0.0334  2.1761
 4855TIP3    H236057   5.744   4.306  13.891 -0.3078 -0.3716  0.0069
 4856TIP3   OH236058   1.337   4.351   3.254 -0.2151  0.3152  0.3160
 4856TIP3    H136059   1.397   4.384   3.321  0.2462  0.3023 -0.0813
 4856TIP3    H236060   1.385   4.361   3.172 -1.4406  1.9510 -0.2404
 4857TIP3   OH236061   2.510   1.943   3.058 -0.0917 -0.0178  0.1616
 4857TIP3    H136062   2.575   1.881   3.028 -0.3675  0.2361 -1.0046
 4857TIP3    H236063   2.547   1.981   3.137  0.6414 -0.7296  0.1669
 4858TIP3   OH236064   1.448   0.336   3.451  0.1958 -0.6665  0.0484
 4858TIP3    H136065   1.519   0.368   3.395 -0.2731  1.9973  0.8501
 4858TIP3    H236066   1.490   0.274   3.511  1.1135 -1.8729 -1.7469
 4859TIP3   OH236067   3.514   4.384   4.671 -0.3910  0.1192  0.4032
 4859TIP3    H136068   3.524   4.435   4.591  1.4446 -0.2160  0.3817
 4859TIP3    H236069   3.535   4.446   4.741 -3.7610  0.9440  0.8566
 4860TIP3   OH236070   4.516   2.559   1.355  0.5849  0.4796  0.2333
 4860TIP3    H136071   4.474   2.517   1.430  0.5529 -0.1559 -0.1340
 4860TIP3    H236072   4.446   2.571   1.291  0.8722 -0.2107 -0.2219
 4861TIP3   OH236073   4.003   3.290  14.405  0.4025  0.7460 -0.0781
 4861TIP3    H136074   4.031   3.278  14.496  0.7592 -0.8354 -0.3632
 4861TIP3    H236075   3.915   3.252  14.402 -0.4679  2.6205  0.0266
 4862TIP3   OH236076   2.242   0.627  12.202 -0.7363  0.8348 -0.2486
 4862TIP3    H136077   2.204   0.604  12.286  2.3912 -1.1768  0.7856
 4862TIP3    H236078   2.178   0.596  12.137 -0.9791 -2.4383  1.3443
 4863TIP3   OH236079   1.199   3.168  12.359  0.3535  0.2580 -0.2343
 4863TIP3    H136080   1.166   3.218  12.433 -0.8662  1.5417 -1.5698
 4863TIP3    H236081   1.286   3.140  12.386  0.7968  2.4847  0.9003
 4864TIP3   OH236082   2.141   4.547   3.726  0.2641  0.3102  0.7375
 4864TIP3    H136083   2.110   4.607   3.793  0.8412  1.5205 -0.0568
 4864TIP3    H236084   2.099   4.463   3.748 -0.5739  0.9908  1.8352
 4865TIP3   OH236085   0.137   3.669   5.497  0.0753 -0.3166 -0.2812
 4865TIP3    H136086   0.210   3.654   5.557 -0.1392 -0.7403 -0.1210
 4865TIP3    H236087   0.077   3.725   5.545 -0.6234 -1.5563  0.3390
 4866TIP3   OH236088   4.228   1.007  14.434 -0.2758  0.0628 -0.0146
 4866TIP3    H136089   4.224   1.098  14.405  0.9707  0.3162  0.5759
 4866TIP3    H236090   4.270   1.010  14.520  1.3561 -1.2135 -0.7177
 4867TIP3   OH236091   2.753   5.723  11.865  0.1822 -0.0760  0.1799
 4867TIP3    H136092   2.745   5.780  11.789 -0.1208 -1.0718 -0.5650
 4867TIP3    H236093   2.824   5.761  11.916 -0.1635  1.0884 -0.1707
 4868TIP3   OH236094   1.788   1.484  11.567  0.5104 -0.0170  0.0085
 4868TIP3    H136095   1.718   1.434  11.524 -0.0731 -0.1315  1.0428
 4868TIP3    H236096   1.752   1.573  11.573  0.3199 -0.1343  0.7815
 4869TIP3   OH236097   3.066   2.458  13.009 -0.2847 -0.1880 -0.0486
 4869TIP3    H136098   3.064   2.466  13.104 -0.2030  0.3560 -0.0935
 4869TIP3    H236099   3.051   2.547  12.976  1.4776 -0.0476 -0.5437
 4870TIP3   OH236100   6.626   1.365   0.580 -0.3093 -0.1288 -0.1147
 4870TIP3    H136101   6.633   1.270   0.588 -0.3637 -0.1260 -0.0296
 4870TIP3    H236102   6.709   1.392   0.541  0.0151 -0.1348  0.5439
 4871TIP3   OH236103   1.021   2.609   0.269  0.0602 -0.5982  0.4114
 4871TIP3    H136104   1.071   2.673   0.219  0.3723 -0.5975  0.7229
 4871TIP3    H236105   0.978   2.555   0.203  0.4492 -0.5796  0.1399
 4872TIP3   OH236106   6.295   5.210   0.742  0.1008 -0.5472  0.2196
 4872TIP3    H136107   6.344   5.292   0.750 -0.3775 -0.1611 -0.6107
 4872TIP3    H236108   6.285   5.198   0.647 -0.7860 -0.9872  0.3629
 4873TIP3   OH236109   5.204   3.742   2.710 -0.2294 -0.0979  0.1358
 4873TIP3    H136110   5.142   3.810   2.682 -0.5075 -0.2058  0.4802
 4873TIP3    H236111   5.282   3.791   2.736 -0.2758  0.0623 -0.0212
 4874TIP3   OH236112   1.923   4.932   1.406 -0.0711 -0.3166 -0.5349
 4874TIP3    H136113   1.834   4.923   1.441 -0.1793 -0.2429 -0.7904
 4874TIP3    H236114   1.932   5.025   1.387  0.4602 -0.1326  0.5376
 4875TIP3   OH236115   3.021   3.437   5.658  0.5068  0.0975  0.1805
 4875TIP3    H136116   2.983   3.524   5.672 -2.4136 -1.3077  1.8808
 4875TIP3    H236117   3.091   3.431   5.722  0.9228  1.2771 -0.1428
 4876TIP3   OH236118   3.228   0.600   2.813 -0.6640  0.4312 -0.9035
 4876TIP3    H136119   3.196   0.550   2.738 -1.5155 -1.4219  0.6468
 4876TIP3    H236120   3.262   0.535   2.873 -2.0263  1.6480  1.3138
 4877TIP3   OH236121   0.649   4.479  12.678  0.0184  0.0474  0.3413
 4877TIP3    H136122   0.658   4.496  12.772  2.7135  1.4199 -0.0470
 4877TIP3    H236123   0.730   4.434  12.655 -0.6391 -0.3362 -1.3351
 4878TIP3   OH236124   5.130   0.277   2.461 -0.1100  0.2557  0.0890
 4878TIP3    H136125   5.161   0.199   2.507  0.6882 -0.5387 -1.7187
 4878TIP3    H236126   5.205   0.338   2.466 -0.5259  0.7240  0.9951
 4879TIP3   OH236127   6.057   5.132   4.744  0.3972  0.0956 -0.4291
 4879TIP3    H136128   6.068   5.088   4.828 -1.1542  0.1283 -0.1887
 4879TIP3    H236129   6.091   5.221   4.759  1.2499 -0.2628 -0.2029
 4880TIP3   OH236130   3.812   1.290   1.072 -0.3437 -0.0110 -0.1325
 4880TIP3    H136131   3.755   1.363   1.046 -0.5461 -0.2966 -0.5182
 4880TIP3    H236132   3.775   1.215   1.026 -0.7129 -0.5454  1.0077
 4881TIP3   OH236133   3.562   5.936   0.864  0.4639 -0.5811  0.2967
 4881TIP3    H136134   3.474   5.943   0.828  0.4223  1.0426  0.6535
 4881TIP3    H236135   3.549   5.941   0.959  0.7431 -2.8653  0.5100
 4882TIP3   OH236136   5.315   5.720  12.346 -0.3907  0.3423  0.2889
 4882TIP3    H136137   5.347   5.753  12.262 -0.3998  2.0445  0.9240
 4882TIP3    H236138   5.227   5.688  12.328  0.0671 -0.4583 -0.5914
 4883TIP3   OH236139   0.841   3.550   0.690 -0.0451 -0.2659 -0.0063
 4883TIP3    H136140   0.844   3.639   0.653  2.3329  0.5976  1.9336
 4883TIP3    H236141   0.905   3.501   0.638 -0.3026 -0.4552 -0.1482
 4884TIP3   OH236142   2.723   3.106   1.614  0.6524  0.0019 -0.0418
 4884TIP3    H136143   2.666   3.178   1.585 -0.1873 -0.2672  0.8922
 4884TIP3    H236144   2.794   3.104   1.549  1.4678  2.5935  0.6519
 4885TIP3   OH236145   0.607   1.236  13.923 -0.0488 -0.2818 -0.1797
 4885TIP3    H136146   0.519   1.206  13.900 -0.1786  1.3874 -2.2313
 4885TIP3    H236147   0.597   1.330  13.939  1.3225 -0.0690 -0.4153
 4886TIP3   OH236148   6.417   5.457  13.823  0.7336 -0.0004 -0.5490
 4886TIP3    H136149   6.430   5.476  13.730  0.2736  2.0321 -0.2375
 4886TIP3    H236150   6.322   5.464  13.836  0.7933 -0.2800  0.0688
 4887TIP3   OH236151   1.949   3.230   1.216 -0.6028 -0.6019  0.3411
 4887TIP3    H136152   1.908   3.291   1.278 -0.1230  1.6363 -1.4635
 4887TIP3    H236153   2.038   3.220   1.248 -0.8720 -0.9465  1.0251
 4888TIP3   OH236154   5.502   0.524   0.142  0.2095  0.7578 -0.3525
 4888TIP3    H136155   5.539   0.538   0.229 -0.9125 -1.1780  0.5013
 4888TIP3    H236156   5.411   0.499   0.159 -0.1156  0.6702 -2.1062
 4889TIP3   OH236157   3.887   3.803   2.607 -0.3986 -0.0084 -0.4701
 4889TIP3    H136158   3.811   3.746   2.610 -0.8068  0.5338  2.1862
 4889TIP3    H236159   3.952   3.761   2.663 -0.2268  1.4391  0.4719
 4890TIP3   OH236160   1.593   2.198  14.221  0.1274  0.0254  0.5016
 4890TIP3    H136161   1.544   2.279  14.238  0.7665  0.2958  1.1020
 4890TIP3    H236162   1.526   2.135  14.195 -0.4530  0.5855  0.5954
 4891TIP3   OH236163   5.340   1.198  11.766  0.4108 -0.0686  0.0390
 4891TIP3    H136164   5.428   1.218  11.733  0.4676 -0.0186  0.2194
 4891TIP3    H236165   5.343   1.222  11.859 -0.0734  0.8182 -0.1622
 4892TIP3   OH236166   4.325   4.522  13.404 -0.2631  0.2317  0.2268
 4892TIP3    H136167   4.391   4.471  13.356  0.2358  0.4702  0.6538
 4892TIP3    H236168   4.376   4.576  13.465 -0.9092 -0.2886  1.2394
 4893TIP3   OH236169   6.156   0.744  13.516 -0.4252 -0.1194 -0.2263
 4893TIP3    H136170   6.079   0.799  13.530 -0.2784 -0.2430  1.2529
 4893TIP3    H236171   6.226   0.805  13.494 -0.5000  0.2083  0.4069
 4894TIP3   OH236172   3.796   0.820   2.004 -0.6097  0.0314  0.0076
 4894TIP3    H136173   3.796   0.728   2.029 -0.4930 -0.0164 -0.1688
 4894TIP3    H236174   3.745   0.863   2.073  1.8983  0.3060  1.8476
 4895TIP3   OH236175   1.811   4.611  11.822  0.0797  0.6419  0.0773
 4895TIP3    H136176   1.852   4.694  11.848  0.0464  1.0279 -1.0682
 4895TIP3    H236177   1.719   4.633  11.810  0.5032  1.1004 -2.8710
 4896TIP3   OH236178   3.903   6.192   5.354  0.1069  0.0355 -0.4285
 4896TIP3    H136179   3.842   6.238   5.296 -0.0134  0.0847 -0.2657
 4896TIP3    H236180   3.921   6.255   5.424  0.4903  0.0866 -0.5761
 4897TIP3   OH236181   2.857   5.997  12.956  0.7258  0.1485  0.0198
 4897TIP3    H136182   2.786   5.994  12.892  1.0260 -0.7338 -0.2878
 4897TIP3    H236183   2.880   6.090  12.963 -2.5805  0.9749  2.5045
 4898TIP3   OH236184   0.723   6.156  16.131  0.0779 -0.7704  0.0607
 4898TIP3    H136185   0.724   6.176  16.225  0.7951  2.0624 -0.4490
 4898TIP3    H236186   0.634   6.177  16.103  0.0923 -0.8138 -0.0146
 4899TIP3   OH236187   6.621   1.277   1.740  0.6455  0.2742  0.5300
 4899TIP3    H136188   6.555   1.341   1.766  0.7922 -0.1225  1.9975
 4899TIP3    H236189   6.701   1.306   1.786  1.1636  0.0209 -0.1939
 4900TIP3   OH236190   1.369   0.820   0.562  0.1397  0.0784 -0.4266
 4900TIP3    H136191   1.389   0.752   0.498  0.8999 -0.9282  0.8451
 4900TIP3    H236192   1.297   0.784   0.615 -0.1503  0.6950 -0.3850
 4901TIP3   OH236193   6.610   0.303  10.998 -0.2493 -0.1462 -0.2303
 4901TIP3    H136194   6.693   0.349  11.006  0.0334 -0.6512 -0.2032
 4901TIP3    H236195   6.633   0.210  11.006 -0.6992 -0.3409 -1.1192
 4902TIP3   OH236196   4.426   0.823  11.223 -0.5531  0.1667 -0.4540
 4902TIP3    H136197   4.386   0.859  11.143 -2.3649  2.7433  1.4141
 4902TIP3    H236198   4.482   0.894  11.255 -0.8554 -0.2906  1.1717
 4903TIP3   OH236199   2.278   5.158  15.641 -0.3361 -0.3240 -0.0352
 4903TIP3    H136200   2.222   5.107  15.699  1.8910  0.1681  2.7668
 4903TIP3    H236201   2.329   5.092  15.593 -0.1433 -0.7589  0.7523
 4904TIP3   OH236202   1.720   1.096   1.160 -0.8378  0.6563  0.1595
 4904TIP3    H136203   1.728   1.019   1.216 -0.5706  0.3970 -0.2274
 4904TIP3    H236204   1.774   1.162   1.203 -0.6938  0.4831  0.2468
 4905TIP3   OH236205   4.319   6.773  16.777  0.7613  0.3545 -0.0643
 4905TIP3    H136206   4.392   6.751  16.834  1.2644  0.2251 -0.7488
 4905TIP3    H236207   4.275   6.690  16.760  2.0131 -0.0088 -1.7618
 4906TIP3   OH236208   1.777   1.629   1.306 -0.3736  0.3100  0.0321
 4906TIP3    H136209   1.813   1.639   1.394 -0.0212  2.5238 -0.2978
 4906TIP3    H236210   1.682   1.629   1.319 -0.3249  0.6699  0.4320
 4907TIP3   OH236211   0.328   3.980  13.466  0.1057 -0.0477  0.1301
 4907TIP3    H136212   0.285   4.064  13.482  0.6163  0.1905  0.2672
 4907TIP3    H236213   0.395   3.999  13.400  0.8382 -0.1507  0.8269
 4908TIP3   OH236214   5.737   6.564   5.402 -0.6734  0.3350  0.3394
 4908TIP3    H136215   5.807   6.589   5.343  2.2366 -3.2877  1.8378
 4908TIP3    H236216   5.669   6.528   5.345 -0.8139  2.6270 -1.0601
 4909TIP3   OH236217   3.333   4.325   1.718  0.3705  0.2074 -0.3744
 4909TIP3    H136218   3.377   4.257   1.768 -1.5826 -0.5576  0.4136
 4909TIP3    H236219   3.321   4.287   1.631 -0.7970 -0.5549  0.0885
 4910TIP3   OH236220   3.815   4.277   0.112  0.4038 -0.5444  0.2623
 4910TIP3    H136221   3.787   4.360   0.075  1.6815 -0.0598  0.3625
 4910TIP3    H236222   3.884   4.299   0.174 -1.0232 -1.4284  2.2694
 4911TIP3   OH236223   1.361   2.991   2.236  0.2253 -0.0792  0.1078
 4911TIP3    H136224   1.268   2.991   2.258  0.0370 -0.1050 -0.6671
 4911TIP3    H236225   1.388   3.083   2.247 -0.3211  0.2895 -1.3751
 4912TIP3   OH236226   2.508   1.436   6.124 -0.0652  0.1293  0.9246
 4912TIP3    H136227   2.601   1.454   6.111 -0.0165  0.7629  2.0189
 4912TIP3    H236228   2.505   1.344   6.152  0.5715  0.8763  3.8030
 4913TIP3   OH236229   5.388   5.837   3.606 -0.1560 -0.3249  0.5740
 4913TIP3    H136230   5.406   5.900   3.536 -0.7344 -3.4593 -2.7157
 4913TIP3    H236231   5.472   5.826   3.650  0.6914  0.5672 -0.7390
 4914TIP3   OH236232   6.330   1.314   2.153 -0.0458 -0.2048 -0.0285
 4914TIP3    H136233   6.358   1.399   2.118  0.4468 -0.2243  0.3172
 4914TIP3    H236234   6.406   1.256   2.141 -0.9377 -1.0813 -1.8470
 4915TIP3   OH236235   0.523   6.131  15.790  0.0775  0.0250 -0.0718
 4915TIP3    H136236   0.555   6.221  15.786 -0.4662  0.1861 -0.9476
 4915TIP3    H236237   0.475   6.126  15.873 -2.9295  1.6099 -1.5463
 4916TIP3   OH236238   2.302   2.580   1.767 -0.2232 -0.5227 -0.3962
 4916TIP3    H136239   2.252   2.648   1.812  0.0293 -1.1896  0.9260
 4916TIP3    H236240   2.393   2.602   1.784  0.0528  0.9471 -3.1712
 4917TIP3   OH236241   6.686   0.890  15.358  0.3596 -0.3045 -0.1791
 4917TIP3    H136242   6.760   0.945  15.332  0.1046  0.1889  0.1341
 4917TIP3    H236243   6.608   0.940  15.332  0.1341 -1.1193 -1.1300
 4918TIP3   OH236244   2.897   6.091   3.965 -0.0870 -0.0183 -0.0116
 4918TIP3    H136245   2.984   6.128   3.983 -0.1471 -0.1214  0.5033
 4918TIP3    H236246   2.837   6.145   4.016 -0.1015 -1.2493  1.3400
 4919TIP3   OH236247   6.504   5.591   6.054  0.1997  0.1515  0.6537
 4919TIP3    H136248   6.554   5.637   5.987 -2.0525 -0.2569 -1.4547
 4919TIP3    H236249   6.430   5.650   6.073 -1.1790 -1.3010 -0.0005
 4920TIP3   OH236250   6.725   2.335  16.269  0.1860  0.4665 -0.1356
 4920TIP3    H136251   6.652   2.396  16.271  0.2268  0.5290 -0.4546
 4920TIP3    H236252   6.698   2.269  16.204  1.3191  1.6445 -1.8908
 4921TIP3   OH236253   5.350   3.028   1.204 -0.4455  0.3292  0.2640
 4921TIP3    H136254   5.390   2.968   1.268  0.7958  0.9662  0.1138
 4921TIP3    H236255   5.363   2.984   1.120 -0.1966  0.4624  0.2320
 4922TIP3   OH236256   5.123   1.760   3.056  0.0159  0.4914 -1.4687
 4922TIP3    H136257   5.183   1.765   3.131  0.0237  1.9788 -1.5495
 4922TIP3    H236258   5.117   1.666   3.037  1.6129  0.2338 -0.9032
 4923TIP3   OH236259   3.857   6.711  16.555 -0.1112 -0.3568 -0.6620
 4923TIP3    H136260   3.909   6.700  16.634  0.9785  1.1282 -1.1203
 4923TIP3    H236261   3.852   6.623  16.517 -1.7677 -1.3649  1.6627
 4924TIP3   OH236262   0.642   6.387  13.409 -0.1804  0.3942  0.7803
 4924TIP3    H136263   0.562   6.334  13.413  0.3055 -0.3296  1.2486
 4924TIP3    H236264   0.674   6.373  13.320  0.7001 -1.2883  1.3196
 4925TIP3   OH236265   4.970   3.111  13.437  0.1530  0.0667  0.4843
 4925TIP3    H136266   4.941   3.115  13.346 -0.1317  0.5944  0.5897
 4925TIP3    H236267   4.937   3.028  13.470 -1.2205  0.6304  0.5849
 4926TIP3   OH236268   4.872   5.706  15.028 -0.2311 -0.3611  0.4749
 4926TIP3    H136269   4.785   5.726  14.993 -0.1792 -1.1736 -0.1292
 4926TIP3    H236270   4.866   5.731  15.121 -0.7298  0.7035  0.1666
 4927TIP3   OH236271   0.638   1.888   1.285  0.0066  0.3858 -0.8416
 4927TIP3    H136272   0.717   1.892   1.338  0.4113 -0.1623 -1.4035
 4927TIP3    H236273   0.655   1.820   1.220 -1.0858 -0.0421 -0.7043
 4928TIP3   OH236274   5.260   6.625   5.427 -0.0475 -0.0593 -0.1062
 4928TIP3    H136275   5.281   6.655   5.339 -0.7977  1.6743  0.2540
 4928TIP3    H236276   5.223   6.538   5.416 -0.1785  0.1619 -1.5028
 4929TIP3   OH236277   2.817   2.135  10.987  0.3716 -0.0810 -0.3405
 4929TIP3    H136278   2.814   2.230  10.974 -0.0344  0.0878  0.8881
 4929TIP3    H236279   2.910   2.116  11.004  0.0730  0.5726  2.4905
 4930TIP3   OH236280   3.022   3.022   3.714  0.0606 -0.4379  0.1364
 4930TIP3    H136281   3.005   2.975   3.796  1.5993  0.3639  0.9705
 4930TIP3    H236282   2.937   3.025   3.670 -1.0079 -0.2233  2.0773
 4931TIP3   OH236283   1.876   4.282   4.873 -0.1632 -0.4328  0.2509
 4931TIP3    H136284   1.857   4.210   4.812 -0.2675  0.7704 -1.1811
 4931TIP3    H236285   1.959   4.318   4.843 -0.5470  0.6135  0.4121
 4932TIP3   OH236286   0.973   4.410   0.323 -0.6634  1.1259  0.3766
 4932TIP3    H136287   1.020   4.371   0.249  0.9282  1.5833  1.0889
 4932TIP3    H236288   0.901   4.350   0.341 -0.4690  0.4861 -0.9024
 4933TIP3   OH236289   4.276   5.501   4.559  0.1440 -0.4929  0.1731
 4933TIP3    H136290   4.249   5.442   4.630 -2.2090 -1.0668 -1.0996
 4933TIP3    H236291   4.339   5.561   4.600 -0.8428 -1.0331  2.6298
 4934TIP3   OH236292   1.119   6.637   2.773 -0.0209 -0.7092  0.0455
 4934TIP3    H136293   1.079   6.579   2.709  1.2480 -1.4637 -0.1098
 4934TIP3    H236294   1.142   6.579   2.846 -1.7163  0.1910  1.3340
 4935TIP3   OH236295   3.765   2.129  16.329 -0.7242 -0.2322 -0.6295
 4935TIP3    H136296   3.697   2.081  16.282  0.6214 -0.8048 -2.1116
 4935TIP3    H236297   3.824   2.060  16.362 -0.1468  0.2832 -0.5582
 4936TIP3   OH236298   2.552   6.620   3.046 -0.2084 -0.0231 -0.0216
 4936TIP3    H136299   2.559   6.715   3.057  0.4893 -0.1711  0.9582
 4936TIP3    H236300   2.478   6.608   2.987  0.1686  1.1613 -0.7560
 4937TIP3   OH236301   1.751   1.733   3.336  0.0842  0.0961 -0.1516
 4937TIP3    H136302   1.725   1.691   3.254  1.0502  0.9921 -0.9544
 4937TIP3    H236303   1.682   1.711   3.398 -0.3795 -1.0724 -1.0571
 4938TIP3   OH236304   2.203   6.036  15.635  0.1963 -0.6202  0.6332
 4938TIP3    H136305   2.269   6.068  15.697 -0.4248  0.0769  0.9516
 4938TIP3    H236306   2.213   5.941  15.638  1.8165 -0.5097 -0.0389
 4939TIP3   OH236307   6.493   2.266   2.144 -0.2074 -0.0565 -0.5064
 4939TIP3    H136308   6.580   2.240   2.174 -1.1207  0.4778  2.9683
 4939TIP3    H236309   6.509   2.306   2.058  3.1583  1.1332  0.4988
 4940TIP3   OH236310   5.674   4.636  13.145  0.3152 -0.1054 -0.1752
 4940TIP3    H136311   5.764   4.668  13.156  0.4457 -0.6479  0.4026
 4940TIP3    H236312   5.681   4.570  13.077  0.7772 -1.7058  1.3330
 4941TIP3   OH236313   3.522   0.981   4.287 -0.0853 -0.8301 -0.0861
 4941TIP3    H136314   3.541   1.026   4.205 -1.5794 -1.1381 -0.6319
 4941TIP3    H236315   3.475   1.046   4.339 -0.1873 -1.0214  0.0595
 4942TIP3   OH236316   3.101   4.566   5.877  0.1406  0.1413 -0.3956
 4942TIP3    H136317   3.119   4.535   5.789 -0.3181 -1.4604  0.0550
 4942TIP3    H236318   3.180   4.546   5.927 -0.1884 -0.3823 -0.0813
 4943TIP3   OH236319   1.657   4.951  10.771 -0.3393 -0.5529 -0.0908
 4943TIP3    H136320   1.684   5.036  10.736  0.6297 -1.8097 -2.6892
 4943TIP3    H236321   1.586   4.923  10.713  1.7885 -3.0413 -1.6924
 4944TIP3   OH236322   4.664   2.671   0.354  0.1193  0.1651  0.9787
 4944TIP3    H136323   4.690   2.601   0.414  0.4941  0.8491  1.6164
 4944TIP3    H236324   4.716   2.746   0.380  0.4676  0.4125 -0.3559
 4945TIP3   OH236325   2.604   0.941  10.661 -0.0388  0.0902  0.3773
 4945TIP3    H136326   2.581   0.989  10.581 -0.5837  0.5325  0.7878
 4945TIP3    H236327   2.695   0.966  10.678 -0.4938  1.5258  0.9280
 4946TIP3   OH236328   5.192   4.359   3.892  0.7719 -0.1231  0.0670
 4946TIP3    H136329   5.121   4.423   3.903 -0.5202 -1.4844 -0.0188
 4946TIP3    H236330   5.271   4.407   3.918  0.0156  1.8070 -0.9412
 4947TIP3   OH236331   3.444   1.175  14.071 -0.0133 -0.1308  0.0751
 4947TIP3    H136332   3.528   1.221  14.064 -0.0007 -0.3832 -3.6742
 4947TIP3    H236333   3.467   1.082  14.070 -0.2749 -0.2077  0.9178
 4948TIP3   OH236334   0.896   4.651  15.363 -0.7219 -0.1038 -0.1375
 4948TIP3    H136335   0.946   4.583  15.408  4.5096  0.9507 -3.5236
 4948TIP3    H236336   0.911   4.730  15.415 -1.9540 -0.3861  0.6944
 4949TIP3   OH236337   4.745   3.631  17.121  0.2233  0.1716  0.2488
 4949TIP3    H136338   4.744   3.688  17.198  0.7936  0.6862 -0.1160
 4949TIP3    H236339   4.654   3.628  17.092 -0.2715 -1.2741  1.8302
 4950TIP3   OH236340   1.962   3.001  16.315 -0.6725  0.0959 -1.0896
 4950TIP3    H136341   1.997   2.979  16.229 -1.6265  1.1869 -1.7830
 4950TIP3    H236342   1.898   3.070  16.298  1.0010  2.2482  0.7905
 4951TIP3   OH236343   2.372   3.842   4.028 -0.3069  0.0122 -0.3044
 4951TIP3    H136344   2.318   3.844   4.108 -0.2844  1.3976 -0.2975
 4951TIP3    H236345   2.368   3.751   3.999 -0.7083 -0.4194  1.0139
 4952TIP3   OH236346   5.748   1.315   6.146  0.2972 -0.1510  0.1109
 4952TIP3    H136347   5.743   1.341   6.238 -0.0547  2.3945 -0.5402
 4952TIP3    H236348   5.752   1.220   6.148 -1.4941 -0.2754  2.6889
 4953TIP3   OH236349   5.652   2.399  13.774 -0.9497 -0.1773  0.1180
 4953TIP3    H136350   5.651   2.345  13.695  2.6992 -1.8680  1.0160
 4953TIP3    H236351   5.686   2.484  13.744 -1.5214 -0.1337 -0.4287
 4954TIP3   OH236352   2.500   0.662  12.199  0.0807 -0.0554 -0.1875
 4954TIP3    H136353   2.407   0.649  12.183 -0.6176  0.5752  2.7235
 4954TIP3    H236354   2.514   0.627  12.287  2.7851 -0.7977 -0.8216
 4955TIP3   OH236355   2.785   2.889  14.039  0.4437 -0.4497 -0.0024
 4955TIP3    H136356   2.831   2.859  14.118 -0.4035  1.2409  1.1997
 4955TIP3    H236357   2.729   2.816  14.015  0.3580 -0.8260  1.2628
 4956TIP3   OH236358   3.692   5.882   4.084  0.2869  0.5960 -0.0801
 4956TIP3    H136359   3.611   5.888   4.034 -0.6890 -2.0927  1.0096
 4956TIP3    H236360   3.699   5.967   4.128 -1.6722  1.0588 -0.5663
 4957TIP3   OH236361   5.113   6.507   0.379  0.6166 -0.1779  0.3569
 4957TIP3    H136362   5.183   6.573   0.380  1.3010 -0.8864  0.5574
 4957TIP3    H236363   5.081   6.505   0.469  0.1645  0.3174  0.2119
 4958TIP3   OH236364   4.500   3.757  16.784 -0.6850 -0.3834  0.6076
 4958TIP3    H136365   4.440   3.750  16.709  1.4061 -0.6694 -1.1227
 4958TIP3    H236366   4.521   3.850  16.789  0.1662 -0.5372  0.0042
 4959TIP3   OH236367   0.163   3.139  11.738  0.1533  0.0934 -0.4006
 4959TIP3    H136368   0.083   3.180  11.704  0.4615  0.6930 -0.4116
 4959TIP3    H236369   0.176   3.063  11.682 -0.3148  0.0883 -0.5120
 4960TIP3   OH236370   2.859   2.746   2.606 -0.3178  0.3723 -0.1619
 4960TIP3    H136371   2.798   2.708   2.542  0.4431  1.0944 -1.3506
 4960TIP3    H236372   2.945   2.737   2.566  0.1219  1.3435  0.5186
 4961TIP3   OH236373   1.839   0.613   4.796 -0.0513  0.7154  0.4347
 4961TIP3    H136374   1.849   0.542   4.860  1.6632  1.1481  0.7056
 4961TIP3    H236375   1.784   0.678   4.841 -0.4854  0.1640  0.7083
 4962TIP3   OH236376   6.410   1.121   0.703 -0.3768 -0.0209  0.1268
 4962TIP3    H136377   6.496   1.087   0.726  0.1269  0.2879 -1.2104
 4962TIP3    H236378   6.355   1.103   0.780 -0.2737 -4.1925 -0.5631
 4963TIP3   OH236379   5.156   6.407   4.645 -0.1458  0.1093  0.9945
 4963TIP3    H136380   5.066   6.438   4.650 -0.3431 -0.6208  2.2975
 4963TIP3    H236381   5.156   6.323   4.691  0.8900 -0.6684 -0.3110
 4964TIP3   OH236382   3.105   5.349  14.275 -0.1194 -0.1652 -0.6120
 4964TIP3    H136383   3.055   5.281  14.319  0.1595  1.3588  2.3033
 4964TIP3    H236384   3.132   5.409  14.345  2.6124  1.0962 -2.5266
 4965TIP3   OH236385   0.187   5.553  15.418  0.3634 -0.0481  0.6270
 4965TIP3    H136386   0.133   5.600  15.355 -1.1823 -2.7529 -0.2443
 4965TIP3    H236387   0.261   5.521  15.367 -0.2692 -1.2141  0.3868
 4966TIP3   OH236388   1.567   6.686   1.604 -0.2918  0.2121  0.2374
 4966TIP3    H136389   1.558   6.605   1.555 -0.6711  0.4103 -0.0163
 4966TIP3    H236390   1.659   6.686   1.633 -0.1089  0.0173 -0.3278
 4967TIP3   OH236391   5.219   4.912  14.685 -0.2101  0.2257 -0.2499
 4967TIP3    H136392   5.147   4.914  14.747 -1.0483  0.1800 -1.1920
 4967TIP3    H236393   5.296   4.893  14.738 -0.8369  0.5666  0.8176
 4968TIP3   OH236394   1.545   0.667   4.011 -0.4192  0.5011 -0.3195
 4968TIP3    H136395   1.602   0.730   4.056 -0.1393  1.2072 -1.6409
 4968TIP3    H236396   1.552   0.689   3.919  0.5254 -2.1397 -0.9608
 4969TIP3   OH236397   4.725   1.701  13.846  0.6560 -0.1192  0.3509
 4969TIP3    H136398   4.739   1.607  13.852  0.6936 -0.2065 -0.8796
 4969TIP3    H236399   4.725   1.731  13.937  2.2685 -1.0736  0.7188
 4970TIP3   OH236400   1.141   0.341   6.320  0.2918 -0.6406  0.7980
 4970TIP3    H136401   1.226   0.298   6.314  0.0245 -0.9411 -1.8360
 4970TIP3    H236402   1.160   0.434   6.306  0.1221 -0.8459 -1.0549
 4971TIP3   OH236403   3.150   5.245   2.277  0.2047 -0.0495  0.4342
 4971TIP3    H136404   3.065   5.201   2.284  0.3009 -0.4661 -0.8443
 4971TIP3    H236405   3.214   5.174   2.285  0.3547 -0.6037 -3.5439
 4972TIP3   OH236406   1.405   5.218   0.887 -0.0638 -0.1415 -0.4088
 4972TIP3    H136407   1.427   5.188   0.799 -2.0029 -0.6020 -0.7837
 4972TIP3    H236408   1.411   5.139   0.941  1.8652  0.2812  0.0765
 4973TIP3   OH236409   4.159   4.968   1.021 -0.1011  0.1167  0.6636
 4973TIP3    H136410   4.229   4.918   0.980  0.4709  0.6870  0.9385
 4973TIP3    H236411   4.200   5.011   1.096 -0.7931  0.2823  0.9625
 4974TIP3   OH236412   1.713   3.181  16.422 -0.2285 -0.2075 -0.0293
 4974TIP3    H136413   1.663   3.255  16.456 -0.4785 -0.4617  0.1506
 4974TIP3    H236414   1.663   3.151  16.346  1.1199  1.3578 -1.6423
 4975TIP3   OH236415   3.879   3.511   3.693  0.1681  0.2982 -0.0587
 4975TIP3    H136416   3.819   3.436   3.686  0.7314 -0.3077  1.2049
 4975TIP3    H236417   3.835   3.581   3.646 -0.8802 -0.5283 -0.3545
 4976TIP3   OH236418   0.277   1.411   2.090  0.6882  0.4045  0.0192
 4976TIP3    H136419   0.317   1.479   2.035  0.9592  0.1339 -0.1239
 4976TIP3    H236420   0.220   1.459   2.150  1.2436  0.8010  0.2404
 4977TIP3   OH236421   0.098   1.992  13.446  0.1600  0.3177  0.1756
 4977TIP3    H136422   0.084   2.007  13.539 -0.7686  0.0220  0.0970
 4977TIP3    H236423   0.181   1.945  13.441 -0.8375 -1.6180  1.0358
 4978TIP3   OH236424   4.384   3.790   4.137  0.8639  0.4436 -0.3503
 4978TIP3    H136425   4.299   3.771   4.097  0.8983  2.4115 -1.5090
 4978TIP3    H236426   4.441   3.719   4.109 -0.2346 -0.6095 -0.0230
 4979TIP3   OH236427   6.204   6.386   4.379  0.1264 -0.1392  1.0056
 4979TIP3    H136428   6.282   6.361   4.428  0.4157 -0.4282  0.4200
 4979TIP3    H236429   6.151   6.307   4.375  1.0003 -0.6945 -0.7712
 4980TIP3   OH236430   0.134   4.661   5.951 -0.1312  0.1198  0.1063
 4980TIP3    H136431   0.179   4.577   5.952 -0.2889  0.0354  0.0499
 4980TIP3    H236432   0.063   4.651   6.014 -1.5382 -0.5429 -1.5114
 4981TIP3   OH236433   6.630   4.693   2.232  0.1754 -0.2812 -0.2592
 4981TIP3    H136434   6.689   4.767   2.220  1.2310 -0.7621  1.5356
 4981TIP3    H236435   6.544   4.733   2.244  0.4544  0.5447 -0.9278
 4982TIP3   OH236436   2.320   4.950  12.047 -0.2667  0.0669  0.4546
 4982TIP3    H136437   2.247   4.999  12.010 -0.4780 -0.7543 -0.2570
 4982TIP3    H236438   2.362   5.011  12.107 -1.2895  0.6902  0.5713
 4983TIP3   OH236439   5.099   1.974  16.287 -0.1056  0.1259 -0.0837
 4983TIP3    H136440   5.093   2.033  16.211 -0.8326 -0.8061 -0.7642
 4983TIP3    H236441   5.193   1.964  16.301  0.0581  1.8755  0.4056
 4984TIP3   OH236442   6.058   0.850   0.827 -0.1183 -0.3522  0.4553
 4984TIP3    H136443   6.029   0.795   0.754 -1.2162  0.6391  0.1260
 4984TIP3    H236444   6.020   0.808   0.904  0.4767 -1.0113  0.4049
 4985TIP3   OH236445   0.677   0.627   3.475  0.5095  0.3667 -0.1128
 4985TIP3    H136446   0.638   0.611   3.561 -0.2487  1.2385 -0.2831
 4985TIP3    H236447   0.741   0.556   3.465  0.6414  0.2730  1.1753
 4986TIP3   OH236448   0.800   5.713  13.452 -0.1413 -0.6510 -0.1244
 4986TIP3    H136449   0.836   5.691  13.538  0.9838  0.4162 -0.2867
 4986TIP3    H236450   0.725   5.654  13.441 -1.1166  0.0299  2.1311
 4987TIP3   OH236451   2.956   6.822  14.510 -0.0187  0.4503  0.0741
 4987TIP3    H136452   2.968   6.827  14.605  1.1829  0.1568 -0.0450
 4987TIP3    H236453   2.955   6.913  14.481 -0.6244  0.5467  0.3900
 4988TIP3   OH236454   2.635   5.078  15.533  0.0678  0.4678  0.2066
 4988TIP3    H136455   2.562   5.016  15.526  2.2151 -2.1601 -0.2748
 4988TIP3    H236456   2.612   5.133  15.608 -1.8653 -0.9928  0.7821
 4989TIP3   OH236457   0.257   1.484   4.367 -0.8955 -0.7076  0.0778
 4989TIP3    H136458   0.232   1.535   4.443  1.9760  0.7705  0.1620
 4989TIP3    H236459   0.280   1.549   4.301 -1.0721 -1.9487 -1.2499
 4990TIP3   OH236460   6.414   4.854   4.485  0.5558 -0.0803  0.0668
 4990TIP3    H136461   6.425   4.943   4.518 -1.6856 -0.0087  0.7992
 4990TIP3    H236462   6.478   4.803   4.533  3.6852  1.4147 -2.1471
 4991TIP3   OH236463   0.079   4.538   3.421 -0.1954 -0.3092  0.2473
 4991TIP3    H136464   0.134   4.540   3.343  1.1184 -2.2746  1.0292
 4991TIP3    H236465   0.136   4.566   3.492 -0.5641 -1.1102  0.8823
 4992TIP3   OH236466   0.254   1.299  13.000  0.0495  0.1854 -0.1980
 4992TIP3    H136467   0.179   1.346  12.964  0.0132  0.2607 -0.0249
 4992TIP3    H236468   0.237   1.207  12.978  0.1330  0.2552 -0.5575
 4993TIP3   OH236469   4.064   4.727   1.549 -0.3094 -0.4331  0.1242
 4993TIP3    H136470   4.008   4.790   1.593  0.5772  2.0911 -2.0819
 4993TIP3    H236471   4.005   4.656   1.523 -1.9134  0.7585  0.3756
 4994TIP3   OH236472   1.517   2.373   5.512 -0.1513  0.2869  0.3516
 4994TIP3    H136473   1.437   2.418   5.539  1.2592  3.2155 -0.0275
 4994TIP3    H236474   1.588   2.429   5.543  1.7330 -1.2537 -0.9551
 4995TIP3   OH236475   6.757   1.042   5.881 -0.1659  0.1626 -0.0099
 4995TIP3    H136476   6.770   0.948   5.892 -0.0363  0.3088  1.1372
 4995TIP3    H236477   6.742   1.052   5.786 -2.1573 -1.2602  0.0688
 4996TIP3   OH236478   1.885   1.254  16.006 -0.4192  0.5553 -0.5647
 4996TIP3    H136479   1.799   1.283  15.978 -0.4451  1.6321  0.5635
 4996TIP3    H236480   1.881   1.255  16.102  0.6333 -0.0482 -0.4966
 4997TIP3   OH236481   2.477   4.872  12.752  0.7784  0.1170  0.0078
 4997TIP3    H136482   2.445   4.782  12.759 -0.3161  0.4591 -0.4592
 4997TIP3    H236483   2.548   4.866  12.688  1.3803 -0.5749  0.7185
 4998TIP3   OH236484   2.540   2.960  11.314  0.1113  0.4540  0.3597
 4998TIP3    H136485   2.579   2.882  11.352 -0.2675  0.7108  1.2893
 4998TIP3    H236486   2.471   2.986  11.375 -0.1822  1.1562 -0.2492
 4999TIP3   OH236487   5.929   4.821   3.413 -0.2957 -0.2627 -0.5013
 4999TIP3    H136488   5.837   4.827   3.388 -1.0919  1.0163  2.3910
 4999TIP3    H236489   5.945   4.727   3.418 -1.5418 -0.5094 -0.6770
 5000TIP3   OH236490   4.610   0.104   2.686  0.3763 -0.5077 -0.2902
 5000TIP3    H136491   4.516   0.106   2.665  0.1793 -0.2411  0.5908
 5000TIP3    H236492   4.621   0.023   2.736  0.7584 -0.9009 -0.9875
 5001TIP3   OH236493   2.241   5.672  11.037  0.2468 -0.8359  0.3171
 5001TIP3    H136494   2.274   5.755  11.071  0.2842 -0.4665 -0.5892
 5001TIP3    H236495   2.146   5.684  11.035  0.3354  0.3655 -2.5703
 5002TIP3   OH236496   5.287   6.628  11.305  0.0405  0.1922 -0.0660
 5002TIP3    H136497   5.226   6.631  11.379 -0.6894 -1.3675 -0.5684
 5002TIP3    H236498   5.247   6.682  11.238 -0.3391 -0.0739 -0.0556
 5003TIP3   OH236499   4.122   4.076  10.355 -0.3756 -0.0113 -0.4615
 5003TIP3    H136500   4.153   4.160  10.389  1.0755 -0.2410 -1.1331
 5003TIP3    H236501   4.046   4.098  10.301  0.8886  1.1014 -1.8724
 5004TIP3   OH236502   0.060   0.794  11.820  0.6775 -0.5197 -0.1501
 5004TIP3    H136503  -0.014   0.853  11.833  0.2948 -1.4596  2.6289
 5004TIP3    H236504   0.132   0.836  11.867  0.4697 -2.0270  1.6303
 5005TIP3   OH236505   0.381   5.626  16.120  0.3837 -0.0727  0.7917
 5005TIP3    H136506   0.365   5.550  16.064 -1.0077  0.2317  0.7239
 5005TIP3    H236507   0.342   5.601  16.204  4.1582 -1.3371  2.3868
 5006TIP3   OH236508   4.925   5.143   1.809 -0.4345  0.3236 -0.4683
 5006TIP3    H136509   4.952   5.235   1.813 -1.6080  0.6667  0.1268
 5006TIP3    H236510   4.965   5.103   1.887 -0.9259  0.6282 -0.0513
 5007TIP3   OH236511   1.259   2.059   4.249  0.8543  0.1123  0.6816
 5007TIP3    H136512   1.279   2.152   4.242  0.1617  0.2190 -0.0215
 5007TIP3    H236513   1.164   2.054   4.237  0.9462 -0.7249  0.2416
 5008TIP3   OH236514   1.423   3.402  11.545  0.9935  0.0702 -0.0779
 5008TIP3    H136515   1.362   3.387  11.617  1.0947 -0.2472 -0.0555
 5008TIP3    H236516   1.372   3.450  11.480  0.5395 -0.7100 -0.3095
 5009TIP3   OH236517   1.732   2.676   4.446 -0.0409 -0.0621  0.0548
 5009TIP3    H136518   1.729   2.672   4.350 -1.1525  0.5699  0.0502
 5009TIP3    H236519   1.811   2.727   4.464  0.9048 -1.2886 -0.4663
 5010TIP3   OH236520   0.741   0.351   3.130 -0.4924  0.0802  0.1466
 5010TIP3    H136521   0.676   0.289   3.164 -0.4681 -0.3392 -0.5551
 5010TIP3    H236522   0.697   0.436   3.134 -1.5187 -0.3519 -1.3868
 5011TIP3   OH236523   4.676   6.038  11.664  0.0047  0.5898 -0.2224
 5011TIP3    H136524   4.704   6.048  11.756 -0.4548  1.1680 -0.1406
 5011TIP3    H236525   4.639   6.123  11.641 -0.6939  0.1710 -0.6728
 5012TIP3   OH236526   5.070   2.629   1.573  0.1732 -0.3535  0.1931
 5012TIP3    H136527   5.145   2.668   1.528  0.3802 -0.2045  0.6633
 5012TIP3    H236528   5.047   2.552   1.520  0.1094  0.0934 -0.4332
 5013TIP3   OH236529   2.471   4.167  11.210  0.0788  0.3360  0.0815
 5013TIP3    H136530   2.466   4.260  11.235  2.3635  0.4819  0.2519
 5013TIP3    H236531   2.382   4.134  11.220 -0.5829  2.2707  1.0133
 5014TIP3   OH236532   3.330   6.409  10.992 -0.2672  0.7250  0.5168
 5014TIP3    H136533   3.312   6.494  10.952 -1.1540 -0.0765 -0.8655
 5014TIP3    H236534   3.409   6.377  10.947 -0.1050  0.6956  0.8234
 5015TIP3   OH236535   4.455   6.158  12.217 -0.0094 -0.2567  0.2408
 5015TIP3    H136536   4.537   6.130  12.176  0.2776  1.1375 -0.1945
 5015TIP3    H236537   4.472   6.154  12.311  1.1859  1.6352  0.1633
 5016TIP3   OH236538   2.303   3.726  10.553  0.8720  0.0283 -1.0539
 5016TIP3    H136539   2.342   3.654  10.503 -1.3860 -1.3401 -0.9921
 5016TIP3    H236540   2.208   3.714  10.542  0.3978  2.7969 -0.7188
 5017TIP3   OH236541   5.714   5.999  15.169 -0.1255 -0.0914 -0.1926
 5017TIP3    H136542   5.803   6.024  15.146 -0.5157  1.5936 -0.0096
 5017TIP3    H236543   5.704   6.023  15.261 -0.4219 -1.3667  0.1363
 5018TIP3   OH236544   5.204   4.250   2.369 -0.0955 -0.6113  0.0750
 5018TIP3    H136545   5.296   4.227   2.379  0.7098  1.1272 -2.5462
 5018TIP3    H236546   5.191   4.262   2.275 -2.6244  0.7075  0.4848
 5019TIP3   OH236547   1.774   5.018   4.113 -0.1261  0.2873  0.6098
 5019TIP3    H136548   1.764   4.985   4.202 -0.1751  0.0479  0.5179
 5019TIP3    H236549   1.765   4.940   4.058 -2.3162  0.7070  0.2550
 5020TIP3   OH236550   0.294   3.469   5.945 -0.1670  0.0937 -0.3509
 5020TIP3    H136551   0.389   3.474   5.958  0.0078 -1.2461 -1.0080
 5020TIP3    H236552   0.269   3.558   5.918  0.3563  1.4354  2.9682
 5021TIP3   OH236553   0.645   6.480  12.643 -0.3139  0.0239  0.2642
 5021TIP3    H136554   0.603   6.450  12.563  2.1288 -0.7396 -0.8228
 5021TIP3    H236555   0.653   6.402  12.698 -1.7167  0.4879  1.1862
 5022TIP3   OH236556   0.678   4.891   2.189 -0.2223 -0.2022 -0.5071
 5022TIP3    H136557   0.716   4.856   2.108  1.4519  0.6757 -0.1612
 5022TIP3    H236558   0.700   4.984   2.187  2.8942 -0.6814  2.4446
 5023TIP3   OH236559   3.897   2.690   1.008 -0.2562  0.1796  0.0048
 5023TIP3    H136560   3.806   2.660   1.016 -0.4313  0.8129  0.4884
 5023TIP3    H236561   3.936   2.631   0.944 -1.4713  0.9205 -1.4924
 5024TIP3   OH236562   2.747   0.343  12.603  0.0355  0.1781 -0.3582
 5024TIP3    H136563   2.715   0.317  12.689 -1.9837 -1.4194 -1.5134
 5024TIP3    H236564   2.837   0.310  12.600  0.1722  0.3465  1.1289
 5025TIP3   OH236565   1.370   3.332   5.002 -0.2462 -0.0823  0.7902
 5025TIP3    H136566   1.388   3.317   4.909  1.3877 -2.9491  1.4464
 5025TIP3    H236567   1.456   3.340   5.042 -0.8999  0.2112  2.2037
 5026TIP3   OH236568   2.680   4.578  12.589 -0.2407  0.7362  0.1092
 5026TIP3    H136569   2.717   4.608  12.672 -0.9609  0.8972  0.3795
 5026TIP3    H236570   2.741   4.611  12.522 -1.0352  2.9434  0.3773
 5027TIP3   OH236571   1.405   0.241   3.843 -0.0467 -0.1703 -0.0713
 5027TIP3    H136572   1.407   0.314   3.905  0.7954  0.7093 -1.1081
 5027TIP3    H236573   1.361   0.171   3.891 -1.3224  1.1475  0.7912
 5028TIP3   OH236574   2.878   4.937  11.053  0.0333  0.7187  0.7495
 5028TIP3    H136575   2.973   4.928  11.046 -0.1957 -0.4242 -3.0669
 5028TIP3    H236576   2.864   5.026  11.085  2.3545  0.8446  1.5867
 5029TIP3   OH236577   5.312   3.355   4.634  0.3499 -0.3589 -0.2368
 5029TIP3    H136578   5.269   3.430   4.676  0.3513  0.3613 -1.4872
 5029TIP3    H236579   5.265   3.279   4.668  0.5201  0.1655  1.2614
 5030TIP3   OH236580   6.010   1.783   5.482  0.1253  0.0723  0.4438
 5030TIP3    H136581   5.963   1.844   5.425  0.0216  0.8098  1.2876
 5030TIP3    H236582   5.983   1.696   5.452  1.5519  0.3479 -1.8764
 5031TIP3   OH236583   2.027   5.161  12.819  0.4012  0.3150 -0.0723
 5031TIP3    H136584   1.970   5.092  12.785 -1.1428  1.4503  0.1122
 5031TIP3    H236585   2.116   5.129  12.803 -0.2667 -1.5604 -0.2667
 5032TIP3   OH236586   0.756   1.742  16.965 -0.0527  0.1612 -0.3960
 5032TIP3    H136587   0.717   1.777  16.885 -0.3548  1.7074  0.3971
 5032TIP3    H236588   0.750   1.813  17.028  0.8468 -0.7819  0.8041
 5033TIP3   OH236589   3.609   2.379  15.398  0.9495 -0.1169 -0.2821
 5033TIP3    H136590   3.631   2.383  15.491  0.0264 -0.2645 -0.0561
 5033TIP3    H236591   3.619   2.287  15.375 -1.9752 -0.7059  0.4738
 5034TIP3   OH236592   3.574   1.994  11.949 -0.6816  0.3458  0.0454
 5034TIP3    H136593   3.617   2.000  12.034  1.6193  1.2079 -1.0951
 5034TIP3    H236594   3.563   1.900  11.933  0.2279  0.1258  0.6580
 5035TIP3   OH236595   6.653   3.536   4.765  0.4119  0.5231  0.3277
 5035TIP3    H136596   6.746   3.554   4.751  0.6247 -0.9986 -0.4457
 5035TIP3    H236597   6.652   3.461   4.825 -0.3930  2.0722  2.3939
 5036TIP3   OH236598   2.498   3.184   3.210 -0.0839  0.1851 -0.5006
 5036TIP3    H136599   2.554   3.168   3.134  0.1565 -0.3463 -0.2176
 5036TIP3    H236600   2.510   3.277   3.229 -1.1194  0.6227 -1.8728
 5037TIP3   OH236601   2.729   6.313   4.080  0.1896  0.6097  0.5593
 5037TIP3    H136602   2.766   6.393   4.043  0.9340 -0.4451 -1.1396
 5037TIP3    H236603   2.637   6.334   4.097 -0.2170  1.2406 -1.9417
 5038TIP3   OH236604   4.577   4.976  10.941 -0.1441 -0.0583 -0.8596
 5038TIP3    H136605   4.628   4.938  10.869  1.6009  1.0865 -0.2850
 5038TIP3    H236606   4.582   5.070  10.927 -1.0358  0.1236 -0.0407
 5039TIP3   OH236607   4.991   5.822  15.497  0.0909 -0.1408 -0.2218
 5039TIP3    H136608   4.987   5.871  15.415  0.9466  2.1346  1.0049
 5039TIP3    H236609   5.066   5.860  15.544  0.3565 -2.1744  1.1334
 5040TIP3   OH236610   0.241   1.392  14.220  0.2557  0.2772  0.2336
 5040TIP3    H136611   0.247   1.313  14.273  0.8077  0.4191  0.3818
 5040TIP3    H236612   0.291   1.373  14.141 -1.4022 -0.3140 -0.7328
 5041TIP3   OH236613   5.283   2.730   1.417  0.5175 -0.3762 -0.0059
 5041TIP3    H136614   5.357   2.791   1.413  0.9415 -0.9147 -0.7866
 5041TIP3    H236615   5.324   2.644   1.428  0.0509 -0.7507 -1.0678
 5042TIP3   OH236616   2.607   6.805  14.907 -0.1350  0.1812 -0.4092
 5042TIP3    H136617   2.572   6.824  14.820  0.7512 -0.6788 -0.9750
 5042TIP3    H236618   2.658   6.724  14.895 -0.1193 -0.0290  0.9379
 5043TIP3   OH236619   4.908   6.527   0.576  0.7171  0.4085  0.1360
 5043TIP3    H136620   4.824   6.567   0.554 -0.0099 -1.1705 -0.1361
 5043TIP3    H236621   4.903   6.509   0.670  0.5741 -0.0456  0.0456
 5044TIP3   OH236622   5.647   6.261   4.855  0.4092 -1.0366  0.5893
 5044TIP3    H136623   5.691   6.272   4.771  0.6994 -2.5136  0.5164
 5044TIP3    H236624   5.593   6.339   4.865  1.3160 -0.2604 -0.3855
 5045TIP3   OH236625   1.667   3.938   6.160 -0.2113 -0.2599  0.1461
 5045TIP3    H136626   1.577   3.918   6.184 -0.0324 -1.1991  0.0723
 5045TIP3    H236627   1.660   4.004   6.091 -0.8153  0.1153  0.5585
 5046TIP3   OH236628   6.411   6.197   4.732  0.8771  0.8735  0.0596
 5046TIP3    H136629   6.317   6.192   4.719  0.8870  1.9611 -0.6080
 5046TIP3    H236630   6.440   6.264   4.670  1.9593  1.2349  0.9224
 5047TIP3   OH236631   4.941   4.591   4.130  0.0830 -0.0167  0.0822
 5047TIP3    H136632   4.900   4.675   4.148 -1.7271 -0.1657 -2.6837
 5047TIP3    H236633   4.991   4.570   4.209 -0.4196  3.0235  1.3145
 5048TIP3   OH236634   5.799   1.872  17.110  0.2692  1.0225 -0.1440
 5048TIP3    H136635   5.823   1.884  17.018 -0.6576  0.6455 -0.4534
 5048TIP3    H236636   5.743   1.794  17.109  2.6655 -0.8323  1.1635
 5049TIP3   OH236637   6.564   5.106   5.335  0.5241 -0.2016  0.5771
 5049TIP3    H136638   6.646   5.154   5.341  0.3721  0.4591 -1.5403
 5049TIP3    H236639   6.585   5.027   5.286 -0.4842  1.3059 -2.5828
 5050TIP3   OH236640   3.138   3.836  15.011 -0.0562 -0.0132 -0.2168
 5050TIP3    H136641   3.093   3.762  15.053  0.2265  0.2514  0.5630
 5050TIP3    H236642   3.208   3.859  15.072  1.5985 -0.8608 -1.7418
 5051TIP3   OH236643   0.359   5.841   4.449 -0.1493 -0.0351 -0.2667
 5051TIP3    H136644   0.344   5.909   4.383 -0.7298  0.2465  0.1402
 5051TIP3    H236645   0.322   5.762   4.410 -2.0531  0.4723  0.3623
 5052TIP3   OH236646   6.572   0.507   3.829 -0.1157  0.3742  0.1228
 5052TIP3    H136647   6.576   0.489   3.735 -0.9980  0.3458  0.0854
 5052TIP3    H236648   6.561   0.602   3.835 -2.0777  0.1969  0.1113
 5053TIP3   OH236649   2.024   0.694  15.906  0.2300  0.1737  0.5671
 5053TIP3    H136650   1.979   0.679  15.989 -0.0321 -0.0410  0.3871
 5053TIP3    H236651   1.954   0.711  15.843  0.4165  0.1420  0.3498
 5054TIP3   OH236652   1.839   3.230   3.609  0.1883  0.2707 -0.1858
 5054TIP3    H136653   1.787   3.270   3.540  0.4443  0.4315 -0.2882
 5054TIP3    H236654   1.795   3.147   3.629  1.6101 -1.1624 -2.4960
 5055TIP3   OH236655   2.388   1.081  16.491  0.0153  0.6314 -0.1435
 5055TIP3    H136656   2.444   1.154  16.466 -0.2259  1.6262  1.9973
 5055TIP3    H236657   2.448   1.018  16.533 -0.0324  0.3336 -0.5126
 5056TIP3   OH236658   6.493   3.006   0.172  0.4528 -0.3811 -0.0965
 5056TIP3    H136659   6.468   2.919   0.202 -0.6333  0.0280  0.2381
 5056TIP3    H236660   6.462   3.009   0.081 -1.6830  0.4424  0.5837
 5057TIP3   OH236661   0.958   4.466  10.672 -0.6172 -0.4993  0.1090
 5057TIP3    H136662   1.002   4.381  10.670 -1.4370 -0.9333 -0.0228
 5057TIP3    H236663   0.891   4.457  10.739  0.7607  0.8241  1.7362
 5058TIP3   OH236664   0.719   3.080  16.564  0.4396  0.7099 -0.2120
 5058TIP3    H136665   0.772   3.104  16.640  0.3873 -1.5814  0.6252
 5058TIP3    H236666   0.762   3.123  16.490  1.8800  1.0800  0.8000
 5059TIP3   OH236667   0.006   2.625  15.947  0.2879  0.1357  0.5590
 5059TIP3    H136668  -0.020   2.654  16.035 -0.6186  0.1769  0.2918
 5059TIP3    H236669   0.095   2.657  15.936  0.8713 -0.9327  1.9404
 5060TIP3   OH236670   1.642   3.596  12.335  0.3790 -0.2957 -0.1020
 5060TIP3    H136671   1.629   3.613  12.242 -1.5594  0.7542  0.2927
 5060TIP3    H236672   1.638   3.501  12.343 -0.7902 -0.3409 -0.9450
 5061TIP3   OH236673   4.991   6.769   3.131 -0.4023 -0.4745 -0.3176
 5061TIP3    H136674   5.062   6.775   3.067 -0.7755 -0.3586 -0.7303
 5061TIP3    H236675   4.988   6.856   3.171 -1.0195 -0.1262 -1.0829
 5062TIP3   OH236676   4.890   6.253   1.532  0.1986  0.0807 -0.0115
 5062TIP3    H136677   4.892   6.326   1.471  1.5538 -0.2570 -0.4095
 5062TIP3    H236678   4.958   6.273   1.597 -0.9671  0.2558  1.2044
 5063TIP3   OH236679   1.251   2.490   4.945  0.0531  0.9254  0.1590
 5063TIP3    H136680   1.253   2.507   4.850  0.1740 -0.1833 -0.0460
 5063TIP3    H236681   1.303   2.411   4.956  0.6629  1.4601  1.2600
 5064TIP3   OH236682   1.992   0.032  10.846 -0.1723 -0.4271 -0.0101
 5064TIP3    H136683   2.062   0.003  10.788  0.6844 -0.4842  1.0383
 5064TIP3    H236684   1.924  -0.035  10.836  0.7604 -1.4840  0.4913
 5065TIP3   OH236685   4.909   6.353  16.001  0.8427 -0.1557 -0.1950
 5065TIP3    H136686   4.941   6.418  15.938 -0.5164  0.4716 -0.2701
 5065TIP3    H236687   4.927   6.269  15.959  0.4341  0.2389 -1.1842
 5066TIP3   OH236688   3.173   4.118  16.216 -0.5438 -0.1869  0.2566
 5066TIP3    H136689   3.230   4.066  16.160  0.3368  2.3041 -1.3264
 5066TIP3    H236690   3.086   4.080  16.205  0.1317 -1.6104 -0.3882
 5067TIP3   OH236691   1.831   6.105   1.816 -0.0554  0.8949  0.4366
 5067TIP3    H136692   1.852   6.161   1.891  0.6607  1.7854 -0.3937
 5067TIP3    H236693   1.894   6.131   1.749 -0.3162 -0.2795 -0.2883
 5068TIP3   OH236694   1.904   0.672   6.537 -0.0015  0.2169 -0.0128
 5068TIP3    H136695   1.836   0.674   6.469  1.4325  0.5578 -1.5009
 5068TIP3    H236696   1.870   0.728   6.606 -1.0372  0.7518 -0.9185
 5069TIP3   OH236697   4.091   5.345   1.707  0.0307 -0.1236  0.5788
 5069TIP3    H136698   4.102   5.284   1.633  3.9620 -0.0332  0.8516
 5069TIP3    H236699   4.066   5.428   1.666  2.0215 -0.1005 -0.7774
 5070TIP3   OH236700   5.969   2.602   4.209  0.0926  0.1718 -0.1033
 5070TIP3    H136701   5.983   2.559   4.125  0.7957  0.1594  0.0151
 5070TIP3    H236702   5.947   2.693   4.187  0.3076  0.1759 -0.2962
 5071TIP3   OH236703   6.347   1.945  15.966 -0.5830  0.0543  0.2447
 5071TIP3    H136704   6.277   1.887  15.996 -0.0198  0.1729  1.8882
 5071TIP3    H236705   6.390   1.974  16.047  1.0297  0.3999 -0.7047
 5072TIP3   OH236706   5.911   1.469   4.496  0.0266  0.6183 -0.3693
 5072TIP3    H136707   5.927   1.561   4.474 -1.1668  0.9458  0.0361
 5072TIP3    H236708   5.988   1.443   4.547 -0.2181  1.8125  0.6738
 5073TIP3   OH236709   1.424   5.862  14.270  0.7477 -0.6577  0.3948
 5073TIP3    H136710   1.443   5.953  14.295 -1.0049 -0.2788  0.5034
 5073TIP3    H236711   1.458   5.854  14.181 -2.6189  1.4829 -1.3221
 5074TIP3   OH236712   6.154   5.980  16.620 -0.2987  0.3441 -0.1049
 5074TIP3    H136713   6.077   5.929  16.594 -2.7602  4.2171 -1.4217
 5074TIP3    H236714   6.187   6.017  16.538 -0.1023  2.5947  0.9190
 5075TIP3   OH236715   3.212   2.175  13.656  0.2684 -0.2187  0.7879
 5075TIP3    H136716   3.291   2.228  13.648 -0.8244  1.1419 -3.2573
 5075TIP3    H236717   3.198   2.167  13.750  3.5722  1.9260  1.6291
 5076TIP3   OH236718   0.292   5.260   1.546  0.1031  0.2973 -0.2418
 5076TIP3    H136719   0.287   5.337   1.489  1.1364 -0.0113 -0.7867
 5076TIP3    H236720   0.359   5.283   1.610  0.5839 -0.2127 -0.5441
 5077TIP3   OH236721   1.506   3.482   2.422  0.1527 -0.2155 -0.3468
 5077TIP3    H136722   1.416   3.511   2.410  0.1516  1.2179  2.4943
 5077TIP3    H236723   1.559   3.561   2.406  0.8834 -0.8270 -1.0894
 5078TIP3   OH236724   6.625   3.544   0.174  0.2730 -0.3684  0.3017
 5078TIP3    H136725   6.638   3.462   0.127  0.1472  0.4886 -1.2862
 5078TIP3    H236726   6.533   3.566   0.160 -0.0531 -0.6097  1.8584
 5079TIP3   OH236727   6.380   0.447  13.151 -0.2679 -0.0836 -0.4854
 5079TIP3    H136728   6.320   0.400  13.094 -0.4274 -0.2458 -0.1827
 5079TIP3    H236729   6.461   0.455  13.100  0.5366 -2.6208  0.2386
 5080TIP3   OH236730   4.390   5.853  13.601  0.1925  0.1694  0.2865
 5080TIP3    H136731   4.366   5.917  13.668  0.3731  0.7659 -0.2155
 5080TIP3    H236732   4.321   5.860  13.536  1.6211  1.8594 -1.1482
 5081TIP3   OH236733   1.283   4.086   3.200 -0.2654 -0.1706  0.3279
 5081TIP3    H136734   1.269   4.180   3.214  0.2903 -0.1057  0.4404
 5081TIP3    H236735   1.361   4.065   3.252 -1.5591 -1.1089  2.0148
 5082TIP3   OH236736   1.120   4.659   2.626 -0.4002 -0.4475  0.8267
 5082TIP3    H136737   1.168   4.634   2.546 -0.6324 -1.0212  0.8589
 5082TIP3    H236738   1.039   4.698   2.594 -0.0855  0.1751  0.7760
 5083TIP3   OH236739   0.861   4.732   1.241 -0.2052  0.3993  0.6995
 5083TIP3    H136740   0.927   4.780   1.190 -1.7180 -0.3894 -2.2084
 5083TIP3    H236741   0.778   4.772   1.218 -1.1362 -1.1193  1.2484
 5084TIP3   OH236742   1.637   4.391   3.721 -0.4887  0.5012 -0.2062
 5084TIP3    H136743   1.573   4.455   3.751  0.8754  1.6178  0.4691
 5084TIP3    H236744   1.721   4.424   3.754  0.4765 -0.7390 -1.2960
 5085TIP3   OH236745   2.843   5.769   2.044  0.2303 -0.2135 -1.2400
 5085TIP3    H136746   2.849   5.674   2.032  1.8399 -0.6569  2.0367
 5085TIP3    H236747   2.785   5.780   2.119  0.2298  1.4170 -1.4473
 5086TIP3   OH236748   0.933   2.742   1.377 -0.0572 -0.1614 -0.0578
 5086TIP3    H136749   0.875   2.812   1.348  0.2131  1.1478  2.3530
 5086TIP3    H236750   1.015   2.786   1.400  0.7569 -1.5314 -0.2105
 5087TIP3   OH236751   5.972   5.742  17.105  0.3492 -0.4253 -0.7217
 5087TIP3    H136752   5.887   5.759  17.065 -0.1390 -1.9463 -0.3853
 5087TIP3    H236753   6.034   5.789  17.049 -0.6970  0.8203 -0.8894
 5088TIP3   OH236754   1.604   6.540  16.090  0.3650 -0.4869  0.5515
 5088TIP3    H136755   1.624   6.448  16.074  1.2338 -0.8260  3.2170
 5088TIP3    H236756   1.582   6.575  16.003  1.6181 -2.7881 -0.7809
 5089TIP3   OH236757   2.312   1.882  11.798 -0.2247  0.2501  0.1181
 5089TIP3    H136758   2.293   1.971  11.826 -3.0767  0.4824 -2.0238
 5089TIP3    H236759   2.367   1.893  11.720 -1.6396  0.2516 -0.9035
 5090TIP3   OH236760   3.176   6.009  14.485  0.2497  0.2794 -0.6761
 5090TIP3    H136761   3.151   5.983  14.573 -0.0500  1.1472 -0.4981
 5090TIP3    H236762   3.156   5.932  14.431  1.2714 -0.5880  0.1339
 5091TIP3   OH236763   2.645   0.728  14.319 -0.1190  0.2961 -0.1519
 5091TIP3    H136764   2.657   0.635  14.300 -1.2418  0.1408 -0.1450
 5091TIP3    H236765   2.667   0.773  14.236  0.0333 -0.0020 -0.2728
 5092TIP3   OH236766   4.230   1.204  11.927  0.2956 -0.0087  0.4647
 5092TIP3    H136767   4.314   1.198  11.882  0.5631 -1.5712  1.0763
 5092TIP3    H236768   4.237   1.281  11.983  1.7311 -0.6819  1.2516
 5093TIP3   OH236769   1.265   6.336   2.395 -0.2297  0.8896 -0.1901
 5093TIP3    H136770   1.290   6.294   2.313 -0.0251  2.1467 -0.8071
 5093TIP3    H236771   1.331   6.403   2.409 -0.3536  0.8057  0.9296
 5094TIP3   OH236772   0.027   1.235   0.207  0.3022 -0.4855  0.0020
 5094TIP3    H136773   0.109   1.216   0.254 -0.3487 -2.4996  0.4351
 5094TIP3    H236774   0.043   1.204   0.118  0.3291  0.0313 -0.1763
 5095TIP3   OH236775   2.197   1.739   2.879  0.5077  0.4700 -0.0329
 5095TIP3    H136776   2.117   1.692   2.901  0.3914  1.7033  2.5738
 5095TIP3    H236777   2.268   1.682   2.909  0.4290  1.0560  1.3359
 5096TIP3   OH236778   2.078   5.574   3.817  0.3781 -0.1194 -0.4607
 5096TIP3    H136779   2.169   5.546   3.814  0.4268 -0.0864  0.4369
 5096TIP3    H236780   2.058   5.582   3.910 -0.5101 -0.0143 -0.6483
 5097TIP3   OH236781   6.588   0.713   2.302 -0.2736 -0.4997  0.1929
 5097TIP3    H136782   6.495   0.701   2.322 -0.6306  2.1075  0.5531
 5097TIP3    H236783   6.633   0.689   2.382 -0.5910 -2.0324 -0.0657
 5098TIP3   OH236784   0.580   1.297   3.692 -0.0077  0.0375 -0.6425
 5098TIP3    H136785   0.546   1.228   3.748 -0.4858 -0.5836 -1.6612
 5098TIP3    H236786   0.558   1.268   3.603  0.5963  1.0581 -1.1388
 5099TIP3   OH236787   4.651   0.071  12.873  0.9643 -0.5324 -0.4934
 5099TIP3    H136788   4.594  -0.004  12.891 -0.1835 -0.0863 -2.0893
 5099TIP3    H236789   4.609   0.117  12.801  1.9682  1.3208  0.0287
 5100TIP3   OH236790   6.131   2.708  16.039 -0.0616  0.6437 -0.2013
 5100TIP3    H136791   6.047   2.676  16.007  1.0955 -4.6554  1.0502
 5100TIP3    H236792   6.112   2.746  16.125 -1.3582  1.3195 -0.7683
 5101TIP3   OH236793   1.018   2.971  15.116  0.3055  0.0195 -0.1664
 5101TIP3    H136794   0.925   2.950  15.110  0.0452  1.3688 -1.3095
 5101TIP3    H236795   1.062   2.903  15.065 -0.2509  0.5152 -1.3429
 5102TIP3   OH236796   3.767   0.818   0.784  0.5847  0.1700  0.1024
 5102TIP3    H136797   3.753   0.867   0.865 -1.8935 -1.3570  0.6993
 5102TIP3    H236798   3.801   0.734   0.813 -0.1949 -0.3394 -0.4442
 5103TIP3   OH236799   3.478   3.317  12.649 -0.0781  0.6464 -0.2334
 5103TIP3    H136800   3.519   3.379  12.709  0.1204  0.1988  0.1005
 5103TIP3    H236801   3.384   3.322  12.668  0.2018 -1.6984  2.2964
 5104TIP3   OH236802   1.535   4.374  11.766 -0.2956  0.2139  0.3663
 5104TIP3    H136803   1.554   4.304  11.703 -1.3974 -1.1262  1.4533
 5104TIP3    H236804   1.449   4.407  11.740 -0.8533 -0.4915  1.2462
 5105TIP3   OH236805   2.756   6.234   6.018 -0.3707  0.0835 -0.4851
 5105TIP3    H136806   2.823   6.188   6.069  0.5145 -0.9981 -2.5201
 5105TIP3    H236807   2.693   6.264   6.084  1.3450 -0.0979  1.3677
 5106TIP3   OH236808   5.253   3.297  12.291  0.2337  0.1363  0.2705
 5106TIP3    H136809   5.282   3.227  12.232  0.4024  1.4985 -1.3471
 5106TIP3    H236810   5.172   3.330  12.251  1.1729  2.1164 -0.1004
 5107TIP3   OH236811   3.522   1.717   6.056 -0.2284 -0.5190 -0.0968
 5107TIP3    H136812   3.557   1.696   6.142 -1.6443 -0.2594  0.5667
 5107TIP3    H236813   3.427   1.710   6.066 -0.5601  1.7593 -0.9946
 5108TIP3   OH236814   5.923   1.505   6.470  0.3729 -0.8557 -0.0758
 5108TIP3    H136815   6.010   1.497   6.507  0.5439 -1.2945 -0.5529
 5108TIP3    H236816   5.871   1.548   6.538  0.8773 -0.8962  0.3379
 5109TIP3   OH236817   1.573   0.395  16.034 -0.8734  0.3192 -0.3551
 5109TIP3    H136818   1.532   0.471  16.075  0.6646  0.0945  1.7335
 5109TIP3    H236819   1.544   0.320  16.086 -2.0904 -0.5679 -2.1708
 5110TIP3   OH236820   6.320   1.817  11.960  0.0019  0.3909  0.3753
 5110TIP3    H136821   6.361   1.844  11.878 -0.4591  0.7029  0.2421
 5110TIP3    H236822   6.288   1.899  11.999 -0.1124  0.2028  0.6842
 5111TIP3   OH236823   2.345   1.593   4.549  0.2152  0.4601  0.3953
 5111TIP3    H136824   2.334   1.654   4.476  0.0697  0.3696  0.3400
 5111TIP3    H236825   2.378   1.647   4.621  0.7497  0.4736  0.1409
 5112TIP3   OH236826   2.768   2.161  15.614  0.2032 -0.0170 -0.2643
 5112TIP3    H136827   2.854   2.179  15.577  0.8153  0.1185  1.1433
 5112TIP3    H236828   2.773   2.071  15.645  0.9237  0.8532  2.4752
 5113TIP3   OH236829   0.711   0.095   0.071  0.0578  0.4480 -0.2799
 5113TIP3    H136830   0.719   0.049   0.154 -1.2919  0.1848 -0.2759
 5113TIP3    H236831   0.621   0.128   0.070  0.4431  1.5306 -1.0864
 5114TIP3   OH236832   5.157   2.993   4.115 -0.1499 -0.0175  0.2229
 5114TIP3    H136833   5.087   3.040   4.160 -1.4916 -1.7542  0.0181
 5114TIP3    H236834   5.188   2.929   4.178 -0.8543 -1.2974 -0.6883
 5115TIP3   OH236835   3.223   2.891   5.199 -0.0494  0.2719  0.4937
 5115TIP3    H136836   3.239   2.922   5.110 -2.4035 -0.7214 -0.3459
 5115TIP3    H236837   3.248   2.965   5.254  1.4745  0.9112 -0.9408
 5116TIP3   OH236838   4.786   3.724  12.904  0.1599 -0.4229 -0.0342
 5116TIP3    H136839   4.766   3.706  12.996  0.6793  3.2873  0.9772
 5116TIP3    H236840   4.877   3.694  12.893 -0.6430 -3.0871 -0.1522
 5117TIP3   OH236841   6.705   5.608   4.959  0.4254 -0.0987 -0.5589
 5117TIP3    H136842   6.629   5.601   4.902 -0.6080 -1.0892  0.8743
 5117TIP3    H236843   6.681   5.673   5.024  1.2677  0.4069 -0.7333
 5118TIP3   OH236844   2.057   2.002   0.926 -0.6098 -0.1359  0.3304
 5118TIP3    H136845   2.146   1.976   0.948 -0.1776  0.7028 -0.3392
 5118TIP3    H236846   2.003   1.969   0.997  0.3473  0.0331  1.1532
 5119TIP3   OH236847   6.734   6.308   4.647 -0.6630 -0.1715 -0.0880
 5119TIP3    H136848   6.811   6.342   4.601  0.7592 -1.0883  1.4858
 5119TIP3    H236849   6.683   6.385   4.671  1.4891  0.7701  1.7335
 5120TIP3   OH236850   4.619   3.121   4.448  0.1967 -0.1597  0.2707
 5120TIP3    H136851   4.539   3.172   4.437 -1.2024 -2.3894 -0.6896
 5120TIP3    H236852   4.688   3.173   4.407 -0.8952  1.4722  0.4346
 5121TIP3   OH236853   4.341   1.790   1.779 -0.2304  0.0881  0.0320
 5121TIP3    H136854   4.347   1.771   1.873 -0.5862  0.2184  0.0810
 5121TIP3    H236855   4.357   1.885   1.773 -1.2795  0.2721  0.0699
 5122TIP3   OH236856   3.679   1.310   1.811 -0.6777 -0.6361 -0.5265
 5122TIP3    H136857   3.595   1.286   1.772 -1.1688  0.7599 -0.3900
 5122TIP3    H236858   3.744   1.261   1.761 -1.4555 -0.4837 -1.7201
 5123TIP3   OH236859   3.325   4.634  16.249  0.4259 -0.3121 -0.7373
 5123TIP3    H136860   3.350   4.586  16.170 -0.7490  0.8570 -1.8924
 5123TIP3    H236861   3.364   4.721  16.238  0.4397 -0.2074  0.0821
 5124TIP3   OH236862   5.908   3.828  15.442 -0.7227  0.0131  0.1437
 5124TIP3    H136863   5.846   3.798  15.377 -1.4097 -0.0887  0.8324
 5124TIP3    H236864   5.926   3.919  15.417  1.3664 -0.8824 -1.9379
 5125TIP3   OH236865   4.209   2.541   4.522 -0.1909  0.5114 -0.0437
 5125TIP3    H136866   4.117   2.538   4.496  0.0070 -1.1708 -0.7100
 5125TIP3    H236867   4.256   2.557   4.440  0.1414  0.9649  0.2301
 5126TIP3   OH236868   4.605   1.742   1.029  0.2232 -0.0863 -0.2939
 5126TIP3    H136869   4.533   1.679   1.032  0.7857 -0.7114  0.7344
 5126TIP3    H236870   4.660   1.712   0.957 -0.2626  0.0897 -0.7458
 5127TIP3   OH236871   6.608   6.751   5.772 -0.4177  0.1641  0.0836
 5127TIP3    H136872   6.570   6.663   5.767 -0.7357  0.2961  0.1320
 5127TIP3    H236873   6.617   6.767   5.866  0.6498 -0.2394  0.0655
 5128TIP3   OH236874   6.554   5.374  13.094 -0.9025  0.1914  0.0947
 5128TIP3    H136875   6.597   5.334  13.169  1.6683  1.1438 -0.7751
 5128TIP3    H236876   6.506   5.448  13.131  1.8963  1.8292  0.6955
 5129TIP3   OH236877   0.182   5.043   5.696  0.2642 -0.1645 -0.0964
 5129TIP3    H136878   0.263   5.079   5.662  1.3452 -1.2186  1.2302
 5129TIP3    H236879   0.192   4.948   5.685 -0.4153 -0.3596  0.8349
 5130TIP3   OH236880   3.148   0.330   5.808 -0.4261  0.1672 -0.3814
 5130TIP3    H136881   3.153   0.333   5.904 -1.0079 -2.3286 -0.2038
 5130TIP3    H236882   3.132   0.420   5.783  0.9891  1.1192  1.7681
 5131TIP3   OH236883   4.828   1.664  17.135 -0.0257  0.0681  0.4877
 5131TIP3    H136884   4.761   1.595  17.140 -0.4630  0.3415 -1.0421
 5131TIP3    H236885   4.899   1.632  17.190 -0.9172 -0.8008  1.1825
 5132TIP3   OH236886   2.011   2.051  15.315  0.3588  0.1826  0.0288
 5132TIP3    H136887   2.099   2.033  15.350  0.5801  0.8285 -0.1682
 5132TIP3    H236888   1.989   2.137  15.353 -0.6105 -0.4264  0.8787
 5133TIP3   OH236889   0.748   3.882   1.430 -0.0627  0.0213 -0.0718
 5133TIP3    H136890   0.814   3.942   1.396 -0.4772 -0.8019 -2.4816
 5133TIP3    H236891   0.668   3.933   1.434 -0.3864 -0.2571 -2.0011
 5134TIP3   OH236892   4.037   5.642  16.304  0.1550  0.5201  0.0457
 5134TIP3    H136893   4.058   5.582  16.376  2.5571  0.2138 -0.8066
 5134TIP3    H236894   3.982   5.590  16.246  1.4820 -0.6207 -0.2524
 5135TIP3   OH236895   2.251   4.086   1.114  0.0045 -0.4049 -0.0749
 5135TIP3    H136896   2.298   4.009   1.086  0.4898 -0.4006  0.6903
 5135TIP3    H236897   2.319   4.151   1.132 -0.4246  0.3992 -1.2560
 5136TIP3   OH236898   0.282   2.783   4.822 -0.2375  0.1368  0.2899
 5136TIP3    H136899   0.228   2.715   4.781  1.6541 -1.4893  0.3842
 5136TIP3    H236900   0.349   2.735   4.870 -0.3243  2.0515  2.5062
 5137TIP3   OH236901   0.854   2.933   3.671  0.3933 -0.8083  0.7406
 5137TIP3    H136902   0.862   2.889   3.586 -1.0947 -0.7065  0.5291
 5137TIP3    H236903   0.761   2.955   3.679  1.0829  2.7969  0.5907
 5138TIP3   OH236904   0.206   6.026  15.446  0.1496 -0.1234  0.2824
 5138TIP3    H136905   0.245   5.940  15.435 -0.6950 -0.5082  0.2435
 5138TIP3    H236906   0.120   6.019  15.406 -0.0032  0.6821  0.4521
 5139TIP3   OH236907   0.764   3.233   0.664 -0.0092  0.2575  0.2253
 5139TIP3    H136908   0.713   3.295   0.717 -0.9291  0.5325 -0.9256
 5139TIP3    H236909   0.803   3.173   0.728  0.7799  1.8987  1.3649
 5140TIP3   OH236910   5.592   1.687  16.508  0.1300 -0.1335 -0.4463
 5140TIP3    H136911   5.557   1.619  16.565 -0.4726 -0.4051 -1.1211
 5140TIP3    H236912   5.578   1.769  16.556 -0.2987 -0.3650 -0.1750
 5141TIP3   OH236913   1.599   0.078   2.478  0.1147  0.3596  0.2571
 5141TIP3    H136914   1.656   0.028   2.537  1.3673 -0.1029 -1.2749
 5141TIP3    H236915   1.600   0.028   2.397 -3.7775 -0.5143  0.5752
 5142TIP3   OH236916   5.743   4.036  13.595 -0.7428  0.2477  0.2892
 5142TIP3    H136917   5.805   4.054  13.666  1.9262 -2.9774 -0.9441
 5142TIP3    H236918   5.682   3.973  13.632  0.4096 -1.1256 -0.0420
 5143TIP3   OH236919   3.463   5.788  10.923  0.3130 -0.7017  0.6077
 5143TIP3    H136920   3.499   5.718  10.869  0.8827  0.1119 -0.0941
 5143TIP3    H236921   3.533   5.852  10.929 -1.1159  1.1861 -1.2235
 5144TIP3   OH236922   5.695   3.656  12.233 -0.0360  0.4960 -0.2556
 5144TIP3    H136923   5.665   3.600  12.162  1.9406 -0.9085 -0.0691
 5144TIP3    H236924   5.668   3.611  12.312  2.5371 -0.9168 -0.0799
 5145TIP3   OH236925   5.040   1.368   5.883  0.6030 -0.5826 -0.7432
 5145TIP3    H136926   4.978   1.419   5.832  0.6662  0.0940 -0.1651
 5145TIP3    H236927   4.986   1.309   5.936  0.5720 -2.0188 -2.3121
 5146TIP3   OH236928   5.128   5.271  11.797  0.0030 -0.1925  0.1706
 5146TIP3    H136929   5.096   5.181  11.788  0.5976 -0.4037  0.0926
 5146TIP3    H236930   5.206   5.274  11.742 -0.2777  0.5115 -0.1881
 5147TIP3   OH236931   3.902   4.042   6.049  0.3350  0.0295  0.2153
 5147TIP3    H136932   3.954   3.961   6.055  0.9402  0.4707  1.2980
 5147TIP3    H236933   3.866   4.041   5.961  0.3175 -1.4366  0.2123
 5148TIP3   OH236934   1.951   3.973   2.684 -0.2257 -0.0393 -0.1162
 5148TIP3    H136935   2.012   4.036   2.723 -1.1680  0.0039  1.3170
 5148TIP3    H236936   1.904   3.935   2.758 -1.5460 -0.4990 -1.1593
 5149TIP3   OH236937   3.013   6.582  13.616 -0.2938  0.0689 -0.0932
 5149TIP3    H136938   2.920   6.603  13.624 -0.6293 -1.5421  0.5175
 5149TIP3    H236939   3.025   6.505  13.672  1.2833 -0.1168 -0.6499
 5150TIP3   OH236940   2.876   0.397  13.413  0.1526  0.5689  0.1019
 5150TIP3    H136941   2.868   0.416  13.506 -0.2629  0.3504  0.1116
 5150TIP3    H236942   2.836   0.472  13.370  0.0821  0.5349  0.1071
 5151TIP3   OH236943   6.100   1.533  14.853 -0.5486 -0.4300  0.2109
 5151TIP3    H136944   6.098   1.450  14.806 -1.2850  0.2852 -1.0674
 5151TIP3    H236945   6.159   1.589  14.803 -0.5810  0.0396  0.6804
 5152TIP3   OH236946   5.303   4.314  13.165  0.0807  0.4869 -0.0755
 5152TIP3    H136947   5.222   4.272  13.133 -0.2760 -0.7803  2.2562
 5152TIP3    H236948   5.283   4.337  13.256  2.5581 -0.5631  0.8130
 5153TIP3   OH236949   3.086   3.972  13.252  0.4536 -0.4904  0.4993
 5153TIP3    H136950   3.172   3.964  13.211 -0.4542  0.4934 -1.7971
 5153TIP3    H236951   3.024   3.956  13.180 -1.2621  1.4122  1.4529
 5154TIP3   OH236952   5.427   3.242  17.073  0.1136  0.2572  0.0400
 5154TIP3    H136953   5.411   3.150  17.057 -1.9356  0.3686  1.1489
 5154TIP3    H236954   5.363   3.288  17.019  1.0865  1.0625 -0.4725
 5155TIP3   OH236955   4.046   5.320  12.947  0.1925  0.1357  0.2115
 5155TIP3    H136956   3.985   5.252  12.974 -1.2213  1.2832  0.0235
 5155TIP3    H236957   4.131   5.291  12.981 -0.5276 -1.2651  0.8960
 5156TIP3   OH236958   6.806   0.821   3.035  0.2036  0.1296  0.0681
 5156TIP3    H136959   6.824   0.909   3.065  0.4592  0.0696  0.0908
 5156TIP3    H236960   6.741   0.787   3.097  0.5166  0.1057  0.3808
 5157TIP3   OH236961   5.429   3.163  12.092  0.2491  0.2405 -0.1308
 5157TIP3    H136962   5.495   3.219  12.050 -1.0207  1.1982 -0.9310
 5157TIP3    H236963   5.353   3.168  12.034 -0.6527 -0.5783  0.9292
 5158TIP3   OH236964   2.052   1.811   3.487 -0.2028  0.0333 -0.2163
 5158TIP3    H136965   1.972   1.758   3.485 -0.3374  0.1402  1.0909
 5158TIP3    H236966   2.122   1.750   3.466 -0.6018 -0.0878 -1.2584
 5159TIP3   OH236967   6.220   2.133   1.525 -0.3615  0.8949 -0.0434
 5159TIP3    H136968   6.242   2.067   1.591 -0.2511  1.4048  0.4380
 5159TIP3    H236969   6.250   2.216   1.564 -1.8772  1.4316  0.0284
 5160TIP3   OH236970   1.794   4.637   5.420  0.2675  0.0749 -0.0666
 5160TIP3    H136971   1.797   4.632   5.325 -0.7764 -1.4541 -0.0618
 5160TIP3    H236972   1.871   4.688   5.445 -0.0293  1.4375 -1.7700
 5161TIP3   OH236973   3.450   5.852   3.922 -0.0587 -0.5603 -0.1468
 5161TIP3    H136974   3.422   5.763   3.904  0.4734 -0.6096 -0.7357
 5161TIP3    H236975   3.493   5.881   3.842  0.3481 -0.0028  0.2648
 5162TIP3   OH236976   0.949   4.981  13.588  0.4015 -0.2908 -0.5146
 5162TIP3    H136977   1.008   4.906  13.601  2.5113  1.6085  1.8541
 5162TIP3    H236978   1.000   5.042  13.535 -1.1844 -0.2805 -2.1439
 5163TIP3   OH236979   6.506   1.435  14.653  0.0342  0.0934  0.7060
 5163TIP3    H136980   6.458   1.371  14.600  0.5828  0.2818 -0.0363
 5163TIP3    H236981   6.524   1.507  14.593  1.9848 -0.3367  0.7286
 5164TIP3   OH236982   5.422   4.184   3.720  0.3034 -0.0146 -0.0455
 5164TIP3    H136983   5.421   4.149   3.631 -1.0453  2.4792 -1.1025
 5164TIP3    H236984   5.338   4.160   3.758 -0.1905  1.0530 -0.4055
 5165TIP3   OH236985   0.786   1.155  12.249  0.2591 -0.2253  0.5279
 5165TIP3    H136986   0.865   1.121  12.291  2.0558  1.4373 -1.2654
 5165TIP3    H236987   0.719   1.151  12.317  0.9155 -4.6992  1.2455
 5166TIP3   OH236988   1.492   1.447   0.274 -0.6579 -0.2275 -0.3757
 5166TIP3    H136989   1.515   1.468   0.184  0.7782 -1.5527 -0.3600
 5166TIP3    H236990   1.542   1.367   0.294 -1.2424 -0.1880  1.4594
 5167TIP3   OH236991   3.059   3.795   2.591  0.1095  0.6179 -0.4495
 5167TIP3    H136992   3.057   3.809   2.496  2.2770  1.5578 -0.4277
 5167TIP3    H236993   3.068   3.700   2.601  0.8906  0.5904 -1.2431
 5168TIP3   OH236994   4.285   0.925  12.484  0.5475  0.5023 -0.3092
 5168TIP3    H136995   4.374   0.891  12.499  0.7811  0.3694 -1.7930
 5168TIP3    H236996   4.233   0.887  12.555  1.0870 -1.8805 -1.0808
 5169TIP3   OH236997   2.487   3.136  12.804  0.0736 -0.4633  0.2671
 5169TIP3    H136998   2.406   3.091  12.825 -0.7522  1.2171  0.8712
 5169TIP3    H236999   2.462   3.204  12.741  1.2685 -0.8070 -0.6187
 5170TIP3   OH237000   3.271   6.464   0.923  0.9300 -0.1725 -0.8157
 5170TIP3    H137001   3.190   6.516   0.920  1.0201 -0.0676 -2.2509
 5170TIP3    H237002   3.242   6.378   0.953  0.7788  0.6492  1.5885
 5171TIP3   OH237003   2.717   1.746  11.640 -0.0233  0.2337  0.1699
 5171TIP3    H137004   2.765   1.756  11.558  0.5982  0.7410  0.5943
 5171TIP3    H237005   2.625   1.762  11.615  0.1754  0.5274 -0.3996
 5172TIP3   OH237006   1.791   2.239  15.972  0.6143 -0.0889 -0.6405
 5172TIP3    H137007   1.866   2.292  15.946  0.6278 -0.5027 -1.5021
 5172TIP3    H237008   1.794   2.163  15.913 -0.5763 -0.0272 -0.8073
 5173TIP3   OH237009   0.990   2.300  17.040  0.5963 -0.2364 -0.6300
 5173TIP3    H137010   1.031   2.232  16.987 -0.1276 -1.4490  0.3036
 5173TIP3    H237011   1.023   2.382  17.004  4.4516 -1.0622  0.4814
 5174TIP3   OH237012   2.662   3.866  12.058  0.4319 -0.7436  0.0710
 5174TIP3    H137013   2.684   3.929  11.990  0.6801 -0.9364 -0.0280
 5174TIP3    H237014   2.568   3.850  12.046 -0.2213  1.4192  1.6194
 5175TIP3   OH237015   5.087   4.335  12.405 -0.4106 -0.3015  0.5675
 5175TIP3    H137016   5.118   4.268  12.465  0.3957 -0.6465 -0.2191
 5175TIP3    H237017   5.133   4.318  12.323 -0.3275  1.0941  0.2898
 5176TIP3   OH237018   2.313   3.770   0.974  0.2569 -0.7972  0.7577
 5176TIP3    H137019   2.222   3.794   0.989  0.2754 -1.2557  1.6848
 5176TIP3    H237020   2.346   3.746   1.061  1.8370  1.2823  0.8062
 5177TIP3   OH237021   5.822   1.649   0.611  0.5447  0.4614  0.1334
 5177TIP3    H137022   5.914   1.660   0.587  0.5514  0.1052 -0.0214
 5177TIP3    H237023   5.817   1.559   0.646  0.3292  0.6089  0.4918
 5178TIP3   OH237024   2.725   4.696   1.292  0.0777  0.2349  0.2354
 5178TIP3    H137025   2.671   4.775   1.291  0.8592  0.7830 -0.9369
 5178TIP3    H237026   2.771   4.698   1.208  0.1054 -1.4769  0.1821
 5179TIP3   OH237027   1.634   1.610   4.052 -0.3818  0.4138 -0.5958
 5179TIP3    H137028   1.714   1.603   4.103 -0.6986  0.1400 -0.1311
 5179TIP3    H237029   1.659   1.580   3.964  0.5753  2.4826 -1.0845
 5180TIP3   OH237030   5.655   4.694   0.105 -0.3031 -0.7652 -0.4196
 5180TIP3    H137031   5.625   4.749   0.176  1.7752  3.9080 -2.7477
 5180TIP3    H237032   5.588   4.702   0.037  0.5662 -0.0797 -1.2211
 5181TIP3   OH237033   1.336   3.184   2.819 -0.2499 -0.0631  0.2974
 5181TIP3    H137034   1.423   3.214   2.842 -0.3060 -1.6276  2.8599
 5181TIP3    H237035   1.281   3.209   2.893 -1.8983  0.3766 -1.0009
 5182TIP3   OH237036   5.440   2.375   6.597  0.9768  0.5908 -0.0569
 5182TIP3    H137037   5.488   2.424   6.531  2.2245  0.6532  0.8713
 5182TIP3    H237038   5.452   2.283   6.571  0.7243  0.6495 -0.3958
 5183TIP3   OH237039   5.296   3.918  13.510  0.3059  0.1782  0.2321
 5183TIP3    H137040   5.357   3.889  13.442 -1.5999  0.0588 -1.5217
 5183TIP3    H237041   5.273   4.007  13.486 -0.4685  0.1024  0.6563
 5184TIP3   OH237042   5.088   3.948   1.634  0.3850  0.5295 -0.4670
 5184TIP3    H137043   5.123   4.013   1.573  0.8104  0.7999  0.0497
 5184TIP3    H237044   5.160   3.933   1.696  0.0051  0.1729 -0.1078
 5185TIP3   OH237045   2.350   2.469   2.356 -0.3929 -0.3654  0.3753
 5185TIP3    H137046   2.290   2.496   2.425 -1.4323  1.7967 -1.2801
 5185TIP3    H237047   2.330   2.376   2.342 -0.2695 -0.8131  2.7950
 5186TIP3   OH237048   0.456   0.640   4.724 -0.2753 -0.1936  0.6001
 5186TIP3    H137049   0.490   0.703   4.787 -0.9381  0.0394  0.7358
 5186TIP3    H237050   0.533   0.591   4.694  0.2843  0.8303  0.3180
 5187TIP3   OH237051   3.806   5.777   3.796  0.2800 -0.1823  0.0707
 5187TIP3    H137052   3.750   5.854   3.785  0.2574 -0.3805 -1.3844
 5187TIP3    H237053   3.747   5.703   3.786  0.4440 -0.3980  0.6714
 5188TIP3   OH237054   3.079   1.383  13.177  0.2102 -0.2768  0.0545
 5188TIP3    H137055   3.135   1.433  13.236 -0.8408  1.2686 -0.2025
 5188TIP3    H237056   3.018   1.337  13.235  2.1792 -2.6606  0.3903
 5189TIP3   OH237057   4.529   6.360  10.857 -0.2345 -0.0171 -0.2863
 5189TIP3    H137058   4.435   6.372  10.869 -0.4155 -0.4635 -1.1596
 5189TIP3    H237059   4.559   6.443  10.820 -0.0388  0.6076  1.2418
 5190TIP3   OH237060   1.627   0.272  12.503  0.0467  0.4257 -0.5536
 5190TIP3    H137061   1.537   0.297  12.523 -0.3010 -1.3993  0.3468
 5190TIP3    H237062   1.680   0.316  12.570 -0.5395 -1.0384  0.9376
 5191TIP3   OH237063   5.128   3.400  11.155  0.0971  0.2237  0.0146
 5191TIP3    H137064   5.182   3.377  11.079 -0.4708  0.4067 -0.4553
 5191TIP3    H237065   5.053   3.341  11.150 -0.2530  0.6581  0.0727
 5192TIP3   OH237066   4.829   6.782   4.579 -0.6230 -0.7847 -0.0639
 5192TIP3    H137067   4.920   6.804   4.558  0.1603 -1.4528  2.3447
 5192TIP3    H237068   4.780   6.861   4.556  0.8323  0.2632  0.2411
 5193TIP3   OH237069   6.438   1.417  11.488  0.2618  0.1764  0.1877
 5193TIP3    H137070   6.525   1.380  11.504 -0.5666 -1.8071  0.4428
 5193TIP3    H237071   6.380   1.364  11.542 -1.2267  0.8445 -0.7076
 5194TIP3   OH237072   2.392   3.594  14.633  0.2262 -0.0477 -0.5657
 5194TIP3    H137073   2.300   3.607  14.611 -0.4365 -1.6757  0.9928
 5194TIP3    H237074   2.421   3.679  14.666 -0.6696  0.5304 -1.2321
 5195TIP3   OH237075   6.311   2.375   1.348  0.0836 -0.3021  0.2177
 5195TIP3    H137076   6.346   2.463   1.332 -1.4192  0.3162  0.1055
 5195TIP3    H237077   6.382   2.328   1.391  0.7528  1.1392  0.7543
 5196TIP3   OH237078   2.320   1.228   5.300 -0.1875  0.2966  0.5042
 5196TIP3    H137079   2.380   1.154   5.304  1.3771  1.4850  0.3106
 5196TIP3    H237080   2.233   1.189   5.298  0.5741 -1.7337 -3.5079
 5197TIP3   OH237081   3.645   2.644  11.600 -0.4096  0.7296  0.8281
 5197TIP3    H137082   3.648   2.549  11.598 -0.7305  0.7194 -0.9684
 5197TIP3    H237083   3.611   2.666  11.687  0.7855 -0.7336  1.7085
 5198TIP3   OH237084   5.459   6.766  13.226 -0.0469 -0.3173  0.3376
 5198TIP3    H137085   5.480   6.684  13.272 -0.1554  0.3766  1.6821
 5198TIP3    H237086   5.370   6.753  13.194  1.6781 -2.8266 -4.3861
 5199TIP3   OH237087   6.240   2.881   5.103 -0.0687  0.0251 -0.0280
 5199TIP3    H137088   6.281   2.874   5.017 -1.3996 -1.1536 -0.6122
 5199TIP3    H237089   6.299   2.937   5.153  0.3642  1.3834 -1.9250
 5200TIP3   OH237090   1.336   1.959  11.374  0.4611 -0.3850  0.3144
 5200TIP3    H137091   1.308   1.996  11.457 -0.5393  0.6938 -0.4704
 5200TIP3    H237092   1.431   1.973  11.372  0.4107  0.0698  1.0187
 5201TIP3   OH237093   2.132   5.106   6.227  0.5446 -0.0081 -0.2144
 5201TIP3    H137094   2.126   5.199   6.205  2.0710 -0.1781 -1.5644
 5201TIP3    H237095   2.045   5.083   6.259 -0.0078  1.7630 -0.3566
 5202TIP3   OH237096   1.781   4.147   3.288  0.3543  0.1907 -0.7228
 5202TIP3    H137097   1.822   4.185   3.210 -0.1564  1.0929 -0.5692
 5202TIP3    H237098   1.811   4.202   3.360 -0.1830  0.1443 -0.4569
 5203TIP3   OH237099   3.087   4.635  11.211  0.1991  0.4453  0.0401
 5203TIP3    H137100   3.096   4.706  11.275 -0.5559  2.2602 -1.7430
 5203TIP3    H237101   3.164   4.643  11.156 -0.5672  0.8057 -1.0098
 5204TIP3   OH237102   5.142   0.984  11.087  0.1406  0.0841 -0.1159
 5204TIP3    H137103   5.126   1.063  11.035 -2.2971  0.2671  0.8087
 5204TIP3    H237104   5.227   0.952  11.056  0.5955  2.3498 -1.4010
 5205TIP3   OH237105   2.460   6.479  14.521  0.2699 -0.4380  0.4630
 5205TIP3    H137106   2.554   6.468  14.527  0.5681  1.6489  0.5426
 5205TIP3    H237107   2.446   6.528  14.440 -1.0003 -2.6929 -0.7682
 5206TIP3   OH237108   6.409   4.444   0.067 -0.1440  0.3814 -0.7465
 5206TIP3    H137109   6.368   4.368   0.027 -1.4451  0.7523 -0.1614
 5206TIP3    H237110   6.499   4.416   0.085 -0.9103 -1.4298  0.5337
 5207TIP3   OH237111   3.899   1.966   5.125  0.0250  0.3125  0.1532
 5207TIP3    H137112   3.939   1.888   5.087 -2.0641 -0.3245 -0.9178
 5207TIP3    H237113   3.914   2.034   5.059  1.3212  0.7127  0.8187
 5208TIP3   OH237114   2.578   0.120  11.770  0.3411  0.4466 -0.6184
 5208TIP3    H137115   2.656   0.143  11.819  1.3961 -0.0328 -1.9935
 5208TIP3    H237116   2.595   0.032  11.736 -1.1857 -0.0500 -0.2106
 5209TIP3   OH237117   0.934   1.284  12.484  0.1699 -0.1922 -0.5419
 5209TIP3    H137118   0.995   1.216  12.457 -1.0125 -0.7894 -1.8077
 5209TIP3    H237119   0.877   1.242  12.548  1.7637  0.6925  1.5538
 5210TIP3   OH237120   5.498   4.802   0.329  0.1336  0.5186 -0.1482
 5210TIP3    H137121   5.429   4.757   0.279  0.7742  1.1832 -1.7086
 5210TIP3    H237122   5.484   4.895   0.310  1.4673  0.6663 -0.5183
 5211TIP3   OH237123   3.073   2.964   1.574 -0.3318  0.3339  0.7336
 5211TIP3    H137124   3.041   2.886   1.619  0.2041 -0.2922  0.0431
 5211TIP3    H237125   3.082   3.029   1.643 -1.6855  0.0884  1.1840
 5212TIP3   OH237126   0.347   4.248   0.753 -0.3017 -0.4008 -0.2425
 5212TIP3    H137127   0.306   4.334   0.764  0.2760 -0.2526  0.9269
 5212TIP3    H237128   0.434   4.258   0.790 -0.5371 -1.7199  0.7506
 5213TIP3   OH237129   2.375   3.785   0.700  0.0339  0.1620  0.3286
 5213TIP3    H137130   2.394   3.790   0.794 -0.1197  2.2492  0.2787
 5213TIP3    H237131   2.280   3.783   0.695  0.0185  1.0157  0.1962
 5214TIP3   OH237132   2.541   5.446   2.385  0.5507  0.3691  0.1750
 5214TIP3    H137133   2.601   5.443   2.459  0.8771  0.7572 -0.0721
 5214TIP3    H237134   2.463   5.399   2.415  2.0405 -2.8116 -0.4868
 5215TIP3   OH237135   5.911   0.049  14.143  0.3608 -0.1007 -0.4812
 5215TIP3    H137136   5.907   0.025  14.051 -0.3453 -2.6235  0.1384
 5215TIP3    H237137   5.880   0.139  14.146 -0.6205 -0.3243 -2.5880
 5216TIP3   OH237138   3.689   4.844   6.374  0.4586  0.3504 -0.8372
 5216TIP3    H137139   3.619   4.885   6.424  1.2023 -0.7970  1.2655
 5216TIP3    H237140   3.768   4.890   6.401  1.2864 -2.1738  1.4470
 5217TIP3   OH237141   2.258   6.461  15.357  0.5054 -0.3111  0.5171
 5217TIP3    H137142   2.243   6.368  15.341 -2.1957  0.2892 -0.9776
 5217TIP3    H237143   2.255   6.469  15.452  1.9461 -1.8549  0.7538
 5218TIP3   OH237144   6.715   1.536   4.509 -0.1575  0.2432  0.5512
 5218TIP3    H137145   6.760   1.538   4.425  0.3270  3.8569  0.7105
 5218TIP3    H237146   6.624   1.555   4.488 -0.8811 -2.6710  0.6272
 5219TIP3   OH237147   4.804   4.631  11.768 -0.1781 -0.4986  0.1264
 5219TIP3    H137148   4.746   4.621  11.843  0.1259 -2.6404  0.1352
 5219TIP3    H237149   4.751   4.676  11.703 -1.2872 -0.8801  0.7372
 5220TIP3   OH237150   4.601   0.086   2.059 -0.2199  0.4844  0.2511
 5220TIP3    H137151   4.595   0.163   2.115  1.4241 -0.0737  1.2720
 5220TIP3    H237152   4.543   0.022   2.100 -1.5234  1.1108 -0.5518
 5221TIP3   OH237153   6.680   6.120  11.680 -0.5139  0.4306 -0.5771
 5221TIP3    H137154   6.710   6.083  11.763 -4.3944  1.1084  1.3719
 5221TIP3    H237155   6.666   6.044  11.624 -0.0236 -0.2548  0.1931
 5222TIP3   OH237156   1.867   5.041  11.761  0.0734 -0.5407 -0.2342
 5222TIP3    H137157   1.916   5.118  11.733 -1.3451  0.4529 -0.1372
 5222TIP3    H237158   1.776   5.072  11.765 -0.4249 -2.0280  0.5335
 5223TIP3   OH237159   2.722   2.113   5.526  0.3364  0.2830 -0.2572
 5223TIP3    H137160   2.629   2.135   5.530  0.2611 -0.1974  1.4304
 5223TIP3    H237161   2.724   2.018   5.538  1.1402  0.5664  2.4359
 5224TIP3   OH237162   3.434   0.267   2.509  0.2758  0.2930  0.1117
 5224TIP3    H137163   3.351   0.275   2.557 -0.6644 -0.0884 -1.3483
 5224TIP3    H237164   3.423   0.188   2.456  0.6294  1.4504 -1.7980
 5225TIP3   OH237165   5.520   2.951   1.799  0.0684  0.0733  0.3583
 5225TIP3    H137166   5.452   2.968   1.864 -0.3059  1.0499 -0.2728
 5225TIP3    H237167   5.522   3.030   1.745  1.0131 -0.3501 -0.2522
 5226TIP3   OH237168   3.017   3.272  17.127  0.3397 -0.4528  0.3528
 5226TIP3    H137169   3.030   3.336  17.056  1.6294  0.1726  1.1159
 5226TIP3    H237170   2.992   3.326  17.203 -0.4107 -1.0563  0.5484
 5227TIP3   OH237171   6.103   5.654  15.928 -1.0184 -0.0288 -0.6836
 5227TIP3    H137172   6.113   5.656  16.023  1.3040 -0.3174 -0.8504
 5227TIP3    H237173   6.150   5.732  15.898 -2.9196  0.8293 -1.5589
 5228TIP3   OH237174   0.883   3.470   2.317 -0.2133  0.0133 -0.8832
 5228TIP3    H137175   0.966   3.439   2.354 -0.8895 -1.0301 -0.1838
 5228TIP3    H237176   0.865   3.551   2.363 -1.0437 -1.2629  1.1797
 5229TIP3   OH237177   4.693   2.745   5.449  0.3686 -0.1988 -0.3504
 5229TIP3    H137178   4.699   2.834   5.414 -2.4849  0.3466  0.2929
 5229TIP3    H237179   4.631   2.700   5.390 -0.9614 -0.6362  1.3053
 5230TIP3   OH237180   2.735   3.817  15.413 -0.1787 -0.1790  0.1158
 5230TIP3    H137181   2.712   3.895  15.463  1.5939 -0.7206  1.9086
 5230TIP3    H237182   2.831   3.820  15.406 -0.3011 -0.2504 -3.1543
 5231TIP3   OH237183   6.078   3.810  14.181  0.2935 -0.2707  0.5018
 5231TIP3    H137184   6.050   3.742  14.243 -0.3992 -0.7514 -0.3056
 5231TIP3    H237185   6.043   3.781  14.097  2.4827 -0.4049 -0.4243
 5232TIP3   OH237186   2.793   1.324  11.990  0.0320  0.1701  0.1826
 5232TIP3    H137187   2.753   1.245  11.952  0.9388 -0.2978  0.1742
 5232TIP3    H237188   2.734   1.395  11.965 -0.5901 -0.4507 -0.1495
 5233TIP3   OH237189   0.191   6.276   3.116 -0.7608  0.8012 -0.0297
 5233TIP3    H137190   0.153   6.192   3.142 -0.5816  1.2267  1.7369
 5233TIP3    H237191   0.251   6.254   3.045 -2.0902 -0.2857 -0.8541
 5234TIP3   OH237192   5.874   5.849   0.766  0.6095  0.0262 -0.0879
 5234TIP3    H137193   5.839   5.764   0.740  0.8001  0.1363 -0.7038
 5234TIP3    H237194   5.830   5.868   0.849 -0.0228 -0.3120 -0.3402
 5235TIP3   OH237195   3.889   6.253  12.590  0.0381 -0.1044  0.3140
 5235TIP3    H137196   3.878   6.279  12.682 -0.4357 -1.0660  0.5436
 5235TIP3    H237197   3.914   6.334  12.545 -1.6839  0.8214  0.9298
 5236TIP3   OH237198   6.313   5.207   5.328 -0.4736  0.4506  0.1598
 5236TIP3    H137199   6.256   5.177   5.398 -0.5175  2.2953  0.9794
 5236TIP3    H237200   6.400   5.173   5.350 -0.3604  1.5296  1.4859
 5237TIP3   OH237201   0.195   6.727  14.107 -0.0244 -0.5455 -0.1412
 5237TIP3    H137202   0.146   6.780  14.044  0.0585 -0.2731  0.0216
 5237TIP3    H237203   0.260   6.682  14.055  0.9782  0.7600 -0.0884
 5238TIP3   OH237204   5.551   0.597  14.774  0.0124  0.0561 -0.6258
 5238TIP3    H137205   5.590   0.596  14.862 -1.9971  0.7743  0.3266
 5238TIP3    H237206   5.597   0.669  14.729  1.0926 -0.3499 -0.2079
 5239TIP3   OH237207   2.085   3.932  11.421 -0.4697  0.1686 -0.5219
 5239TIP3    H137208   2.035   3.972  11.493 -0.8326  0.3704 -0.8816
 5239TIP3    H237209   2.023   3.871  11.380  0.0520 -0.6934 -0.0415
 5240TIP3   OH237210   6.562   6.051  16.764  0.6385 -0.5342 -0.1837
 5240TIP3    H137211   6.478   6.094  16.780  0.8698 -0.6080  1.3877
 5240TIP3    H237212   6.568   6.044  16.669  0.1285  1.9818 -0.4814
 5241TIP3   OH237213   3.905   1.483   4.118 -0.2251  0.7390  0.1340
 5241TIP3    H137214   3.857   1.418   4.168 -1.1260 -0.7573 -2.4685
 5241TIP3    H237215   3.997   1.468   4.142 -0.4406 -1.3348 -0.1698
 5242TIP3   OH237216   5.479   0.748   3.596  0.4433 -0.4811 -0.8565
 5242TIP3    H137217   5.385   0.742   3.581 -0.1025  2.8768  0.2456
 5242TIP3    H237218   5.494   0.703   3.678 -1.2283  2.8861  1.5509
 5243TIP3   OH237219   3.196   0.558  14.086 -0.0847  0.5924 -0.0521
 5243TIP3    H137220   3.129   0.492  14.101  1.0199 -0.4756  0.3108
 5243TIP3    H237221   3.269   0.533  14.143  0.4800  1.9499 -0.1286
 5244TIP3   OH237222   1.472   3.453  16.327 -0.4471 -0.1477 -0.7958
 5244TIP3    H137223   1.527   3.504  16.267  0.9554 -0.5684  0.0876
 5244TIP3    H237224   1.533   3.413  16.388 -1.8656  0.8233  1.4023
 5245TIP3   OH237225   3.508   4.590   4.865 -0.2251  0.4520 -0.3935
 5245TIP3    H137226   3.526   4.684   4.865 -0.2379  0.4839 -1.8795
 5245TIP3    H237227   3.413   4.584   4.871 -0.1910  0.5005  0.3131
 5246TIP3   OH237228   6.527   6.823  13.255  0.6590 -0.1877  0.2739
 5246TIP3    H137229   6.514   6.900  13.310 -0.4193  0.3557 -0.6924
 5246TIP3    H237230   6.611   6.838  13.211  0.2376  0.6664 -0.2544
 5247TIP3   OH237231   3.559   1.174   6.137  0.1858 -0.1645 -0.2270
 5247TIP3    H137232   3.626   1.109   6.155  1.4984 -0.0654 -3.9569
 5247TIP3    H237233   3.484   1.124   6.106  0.5083 -0.0664 -1.2167
 5248TIP3   OH237234   4.947   5.324   0.204  0.3345 -0.3537  0.5918
 5248TIP3    H137235   4.993   5.288   0.280 -0.1644  1.7602  1.9688
 5248TIP3    H237236   5.000   5.399   0.177  0.0616 -0.5878 -0.6853
 5249TIP3   OH237237   4.365   0.958  16.364  0.2650  0.1999  0.3845
 5249TIP3    H137238   4.321   1.041  16.346  0.4132  0.5072  1.3684
 5249TIP3    H237239   4.316   0.894  16.314 -0.1262  0.8181 -0.0392
 5250TIP3   OH237240   1.644   6.019   1.324  0.3534  0.3881  0.0124
 5250TIP3    H137241   1.706   5.968   1.377  0.0898 -0.1999 -0.2324
 5250TIP3    H237242   1.558   5.994   1.358  0.2563  2.9455  1.9382
 5251TIP3   OH237243   0.395   2.089  15.548  0.2462  0.3450 -0.4850
 5251TIP3    H137244   0.481   2.109  15.586 -1.2605  2.3779  2.2711
 5251TIP3    H237245   0.365   2.012  15.596  1.0958 -1.3598 -2.5704
 5252TIP3   OH237246   4.203   2.960   1.869 -0.0607 -0.0117  0.3101
 5252TIP3    H137247   4.187   2.945   1.776 -0.4069  1.2048  0.1582
 5252TIP3    H237248   4.298   2.960   1.877 -0.0163  0.4517 -0.1549
 5253TIP3   OH237249   2.398   1.249   1.040 -0.4131  0.1494 -0.2900
 5253TIP3    H137250   2.320   1.206   1.005  0.7292  0.0230 -2.9458
 5253TIP3    H237251   2.420   1.198   1.119 -1.5491 -1.4215 -0.9225
 5254TIP3   OH237252   4.525   3.493  14.825 -0.5024  0.0182  0.1117
 5254TIP3    H137253   4.570   3.566  14.781 -0.3014  0.9039  1.7023
 5254TIP3    H237254   4.447   3.477  14.772  0.2478  0.3191 -1.1400
 5255TIP3   OH237255   1.968   5.996  11.148  0.3935  0.3786  0.4006
 5255TIP3    H137256   1.992   6.050  11.073 -3.6294  1.0765 -0.6458
 5255TIP3    H237257   1.973   5.906  11.116 -0.7106  0.6428 -0.5987
 5256TIP3   OH237258   1.144   6.466   5.105 -0.3527  0.3541  0.3185
 5256TIP3    H137259   1.183   6.382   5.081 -2.0101 -0.7377  1.2701
 5256TIP3    H237260   1.174   6.482   5.195 -1.2273  0.0217  0.6778
 5257TIP3   OH237261   3.626   5.628   0.128 -0.4854  0.0132  0.5422
 5257TIP3    H137262   3.642   5.718   0.099 -0.4588 -0.6106 -1.4954
 5257TIP3    H237263   3.574   5.638   0.208  0.1848  1.8373  0.8019
 5258TIP3   OH237264   2.264   4.352  11.015  0.1457 -0.3604 -0.5944
 5258TIP3    H137265   2.332   4.351  11.082 -0.0089 -0.3915 -0.4365
 5258TIP3    H237266   2.285   4.278  10.958  0.6920  0.0935 -1.0048
 5259TIP3   OH237267   0.834   5.722   3.570 -0.0669  0.0372 -0.3160
 5259TIP3    H137268   0.854   5.723   3.663  0.3396 -0.4148 -0.3979
 5259TIP3    H237269   0.846   5.631   3.543 -1.2063 -0.0402 -0.5920
 5260TIP3   OH237270   0.165   6.574  11.441  0.0553 -0.0319 -0.3810
 5260TIP3    H137271   0.176   6.480  11.427 -0.7037 -0.3360  0.8916
 5260TIP3    H237272   0.244   6.614  11.406  0.4954 -1.1691 -0.7084
 5261TIP3   OH237273   1.623   3.350  10.605  0.4760  0.0684  0.0343
 5261TIP3    H137274   1.564   3.407  10.655 -0.2146 -1.1504  0.6589
 5261TIP3    H237275   1.571   3.322  10.530 -0.0831 -1.6545  1.0051
 5262TIP3   OH237276   2.251   4.370  15.557  0.0076  0.5841  0.3384
 5262TIP3    H137277   2.240   4.422  15.477 -0.1082  1.7760  1.1057
 5262TIP3    H237278   2.214   4.285  15.535  1.6866  0.2433 -1.5036
 5263TIP3   OH237279   2.333   6.776  16.500  0.6585 -0.3587  0.7933
 5263TIP3    H137280   2.372   6.786  16.587  0.6972 -1.1371  0.8681
 5263TIP3    H237281   2.340   6.683  16.481  1.8293 -0.0138 -0.5976
 5264TIP3   OH237282   6.272   0.916  12.137 -0.2036 -0.5724 -0.3572
 5264TIP3    H137283   6.199   0.956  12.089  1.4209  2.3582 -0.6410
 5264TIP3    H237284   6.248   0.924  12.229 -0.1601  0.7415 -0.4304
 5265TIP3   OH237285   2.637   2.731   5.403  0.0136  0.7939 -0.1070
 5265TIP3    H137286   2.673   2.643   5.405  0.0148  0.7932 -0.1575
 5265TIP3    H237287   2.543   2.719   5.421 -0.0554  0.7442 -0.4937
 5266TIP3   OH237288   3.144   0.059  11.846 -0.1769  0.3290 -0.5947
 5266TIP3    H137289   3.195   0.089  11.771 -1.2357 -1.4156 -2.1023
 5266TIP3    H237290   3.178  -0.029  11.864 -2.2631 -0.7069 -1.3734
 5267TIP3   OH237291   5.595   5.478   3.674 -1.0917  0.0248  0.8895
 5267TIP3    H137292   5.661   5.409   3.666  0.2811  1.2126  1.4063
 5267TIP3    H237293   5.515   5.440   3.638  0.0284 -1.2777 -0.3602
 5268TIP3   OH237294   2.616   1.705   5.969 -0.1711 -0.0451  0.0273
 5268TIP3    H137295   2.709   1.681   5.962 -0.4685 -0.9697 -0.8264
 5268TIP3    H237296   2.612   1.759   6.048  1.1923  0.4811 -0.2357
 5269TIP3   OH237297   2.543   1.741  14.097 -0.2184  0.1904 -0.7772
 5269TIP3    H137298   2.552   1.835  14.110 -1.3200  0.2233 -0.1177
 5269TIP3    H237299   2.450   1.723  14.111 -0.0327 -0.9978 -0.9129
 5270TIP3   OH237300   1.415   5.862  12.557 -0.2907  0.2773  0.3015
 5270TIP3    H137301   1.433   5.889  12.647 -1.2117  1.2110  0.2270
 5270TIP3    H237302   1.485   5.800  12.536  0.5499  0.8555  1.2947
 5271TIP3   OH237303   3.991   6.197  16.800  0.7955  0.4343 -0.0459
 5271TIP3    H137304   4.027   6.228  16.884  0.1782  0.1852  0.3158
 5271TIP3    H237305   4.068   6.178  16.747  1.2124 -0.1532  0.7431
 5272TIP3   OH237306   0.397   2.788   4.305 -0.1500 -0.1530 -0.6447
 5272TIP3    H137307   0.357   2.875   4.297  2.0837  0.8395 -1.8644
 5272TIP3    H237308   0.428   2.783   4.395  1.7844  1.3527 -1.1594
 5273TIP3   OH237309   5.014   3.002   4.523  0.2519  0.1236  0.0654
 5273TIP3    H137310   5.097   2.956   4.515 -0.9084 -1.9397 -0.9856
 5273TIP3    H237311   4.963   2.975   4.447 -1.9709 -0.0124  1.4812
 5274TIP3   OH237312   1.573   5.074   1.238  0.2560  0.1941  0.4779
 5274TIP3    H137313   1.573   5.134   1.313  0.3612 -1.3823  1.8108
 5274TIP3    H237314   1.624   5.119   1.171  0.8971  1.3147  1.6701
 5275TIP3   OH237315   5.010   5.496   4.955 -0.5099  0.2435 -0.4513
 5275TIP3    H137316   4.957   5.423   4.986  0.4793  0.4855  2.0572
 5275TIP3    H237317   4.947   5.559   4.922 -1.9054  0.5882  2.5319
 5276TIP3   OH237318   3.064   2.712  12.255 -0.0078  0.0771 -0.4402
 5276TIP3    H137319   3.112   2.641  12.212  2.4218  1.4161 -0.1418
 5276TIP3    H237320   3.090   2.791  12.207 -0.1143  1.1431  1.1879
 5277TIP3   OH237321   5.575   6.161   3.667 -0.1011 -0.3178  0.4982
 5277TIP3    H137322   5.522   6.186   3.743  0.5287  0.7121  0.6248
 5277TIP3    H237323   5.600   6.071   3.684 -1.0656 -0.5326  0.8639
 5278TIP3   OH237324   4.742   0.979   5.045  0.3656 -0.1695  0.5369
 5278TIP3    H137325   4.779   1.067   5.051  0.8045 -0.3953  1.1665
 5278TIP3    H237326   4.652   0.989   5.078  0.1379  0.2024 -0.1748
 5279TIP3   OH237327   1.422   2.694  16.834  0.0501 -0.3123 -0.1093
 5279TIP3    H137328   1.405   2.729  16.746  0.7105  0.6629  0.1444
 5279TIP3    H237329   1.343   2.716  16.884  0.7973  1.6974  0.2945
 5280TIP3   OH237330   3.597   4.916   6.098 -0.9314 -0.0051 -0.3014
 5280TIP3    H137331   3.514   4.950   6.130 -0.4003  0.5323  0.5509
 5280TIP3    H237332   3.638   4.877   6.175 -0.7788 -1.0701 -0.9031
 5281TIP3   OH237333   3.877   6.058   4.448 -0.0824 -0.0977 -0.3646
 5281TIP3    H137334   3.783   6.042   4.439  0.0478 -0.4076 -1.3397
 5281TIP3    H237335   3.910   5.980   4.494 -0.1816 -0.3730 -0.7550
 5282TIP3   OH237336   0.655   2.174   1.115  0.0999  0.3380 -0.5343
 5282TIP3    H137337   0.591   2.238   1.144 -1.1984  0.0925 -2.6117
 5282TIP3    H237338   0.668   2.117   1.191 -3.0984 -0.3270 -0.3180
 5283TIP3   OH237339   0.795   4.641   1.768  0.4050  0.2196  0.1503
 5283TIP3    H137340   0.825   4.652   1.678 -1.2939  0.0449 -0.4761
 5283TIP3    H237341   0.815   4.550   1.789 -0.5620 -0.1739 -0.6010
 5284TIP3   OH237342   5.847   2.051   2.698 -0.0949  0.8311 -0.1318
 5284TIP3    H137343   5.916   1.984   2.696  0.4850  1.3903  0.6519
 5284TIP3    H237344   5.827   2.067   2.605  0.6708  0.5038 -0.3643
 5285TIP3   OH237345   0.661   5.754   1.428  0.3520  0.6651 -0.2791
 5285TIP3    H137346   0.756   5.754   1.416  0.3254 -0.8706 -0.8090
 5285TIP3    H237347   0.627   5.726   1.343 -0.5199  0.3546  0.1582
 5286TIP3   OH237348   1.457   1.004  16.480 -0.1481  0.3186  0.3015
 5286TIP3    H137349   1.464   0.966  16.568  1.0648  0.8113  0.4372
 5286TIP3    H237350   1.538   1.053  16.469 -1.3928  2.4000 -0.0996
 5287TIP3   OH237351   3.038   0.334  14.167 -0.0615  0.7231 -0.6181
 5287TIP3    H137352   2.969   0.273  14.192 -0.0340  1.2091  0.7298
 5287TIP3    H237353   3.101   0.329  14.239  0.2692  1.8255 -0.8172
 5288TIP3   OH237354   5.234   6.450  16.592  0.4722  0.9796  0.0754
 5288TIP3    H137355   5.142   6.432  16.607  0.4165  0.1345 -1.1642
 5288TIP3    H237356   5.280   6.400  16.659  0.1101 -0.1719 -0.5229
 5289TIP3   OH237357   4.090   0.162  10.872 -0.1646  0.2870 -0.4710
 5289TIP3    H137358   4.086   0.073  10.837  0.2748 -0.0142  0.2223
 5289TIP3    H237359   4.140   0.153  10.953 -1.7041  0.8523  0.5809
 5290TIP3   OH237360   5.285   2.791   2.343  0.4634 -0.0815  0.0850
 5290TIP3    H137361   5.268   2.749   2.427  0.1526  0.7452  0.4384
 5290TIP3    H237362   5.368   2.836   2.355  2.1362 -2.5964 -1.0731
 5291TIP3   OH237363   6.553   6.684   0.667 -0.0657 -0.1089  0.6586
 5291TIP3    H137364   6.580   6.773   0.689  0.1527 -0.5674  2.3762
 5291TIP3    H237365   6.518   6.691   0.578  2.6176  1.1276 -0.4265
 5292TIP3   OH237366   3.209   2.388  15.920 -0.0789 -0.1376  0.8020
 5292TIP3    H137367   3.289   2.410  15.872 -0.0123 -1.2824  0.3653
 5292TIP3    H237368   3.138   2.419  15.863 -0.0374 -2.4105 -0.6037
 5293TIP3   OH237369   3.238   1.126   2.270  0.1127 -0.1952 -0.4928
 5293TIP3    H137370   3.215   1.215   2.297 -2.3745 -0.4301 -1.6168
 5293TIP3    H237371   3.315   1.137   2.214  0.9221  1.0208  0.7903
 5294TIP3   OH237372   0.684   3.049   3.291 -0.0910  0.4232  0.4632
 5294TIP3    H137373   0.726   3.042   3.206  0.2045  1.1450  0.5452
 5294TIP3    H237374   0.707   3.136   3.323 -0.9744  0.5244  0.8696
 5295TIP3   OH237375   2.724   6.735  14.374  0.0604 -0.0719 -0.0290
 5295TIP3    H137376   2.669   6.746  14.450 -1.9822  1.1658 -1.5858
 5295TIP3    H237377   2.813   6.753  14.405 -0.5532 -0.6814  2.2309
 5296TIP3   OH237378   5.376   4.719   3.243 -0.2749  0.2382 -0.3023
 5296TIP3    H137379   5.392   4.724   3.337 -0.4893  1.2452 -0.3057
 5296TIP3    H237380   5.282   4.735   3.234 -0.4611 -0.9601 -0.6141
 5297TIP3   OH237381   2.255   5.049   3.871 -0.0102 -0.1233 -0.2174
 5297TIP3    H137382   2.183   5.111   3.854  1.7907  2.6511  1.5078
 5297TIP3    H237383   2.218   4.988   3.935 -0.7290  1.6341  1.1409
 5298TIP3   OH237384   3.272   5.154  16.600 -0.0065 -0.0586  0.8882
 5298TIP3    H137385   3.286   5.062  16.578  0.3390  0.1252  0.2941
 5298TIP3    H237386   3.221   5.152  16.680 -0.4117 -0.7731  0.6278
 5299TIP3   OH237387   1.434   4.131   5.502  0.1477  0.0637  0.1813
 5299TIP3    H137388   1.353   4.153   5.549  0.4655  0.8155  0.3951
 5299TIP3    H237389   1.488   4.209   5.510  1.6045 -1.0261  1.5206
 5300TIP3   OH237390   5.293   0.456   3.045  0.1406 -0.5464 -0.0936
 5300TIP3    H137391   5.241   0.434   2.968  1.5784  0.2001 -1.3366
 5300TIP3    H237392   5.372   0.403   3.037  0.0418 -0.9377  1.2378
 5301TIP3   OH237393   3.818   5.833   2.847  0.1397  0.3028 -0.2345
 5301TIP3    H137394   3.906   5.844   2.882  1.0070 -1.1944 -1.7873
 5301TIP3    H237395   3.816   5.889   2.769 -1.0659  1.9847  0.9150
 5302TIP3   OH237396   4.587   6.075   0.991  0.2225  0.1873 -0.5951
 5302TIP3    H137397   4.647   6.059   1.064  0.2835  0.3831 -0.6034
 5302TIP3    H237398   4.615   6.013   0.923 -0.9031 -1.2289  0.1530
 5303TIP3   OH237399   3.742   0.238   4.275  0.4324 -0.2649  0.5662
 5303TIP3    H137400   3.668   0.290   4.243  0.3597 -0.0531  1.0673
 5303TIP3    H237401   3.792   0.299   4.329  0.7822 -0.5036  0.5151
 5304TIP3   OH237402   1.853   2.844  13.976 -0.0927  0.1045 -0.2210
 5304TIP3    H137403   1.788   2.780  13.949  0.7365 -1.7828  2.0262
 5304TIP3    H237404   1.937   2.799  13.968  0.6813  1.4434 -0.0635
 5305TIP3   OH237405   3.346   1.980   4.769  0.0406 -0.1128  0.2226
 5305TIP3    H137406   3.440   1.965   4.775 -0.1227 -0.9125  1.1276
 5305TIP3    H237407   3.313   1.961   4.857 -0.9272  0.4432 -0.0006
 5306TIP3   OH237408   4.218   3.207   5.362 -0.0596  0.3206 -0.3942
 5306TIP3    H137409   4.263   3.126   5.341 -0.1755 -0.0517  0.7399
 5306TIP3    H237410   4.286   3.265   5.397 -0.4321 -0.2588  1.3630
 5307TIP3   OH237411   2.121   5.038   0.214  0.3589  0.2144  0.3528
 5307TIP3    H137412   2.144   4.984   0.290 -1.3533 -0.9061  0.1279
 5307TIP3    H237413   2.048   5.092   0.244 -1.6454 -1.6008 -0.9400
 5308TIP3   OH237414   0.824   4.798   3.490 -0.1731  0.1854  0.2499
 5308TIP3    H137415   0.877   4.736   3.439 -2.7388 -0.4539 -1.8731
 5308TIP3    H237416   0.883   4.871   3.508  1.8086 -1.1019 -0.6907
 5309TIP3   OH237417   4.718   2.909  13.072 -0.1540 -0.2678  0.1470
 5309TIP3    H137418   4.654   2.934  13.139 -1.6519 -1.8187 -0.6477
 5309TIP3    H237419   4.668   2.904  12.991  1.8522  2.8966 -1.5199
 5310TIP3   OH237420   0.716   5.308  15.525  0.0010  0.6757 -0.0150
 5310TIP3    H137421   0.667   5.368  15.468 -0.4436  0.8001  0.4914
 5310TIP3    H237422   0.650   5.271  15.583  0.3464  0.0289 -0.0248
 5311TIP3   OH237423   1.511   2.185  16.349 -0.3706 -0.5006 -0.1922
 5311TIP3    H137424   1.490   2.102  16.390  0.1025 -0.1735  0.7246
 5311TIP3    H237425   1.607   2.187  16.345 -0.3998 -0.6825 -1.6477
 5312TIP3   OH237426   0.485   3.746  13.574  0.0068  0.6997 -0.0771
 5312TIP3    H137427   0.421   3.799  13.527 -0.1671 -1.3064 -2.2766
 5312TIP3    H237428   0.440   3.720  13.654 -1.9729 -0.5934 -1.5276
 5313TIP3   OH237429   0.297   5.504  13.560 -0.6824  0.1194 -0.1291
 5313TIP3    H137430   0.270   5.550  13.481  0.5929  0.3699 -0.4416
 5313TIP3    H237431   0.355   5.566  13.606  0.2618 -0.7817 -0.0612
 5314TIP3   OH237432   1.774   5.632  13.696  0.0666  0.2611 -0.2021
 5314TIP3    H137433   1.743   5.722  13.685  1.0165  0.6432  0.1530
 5314TIP3    H237434   1.775   5.618  13.790 -0.0803 -0.1213 -0.2573
 5315TIP3   OH237435   3.759   0.064   1.447  0.4050  0.0347  0.1892
 5315TIP3    H137436   3.779  -0.001   1.514  1.7255 -0.0773 -0.2867
 5315TIP3    H237437   3.663   0.063   1.441  0.2108  0.3455  2.3474
 5316TIP3   OH237438   0.295   6.462   4.125  0.3843  0.4265 -0.1020
 5316TIP3    H137439   0.329   6.375   4.104  0.7785  0.0955  1.7636
 5316TIP3    H237440   0.221   6.446   4.183 -0.9648  1.2784 -1.5244
 5317TIP3   OH237441   4.775   1.893   2.703  0.1138 -0.4781 -0.2149
 5317TIP3    H137442   4.768   1.800   2.679  1.1486 -0.4291 -0.7626
 5317TIP3    H237443   4.858   1.899   2.750  0.0107  0.1540 -0.1143
 5318TIP3   OH237444   1.313   5.519   0.494  0.7553 -0.4427 -0.3411
 5318TIP3    H137445   1.302   5.511   0.589  0.1770  1.4783 -0.2122
 5318TIP3    H237446   1.234   5.564   0.465  1.9106  0.9416 -1.4324
 5319TIP3   OH237447   6.395   0.946   1.351  0.5695 -0.0309 -0.3117
 5319TIP3    H137448   6.325   1.009   1.333  0.6777  0.8764  2.0792
 5319TIP3    H237449   6.354   0.860   1.343 -0.2020  0.3984 -1.1687
 5320TIP3   OH237450   2.200   0.939  14.163 -0.3631  0.9459 -0.1455
 5320TIP3    H137451   2.218   1.016  14.218 -1.7941  0.1942  1.4792
 5320TIP3    H237452   2.286   0.900  14.148  0.2947  2.3670 -0.2652
 5321TIP3   OH237453   5.722   2.896  13.337 -0.6138  0.1614  0.3284
 5321TIP3    H137454   5.812   2.929  13.338 -0.6770  0.3258  0.6004
 5321TIP3    H237455   5.667   2.974  13.334 -0.7324  0.0835 -2.9733
 5322TIP3   OH237456   1.505   2.616   1.798  0.5588  0.3189 -0.2818
 5322TIP3    H137457   1.548   2.540   1.758  0.0221  0.5820 -1.3997
 5322TIP3    H237458   1.544   2.623   1.885  2.2972  0.1463 -1.0050
 5323TIP3   OH237459   2.796   4.937  15.169 -0.2918  0.4811 -0.4217
 5323TIP3    H137460   2.716   4.958  15.120  0.2383  0.1537 -1.4686
 5323TIP3    H237461   2.839   4.870  15.116 -0.0723 -0.4617  0.9186
 5324TIP3   OH237462   5.483   5.550  14.239 -0.0900  0.8003  0.5335
 5324TIP3    H137463   5.536   5.628  14.224  1.6028  0.1310  2.6281
 5324TIP3    H237464   5.453   5.557  14.329  1.7646 -1.8298  1.4821
 5325TIP3   OH237465   2.190   6.789   4.904  0.2407 -0.0692  0.1197
 5325TIP3    H137466   2.101   6.818   4.883  0.1200  1.3617  2.2969
 5325TIP3    H237467   2.221   6.853   4.968  2.1067 -1.6704  0.9053
 5326TIP3   OH237468   3.166   1.058  11.347 -0.3481 -0.2625 -0.3827
 5326TIP3    H137469   3.257   1.088  11.340 -0.9257  1.5058 -0.9536
 5326TIP3    H237470   3.168   0.967  11.317  1.2367 -0.2648 -0.3344
 5327TIP3   OH237471   4.873   4.900  12.521  0.0750  0.5605  0.5761
 5327TIP3    H137472   4.928   4.960  12.571  1.0733  0.6379 -0.5584
 5327TIP3    H237473   4.926   4.821  12.511  0.5989  1.1263 -1.6929
 5328TIP3   OH237474   0.716   1.829  12.925  0.4969 -0.0633  0.0945
 5328TIP3    H137475   0.808   1.820  12.904  0.4368  0.9562 -0.6674
 5328TIP3    H237476   0.703   1.923  12.936 -0.2934 -0.2577  0.9394
 5329TIP3   OH237477   3.902   5.427  13.815 -0.1972  0.3815  0.4430
 5329TIP3    H137478   3.831   5.426  13.879  1.0654  1.8712  1.9594
 5329TIP3    H237479   3.947   5.343  13.826 -0.7170  0.1265  0.6317
 5330TIP3   OH237480   6.207   1.406  16.012 -0.1416 -0.1162  0.0839
 5330TIP3    H137481   6.128   1.431  15.965  0.8594  0.1561 -1.5377
 5330TIP3    H237482   6.226   1.317  15.983 -0.9209 -0.9735  2.0128
 5331TIP3   OH237483   6.370   1.475  14.320 -0.1658  0.3647 -0.0528
 5331TIP3    H137484   6.401   1.563  14.340 -0.3759  0.8639 -1.7569
 5331TIP3    H237485   6.317   1.485  14.241 -0.1990 -1.2868 -0.2885
 5332TIP3   OH237486   0.488   6.630   3.690  0.7640 -0.3624  0.4956
 5332TIP3    H137487   0.402   6.622   3.731  0.4892  1.2600  0.2895
 5332TIP3    H237488   0.545   6.574   3.743 -0.2030 -0.6655  1.2415
 5333TIP3   OH237489   4.455   5.813  12.528  0.0561 -0.0013  0.2081
 5333TIP3    H137490   4.491   5.896  12.498 -0.0787 -0.6009 -1.7765
 5333TIP3    H237491   4.361   5.828  12.535 -0.1188 -0.2767 -1.3034
 5334TIP3   OH237492   6.670   3.973  12.151  0.0735 -0.1962  0.3051
 5334TIP3    H137493   6.588   4.002  12.191 -0.9605 -2.5924  0.0783
 5334TIP3    H237494   6.711   3.918  12.217  1.2413  0.5123  0.1971
 5335TIP3   OH237495   2.710   3.492  15.775  0.1050  0.4987 -0.3559
 5335TIP3    H137496   2.798   3.484  15.737 -0.0224  0.8255 -0.7286
 5335TIP3    H237497   2.654   3.441  15.717  0.1167 -0.0572  0.1227
 5336TIP3   OH237498   0.179   6.304  15.329 -0.1861  0.7017  0.4099
 5336TIP3    H137499   0.088   6.333  15.343 -0.0701  0.7478  1.0828
 5336TIP3    H237500   0.193   6.235  15.393 -0.2599 -0.4661 -0.7901
 5337TIP3   OH237501   6.635   0.167  13.604  0.6580  0.6879  0.3507
 5337TIP3    H137502   6.692   0.132  13.536  0.8516  1.7074 -0.0438
 5337TIP3    H237503   6.638   0.262  13.590  0.7194  0.9187  1.7935
 5338TIP3   OH237504   2.221   2.398  12.615 -0.0919  0.7018  0.1442
 5338TIP3    H137505   2.242   2.383  12.523 -0.5735  3.1973 -0.4510
 5338TIP3    H237506   2.305   2.422  12.655 -0.2528  1.9556 -0.2245
 5339TIP3   OH237507   0.291   4.638   0.252  0.4125  0.1407 -0.4101
 5339TIP3    H137508   0.337   4.556   0.235 -1.3179 -1.1949  0.9577
 5339TIP3    H237509   0.218   4.637   0.190 -1.0441 -0.6332  1.2292
 5340TIP3   OH237510   1.940   2.951  14.686  0.1307 -0.5514 -0.0967
 5340TIP3    H137511   1.960   2.983  14.774 -1.2332 -0.7591  0.3179
 5340TIP3    H237512   1.989   3.008  14.628  1.7025 -0.9132  0.8066
 5341TIP3   OH237513   3.842   1.775  14.684  0.5955  0.2122  0.4361
 5341TIP3    H137514   3.751   1.749  14.698  0.7424 -0.3964  0.2654
 5341TIP3    H237515   3.837   1.868  14.663 -0.1441 -0.1984 -1.3259
 5342TIP3   OH237516   4.674   3.939   1.430 -0.1227 -0.1578  0.1532
 5342TIP3    H137517   4.650   3.928   1.338 -0.0044  3.8062 -0.5643
 5342TIP3    H237518   4.764   3.910   1.436  0.1753  0.3989 -1.2765
 5343TIP3   OH237519   5.492   4.210   2.400 -0.0980 -0.0817 -0.4213
 5343TIP3    H137520   5.540   4.216   2.318  1.1409 -1.9220  0.1149
 5343TIP3    H237521   5.530   4.278   2.456 -1.7684  2.0135 -1.6806
 5344TIP3   OH237522   0.114   0.199   3.109 -0.3221  0.0256  0.2846
 5344TIP3    H137523   0.168   0.205   3.188  1.1252  1.8155 -0.7471
 5344TIP3    H237524   0.032   0.161   3.139 -0.2342  1.6111  2.8948
 5345TIP3   OH237525   6.657   6.353  11.558 -0.1055  0.4095 -0.0107
 5345TIP3    H137526   6.680   6.273  11.605  1.9219  1.3490  0.7102
 5345TIP3    H237527   6.703   6.347  11.475 -0.2738  0.6309 -0.1212
 5346TIP3   OH237528   1.691   4.835   4.725  0.1271  0.1156  0.3728
 5346TIP3    H137529   1.636   4.765   4.689  1.9806 -0.2663 -1.8933
 5346TIP3    H237530   1.763   4.789   4.768  2.6972  0.4266 -3.2126
 5347TIP3   OH237531   3.941   3.700  15.606  0.4399  0.2295  0.3011
 5347TIP3    H137532   3.864   3.755  15.595 -0.1229 -0.6909 -0.5890
 5347TIP3    H237533   3.939   3.673  15.698 -0.4687 -0.0196  0.2149
 5348TIP3   OH237534   5.147   4.331  13.876 -0.4182 -0.1558 -0.1051
 5348TIP3    H137535   5.053   4.328  13.897 -0.8093 -0.0878 -1.6506
 5348TIP3    H237536   5.169   4.424  13.879 -0.4670 -0.1505  0.0456
 5349TIP3   OH237537   1.560   5.066  16.420 -0.1397  0.6544  0.2682
 5349TIP3    H137538   1.479   5.094  16.463 -0.4379 -1.0928  0.9304
 5349TIP3    H237539   1.554   4.971  16.419  1.0948  0.5633 -1.3080
 5350TIP3   OH237540   1.506   2.626  11.502  0.2274  0.4691  0.3406
 5350TIP3    H137541   1.594   2.662  11.494 -0.8179  3.0307 -0.6798
 5350TIP3    H237542   1.451   2.701  11.527 -1.5409 -1.2236  1.8320
 5351TIP3   OH237543   6.303   6.355   3.435 -0.2268  0.4386 -0.1796
 5351TIP3    H137544   6.227   6.309   3.471  1.1092 -1.9945 -0.2805
 5351TIP3    H237545   6.267   6.408   3.364 -1.9949  0.3680  0.6011
 5352TIP3   OH237546   6.097   0.716   4.052  0.0785 -0.1855 -0.0480
 5352TIP3    H137547   6.133   0.628   4.049 -2.0243 -1.1927  1.3969
 5352TIP3    H237548   6.168   0.771   4.085  0.8732 -1.6965  0.8332
 5353TIP3   OH237549   2.066   6.655  15.949 -0.0839  0.0624 -0.2014
 5353TIP3    H137550   2.063   6.694  15.862  3.9102  0.3632 -0.4047
 5353TIP3    H237551   2.046   6.727  16.009 -0.4636  0.4487 -0.7871
 5354TIP3   OH237552   4.526   2.464   2.565 -0.2079 -0.1432 -0.6676
 5354TIP3    H137553   4.536   2.407   2.642  1.1114  1.6624  0.5731
 5354TIP3    H237554   4.432   2.468   2.551 -0.3691 -2.3435 -0.6077
 5355TIP3   OH237555   0.150   3.133  13.920 -0.5869 -0.0353  0.1629
 5355TIP3    H137556   0.068   3.129  13.971 -0.7098 -2.3098 -0.1174
 5355TIP3    H237557   0.218   3.151  13.985 -1.1967  1.2025  0.4956
 5356TIP3   OH237558   0.571   5.828   4.650  0.0566  0.0104 -0.1580
 5356TIP3    H137559   0.509   5.865   4.588  0.5252  0.7726 -0.1822
 5356TIP3    H237560   0.551   5.734   4.651 -0.7103  0.1644 -0.5875
 5357TIP3   OH237561   3.018   4.417   1.786 -0.0171  0.0082 -0.2042
 5357TIP3    H137562   2.935   4.422   1.740  0.9373 -1.1067 -2.1610
 5357TIP3    H237563   3.019   4.330   1.826  0.1902  0.0501 -0.1139
 5358TIP3   OH237564   4.323   0.982   0.442  0.2298 -0.7979  0.4270
 5358TIP3    H137565   4.259   0.929   0.488 -0.5684  0.5080  0.8995
 5358TIP3    H237566   4.280   1.068   0.432  0.0927 -1.1049 -3.2644
 5359TIP3   OH237567   6.335   3.773   6.038 -0.2304 -0.0719 -0.0616
 5359TIP3    H137568   6.345   3.849   6.095  1.4580  0.3965 -0.9317
 5359TIP3    H237569   6.421   3.762   5.998 -1.0046 -1.2307 -1.4665
 5360TIP3   OH237570   1.971   3.468   4.268 -0.4201  0.3934 -0.2865
 5360TIP3    H137571   2.023   3.546   4.285  1.0470 -0.8011  1.0650
 5360TIP3    H237572   1.910   3.465   4.342 -0.7959  0.5113 -0.5922
 5361TIP3   OH237573   5.221   4.748  13.010 -0.1563  0.0225 -0.0435
 5361TIP3    H137574   5.208   4.842  12.996 -0.1915  0.0034 -0.1388
 5361TIP3    H237575   5.133   4.712  13.018 -0.1399  0.3221  2.1787
 5362TIP3   OH237576   4.988   1.175  10.546 -0.6271 -0.1636 -0.6579
 5362TIP3    H137577   4.936   1.178  10.626 -1.0652  1.5122 -0.9737
 5362TIP3    H237578   4.924   1.186  10.475  0.0162  0.8950 -1.0966
 5363TIP3   OH237579   4.375   5.067   2.429  0.0322  0.1319  0.1216
 5363TIP3    H137580   4.440   5.117   2.381  0.9583  0.0357  1.2421
 5363TIP3    H237581   4.316   5.133   2.466 -1.2978  0.1818 -1.8789
 5364TIP3   OH237582   0.843   5.325  14.556 -0.0999  0.7313 -0.0347
 5364TIP3    H137583   0.938   5.337  14.552 -0.0306  1.6354  2.4230
 5364TIP3    H237584   0.807   5.402  14.512  0.2919  0.7123 -0.3965
 5365TIP3   OH237585   3.762   4.506   3.695  0.6276  0.1409 -0.2989
 5365TIP3    H137586   3.743   4.567   3.624 -0.6683  0.5793  0.3888
 5365TIP3    H237587   3.681   4.502   3.745  0.9524 -1.5213  0.1538
 5366TIP3   OH237588   4.997   6.238  11.183  0.1151 -0.1161 -0.9005
 5366TIP3    H137589   5.088   6.214  11.201  0.3513  0.2535 -1.5675
 5366TIP3    H237590   4.980   6.201  11.096 -0.1143  0.4904 -1.1155
 5367TIP3   OH237591   5.441   6.238   1.578  0.5203 -0.0206  0.2287
 5367TIP3    H137592   5.467   6.272   1.663  2.4397 -0.2810 -0.1949
 5367TIP3    H237593   5.363   6.288   1.554  0.8401  1.1081  1.4728
 5368TIP3   OH237594   2.895   5.331  10.711 -0.0651  0.1015  0.1433
 5368TIP3    H137595   2.966   5.290  10.760 -1.1482 -0.1632  1.5533
 5368TIP3    H237596   2.817   5.282  10.736 -1.1106  1.8161  0.4020
 5369TIP3   OH237597   4.146   2.320   5.738  0.2014 -0.3121 -0.8402
 5369TIP3    H137598   4.057   2.345   5.714  0.4804 -0.1012 -1.6813
 5369TIP3    H237599   4.155   2.229   5.707  0.1460 -0.4666 -0.4021
 5370TIP3   OH237600   0.381   3.587  15.869 -0.6846 -0.1984 -0.0703
 5370TIP3    H137601   0.350   3.677  15.859  0.0382 -0.0306 -0.8869
 5370TIP3    H237602   0.476   3.593  15.856 -0.6311 -1.0813 -0.1037
 5371TIP3   OH237603   5.911   4.348  12.726 -0.9298  0.5613 -0.2100
 5371TIP3    H137604   6.001   4.358  12.757 -0.4888 -0.1900 -1.2030
 5371TIP3    H237605   5.912   4.384  12.637 -1.4405 -0.1036 -0.4933
 5372TIP3   OH237606   2.512   0.814  10.906  0.1245 -0.1244  0.0983
 5372TIP3    H137607   2.477   0.896  10.870 -0.0831 -0.4284 -0.4147
 5372TIP3    H237608   2.606   0.827  10.910  0.2522 -0.3967 -1.4257
 5373TIP3   OH237609   5.815   6.087   2.277 -0.2536 -0.3839 -0.3368
 5373TIP3    H137610   5.880   6.025   2.310 -0.0290  0.1582  0.2643
 5373TIP3    H237611   5.781   6.046   2.198  1.6534 -0.1556 -1.3422
 5374TIP3   OH237612   6.059   4.077  10.679 -0.1615  0.5126  0.0801
 5374TIP3    H137613   6.120   4.071  10.752 -0.6362  0.3364  0.4662
 5374TIP3    H237614   6.112   4.057  10.602  0.8626  2.8015  0.0920
 5375TIP3   OH237615   0.040   6.346   4.916 -0.0445  0.0101  0.5409
 5375TIP3    H137616  -0.016   6.341   4.994 -0.3076  0.8010  0.4037
 5375TIP3    H237617   0.023   6.264   4.870 -1.3725  0.3874  0.3213
 5376TIP3   OH237618   2.631   5.335  16.882 -0.1179 -0.0048 -0.9619
 5376TIP3    H137619   2.573   5.259  16.885  0.1419 -0.2414 -1.6984
 5376TIP3    H237620   2.712   5.302  16.845  0.3283  0.4300 -0.3934
 5377TIP3   OH237621   3.287   3.824  15.379  0.2103  0.1119 -0.0364
 5377TIP3    H137622   3.306   3.868  15.296  0.6609 -0.0217 -0.0030
 5377TIP3    H237623   3.339   3.871  15.443 -0.6548  0.6511  0.2882
 5378TIP3   OH237624   4.300   2.498   1.886  0.0671  0.0389 -0.1887
 5378TIP3    H137625   4.364   2.433   1.857 -1.0267 -1.1627  0.0064
 5378TIP3    H237626   4.290   2.483   1.979  0.5854  1.2192  0.0761
 5379TIP3   OH237627   0.130   2.228   0.225  0.1484  0.0124 -0.2673
 5379TIP3    H137628   0.064   2.246   0.292  3.0003  1.8081  2.3269
 5379TIP3    H237629   0.179   2.153   0.258  1.6878  1.0109 -0.1848
 5380TIP3   OH237630   0.943   5.161   0.955  0.5981 -0.1403  0.2962
 5380TIP3    H137631   0.948   5.253   0.979  0.8911 -0.6899  2.5462
 5380TIP3    H237632   0.864   5.154   0.901 -0.0429  1.2247  1.0193
 5381TIP3   OH237633   4.281   2.273  12.101 -1.1392  0.6965  0.2110
 5381TIP3    H137634   4.219   2.263  12.029 -0.4320 -1.6972 -0.1290
 5381TIP3    H237635   4.350   2.330  12.065 -1.9453  1.4539 -0.1799
 5382TIP3   OH237636   1.262   0.808   2.365 -0.3565 -0.2020 -0.6558
 5382TIP3    H137637   1.242   0.716   2.351 -0.3257 -0.0748 -1.5684
 5382TIP3    H237638   1.355   0.810   2.389 -0.0614 -0.3063 -1.7748
 5383TIP3   OH237639   6.035   5.492  14.481 -0.8157  0.3563 -0.5926
 5383TIP3    H137640   6.007   5.401  14.482  1.0052 -0.2374 -1.1918
 5383TIP3    H237641   6.117   5.493  14.432 -1.5365  2.5558 -1.9326
 5384TIP3   OH237642   1.548   3.709  12.569 -0.0176 -0.0401  0.4234
 5384TIP3    H137643   1.597   3.663  12.502 -0.1185  1.1950 -0.5256
 5384TIP3    H237644   1.466   3.734  12.526 -0.3024  0.3180  1.1536
 5385TIP3   OH237645   4.473   5.539   2.214  0.3771 -0.0157 -0.4034
 5385TIP3    H137646   4.504   5.492   2.291 -0.4019 -0.8757 -0.5939
 5385TIP3    H237647   4.393   5.584   2.244 -0.4873 -1.1484 -0.9242
 5386TIP3   OH237648   0.535   0.151  16.967  0.3241 -0.2052  0.6012
 5386TIP3    H137649   0.466   0.139  16.901  0.3734 -0.4053  0.5849
 5386TIP3    H237650   0.525   0.077  17.026  0.4150 -0.1399  0.6998
 5387TIP3   OH237651   5.962   1.797   2.348  0.2100  0.2637  0.1905
 5387TIP3    H137652   5.881   1.786   2.397 -0.1611 -1.0258 -0.6585
 5387TIP3    H237653   5.947   1.874   2.293 -0.2023  0.3959  0.4852
 5388TIP3   OH237654   1.529   2.567   4.155 -0.8000  0.0571 -0.1893
 5388TIP3    H137655   1.596   2.498   4.154 -1.3110 -0.5460  1.6604
 5388TIP3    H237656   1.498   2.568   4.246 -1.6936  1.8925 -0.4752
 5389TIP3   OH237657   4.381   1.095   3.749 -0.5571 -0.4668 -0.1196
 5389TIP3    H137658   4.389   1.133   3.837  2.2114  2.6711 -1.5191
 5389TIP3    H237659   4.296   1.126   3.717 -0.9177 -0.3796  0.8684
 5390TIP3   OH237660   5.141   5.588   4.515  0.1362  0.0550  0.0339
 5390TIP3    H137661   5.163   5.507   4.470 -1.1344  0.1979 -0.8939
 5390TIP3    H237662   5.053   5.609   4.485  0.5290  1.9189  0.0634
 5391TIP3   OH237663   6.694   1.564   5.322  0.6269 -0.6394 -0.2661
 5391TIP3    H137664   6.707   1.474   5.351 -0.4412 -0.1583  1.9944
 5391TIP3    H237665   6.604   1.584   5.348  1.5401  1.7692  1.3868
 5392TIP3   OH237666   4.741   1.218   4.107  0.0986 -0.5654 -0.3698
 5392TIP3    H137667   4.774   1.235   4.196 -0.3046  0.2786 -0.3640
 5392TIP3    H237668   4.820   1.199   4.056  0.3523 -0.9006  0.1297
 5393TIP3   OH237669   4.609   1.328   4.856 -0.0469  0.5819 -0.2054
 5393TIP3    H137670   4.593   1.284   4.940  0.9056 -1.0062 -0.8154
 5393TIP3    H237671   4.668   1.400   4.878 -0.0682  0.3848  0.5454
 5394TIP3   OH237672   3.285   1.176  13.749 -0.2460 -0.0247  0.2120
 5394TIP3    H137673   3.254   1.091  13.780 -1.0530 -1.0100 -2.8706
 5394TIP3    H237674   3.380   1.168  13.745 -0.2857 -0.5951  0.4325
 5395TIP3   OH237675   0.965   2.155   6.331  0.5764  0.5371  0.3874
 5395TIP3    H137676   0.934   2.225   6.388  1.8295  2.1358 -0.7827
 5395TIP3    H237677   1.059   2.172   6.321  0.4889  0.0600 -1.7387
 5396TIP3   OH237678   2.754   0.374  16.527 -0.0529  0.0272  0.1495
 5396TIP3    H137679   2.820   0.436  16.497  1.6378 -1.6295  0.2417
 5396TIP3    H237680   2.744   0.312  16.454 -0.9347 -0.1756  0.4336
 5397TIP3   OH237681   3.826   6.367  12.176 -0.4406 -0.7993  0.1202
 5397TIP3    H137682   3.757   6.433  12.166  2.2813  2.1860 -0.8930
 5397TIP3    H237683   3.855   6.376  12.267  0.9185  0.6384 -0.3992
 5398TIP3   OH237684   2.699   0.421   6.127  0.3214 -0.8304 -0.2039
 5398TIP3    H137685   2.677   0.505   6.168 -0.5102 -1.1248 -0.0117
 5398TIP3    H237686   2.651   0.422   6.044  1.3869 -0.5601 -0.8354
 5399TIP3   OH237687   1.740   2.174  11.795  0.3065  0.0671 -0.8824
 5399TIP3    H137688   1.648   2.152  11.789  0.4160 -0.5666 -0.3172
 5399TIP3    H237689   1.786   2.091  11.784  0.9534  0.7084 -4.0667
 5400TIP3   OH237690   6.179   1.971   3.806 -0.3378  0.5810 -0.0639
 5400TIP3    H137691   6.155   1.883   3.780 -0.9051  0.5531  0.5045
 5400TIP3    H237692   6.156   1.975   3.899  0.2084  1.1456  0.0515
 5401TIP3   OH237693   1.904   4.442   2.808  0.2792  0.8332 -0.0591
 5401TIP3    H137694   1.895   4.535   2.830  1.1855  1.2824 -1.4926
 5401TIP3    H237695   1.817   4.416   2.776 -0.5469  0.6290  2.1555
 5402TIP3   OH237696   4.559   5.974  13.926  0.0922  0.2233  0.3742
 5402TIP3    H137697   4.636   5.956  13.872  2.0957  1.8605  2.4428
 5402TIP3    H237698   4.542   5.891  13.971  0.0202 -0.4272 -0.8308
 5403TIP3   OH237699   5.325   1.354  14.197 -0.6515  0.1240 -0.1471
 5403TIP3    H137700   5.381   1.371  14.122  0.5706 -1.9034  0.2282
 5403TIP3    H237701   5.255   1.299  14.163 -0.2274 -0.5970  0.1058
 5404TIP3   OH237702   3.540   0.072  13.843 -0.2172  0.4652 -0.0240
 5404TIP3    H137703   3.475   0.114  13.900  0.4829 -0.1704  1.3050
 5404TIP3    H237704   3.488   0.025  13.778 -1.0294  2.3093 -0.7764
 5405TIP3   OH237705   0.389   6.818  12.450 -0.1128 -0.1707 -0.5773
 5405TIP3    H137706   0.391   6.855  12.539  1.4293  0.1510 -0.7211
 5405TIP3    H237707   0.469   6.765  12.445 -0.4260 -0.5549 -1.6243
 5406TIP3   OH237708   1.998   6.483   4.505  0.0389 -0.4285 -0.0961
 5406TIP3    H137709   2.058   6.503   4.433  0.2226  0.8402  0.3802
 5406TIP3    H237710   2.038   6.524   4.582 -1.6504  0.8712  0.1442
 5407TIP3   OH237711   3.541   2.269  13.998  0.2021  0.0710 -0.2841
 5407TIP3    H137712   3.504   2.340  14.050 -0.6428 -0.7154  0.2179
 5407TIP3    H237713   3.479   2.196  14.008  0.2147 -0.2484 -2.0655
 5408TIP3   OH237714   4.913   4.496   4.436 -0.2003 -0.0233 -0.1125
 5408TIP3    H137715   4.857   4.569   4.410  0.0617  0.0283 -0.5386
 5408TIP3    H237716   4.882   4.421   4.387  0.4466  0.1291 -0.7717
 5409TIP3   OH237717   5.810   5.451  14.783 -0.6291  0.1299  0.4532
 5409TIP3    H137718   5.888   5.397  14.776 -1.0032 -0.7495  2.5134
 5409TIP3    H237719   5.840   5.532  14.824 -0.9350 -0.6925  2.4205
 5410TIP3   OH237720   0.009   6.371  12.850  0.0643  0.7590  0.0176
 5410TIP3    H137721  -0.041   6.348  12.771 -1.7592 -0.3774  1.4184
 5410TIP3    H237722   0.007   6.467  12.853  0.3344  0.8332 -1.3802
 5411TIP3   OH237723   4.414   3.539   1.079  0.0327 -0.5293  0.4390
 5411TIP3    H137724   4.355   3.517   1.008  1.5544  1.1339 -1.4986
 5411TIP3    H237725   4.469   3.461   1.091 -0.8524 -1.1554  0.4725
 5412TIP3   OH237726   1.524   0.827  13.089  0.1522  0.2423  0.7797
 5412TIP3    H137727   1.431   0.834  13.069  0.4575  0.3670 -0.7343
 5412TIP3    H237728   1.566   0.891  13.030  1.1329  0.7122  1.9504
 5413TIP3   OH237729   6.823   0.620   1.844  0.8710  0.1806 -0.0744
 5413TIP3    H137730   6.770   0.543   1.866  0.7507  0.1075 -0.6273
 5413TIP3    H237731   6.812   0.678   1.919 -0.8564  0.6292 -0.6397
 5414TIP3   OH237732   4.681   2.193  16.102  0.0937 -0.2412  1.0297
 5414TIP3    H137733   4.705   2.110  16.060 -1.0518 -0.1184  0.0799
 5414TIP3    H237734   4.662   2.170  16.192  1.1657 -0.7700  1.1386
 5415TIP3   OH237735   3.582   3.419   3.115  0.1449 -0.0361  0.1455
 5415TIP3    H137736   3.571   3.510   3.141  2.0071  0.5068 -0.7757
 5415TIP3    H237737   3.540   3.413   3.029 -0.3515 -0.1733  0.3928
 5416TIP3   OH237738   2.670   2.296  14.816 -0.4624 -0.2852 -0.0283
 5416TIP3    H137739   2.650   2.378  14.771 -1.2374  0.5736  1.7905
 5416TIP3    H237740   2.587   2.248  14.819 -0.9465  0.5844  2.2015
 5417TIP3   OH237741   2.561   4.429   0.640 -0.2479 -0.3051  0.4028
 5417TIP3    H137742   2.628   4.480   0.594 -1.8338  1.0515 -0.5051
 5417TIP3    H237743   2.507   4.392   0.570 -1.6095  0.2854  1.1038
 5418TIP3   OH237744   3.203   3.258   2.550  0.4156 -0.3927 -0.0688
 5418TIP3    H137745   3.285   3.271   2.599  0.2083  0.3230  0.1103
 5418TIP3    H237746   3.153   3.196   2.603  0.6429 -0.4636  0.0665
 5419TIP3   OH237747   3.100   1.775   4.805 -0.2971  0.0644 -0.2214
 5419TIP3    H137748   3.162   1.724   4.753 -0.4461 -0.0466 -0.2927
 5419TIP3    H237749   3.023   1.719   4.811 -0.2453  0.0377  0.2000
 5420TIP3   OH237750   1.480   0.802  11.584  0.5547  0.1549  0.1995
 5420TIP3    H137751   1.535   0.751  11.643  0.4761 -0.3103 -0.1222
 5420TIP3    H237752   1.520   0.889  11.584  1.9402 -0.4400 -0.8371
 5421TIP3   OH237753   2.691   1.393  12.996 -0.1641  0.4174 -0.4290
 5421TIP3    H137754   2.705   1.336  12.921 -1.5656  0.2875 -0.6138
 5421TIP3    H237755   2.771   1.444  13.003  0.9711 -1.2624 -0.5121
 5422TIP3   OH237756   6.477   1.667  15.157  0.0100 -0.4027  0.5999
 5422TIP3    H137757   6.491   1.762  15.148  1.6943 -0.6252  0.5032
 5422TIP3    H237758   6.559   1.634  15.193 -0.8602 -1.7317  1.4635
 5423TIP3   OH237759   5.003   5.453   1.676 -0.0154 -0.8634 -0.1377
 5423TIP3    H137760   4.910   5.471   1.685  0.1783  0.6938 -0.8373
 5423TIP3    H237761   5.029   5.416   1.761 -0.8515  0.7505  0.8735
 5424TIP3   OH237762   4.647   0.714   1.968 -0.5434  0.5661 -0.0049
 5424TIP3    H137763   4.720   0.772   1.947 -1.0105  1.3003  0.3604
 5424TIP3    H237764   4.605   0.697   1.883  0.7756 -0.9044 -0.4187
 5425TIP3   OH237765   3.843   1.002   3.826  0.1886 -0.2411 -0.0197
 5425TIP3    H137766   3.902   1.023   3.899 -0.1744  0.5490  0.0551
 5425TIP3    H237767   3.779   1.073   3.826  0.3656 -0.0598 -1.3062
 5426TIP3   OH237768   1.051   0.069  14.277  0.2405 -0.0886  0.0165
 5426TIP3    H137769   1.035  -0.014  14.322  2.2567 -1.4307 -1.5560
 5426TIP3    H237770   1.142   0.091  14.300  0.0002  1.2854 -0.2463
 5427TIP3   OH237771   4.441   3.413   1.512 -0.2327  0.0673 -0.1255
 5427TIP3    H137772   4.421   3.342   1.452 -1.6737 -0.3433  0.7897
 5427TIP3    H237773   4.430   3.375   1.599 -1.2309  1.4409  0.3956
 5428TIP3   OH237774   4.183   5.673  15.176  0.1724 -0.0886  0.1326
 5428TIP3    H137775   4.119   5.607  15.149 -0.4985 -0.2504  2.0202
 5428TIP3    H237776   4.143   5.757  15.153  1.0070 -0.2565 -2.2369
 5429TIP3   OH237777   5.524   4.031  13.952 -0.6141 -0.0312  0.5677
 5429TIP3    H137778   5.476   4.087  13.891  0.6030  0.6483  0.1901
 5429TIP3    H237779   5.459   4.006  14.018 -1.8282 -0.3279 -0.6771
 5430TIP3   OH237780   0.195   6.810  14.531 -0.0587  0.1533 -0.6296
 5430TIP3    H137781   0.258   6.874  14.499  0.2360 -0.0674 -0.4878
 5430TIP3    H237782   0.148   6.855  14.601 -2.1696  1.4191 -2.6777
 5431TIP3   OH237783   6.701   5.918   2.345  0.0397 -0.1436 -0.0796
 5431TIP3    H137784   6.675   5.893   2.256 -1.4619 -2.1377  0.8423
 5431TIP3    H237785   6.690   5.838   2.397  2.2870  0.5465  1.6630
 5432TIP3   OH237786   5.743   1.067  15.052 -0.5436  0.2920 -0.5628
 5432TIP3    H137787   5.801   1.142  15.066  1.6594 -1.5052  0.6952
 5432TIP3    H237788   5.721   1.070  14.959  2.7031  0.3829 -1.4424
 5433TIP3   OH237789   5.737   1.024  16.195 -0.1462 -0.3768  0.5407
 5433TIP3    H137790   5.702   0.956  16.253  0.1965 -0.7904  0.2760
 5433TIP3    H237791   5.772   1.090  16.253  0.3563 -0.8723  0.8072
 5434TIP3   OH237792   2.649   3.652  13.427 -0.0629 -0.4832 -0.0637
 5434TIP3    H137793   2.595   3.703  13.488  0.1272 -1.0983  0.6271
 5434TIP3    H237794   2.705   3.599  13.483  1.2128  0.0774 -0.7740
 5435TIP3   OH237795   5.154   5.256  10.910 -0.2980  0.0668 -0.6262
 5435TIP3    H137796   5.165   5.165  10.883  1.4372  0.2319 -0.6312
 5435TIP3    H237797   5.064   5.262  10.943 -0.3433 -1.7189 -0.3622
 5436TIP3   OH237798   6.099   3.267   2.201 -0.1730 -0.3478 -0.5426
 5436TIP3    H137799   6.189   3.300   2.195  0.1477 -1.0156  0.4476
 5436TIP3    H237800   6.082   3.228   2.115  0.3976 -0.0174 -0.8131
 5437TIP3   OH237801   1.229   0.594  11.728 -0.3812  0.1774  0.4304
 5437TIP3    H137802   1.145   0.548  11.724 -0.6087  0.3865  2.0760
 5437TIP3    H237803   1.207   0.685  11.707 -0.3633  0.0244 -0.2699
 5438TIP3   OH237804   3.013   2.967   4.940 -0.0002  0.0049  0.1818
 5438TIP3    H137805   2.984   2.998   4.854  0.4368 -1.3021 -0.4541
 5438TIP3    H237806   2.932   2.957   4.990 -0.1433  2.8912  0.7333
 5439TIP3   OH237807   5.798   6.099   6.377  0.1460 -0.1628  0.2406
 5439TIP3    H137808   5.779   6.019   6.427  0.6269  0.4752  1.4862
 5439TIP3    H237809   5.876   6.136   6.420  0.0760  0.8422 -0.4728
 5440TIP3   OH237810   2.017   0.162   1.933 -0.1692  0.7204 -0.4953
 5440TIP3    H137811   1.944   0.105   1.959  0.6120 -0.8695 -1.6066
 5440TIP3    H237812   1.998   0.185   1.842  1.1863 -0.5627 -1.1343
 5441TIP3   OH237813   2.148   3.482   0.207  0.2796  0.9055 -0.4882
 5441TIP3    H137814   2.172   3.399   0.247 -0.6938  1.1207  0.5876
 5441TIP3    H237815   2.172   3.548   0.272 -2.5464  1.1690  0.4408
 5442TIP3   OH237816   5.198   3.171   2.594  0.3538 -0.0710  0.1801
 5442TIP3    H137817   5.152   3.236   2.542  2.4215  1.5684  0.2957
 5442TIP3    H237818   5.179   3.196   2.685  1.6992  0.8281  0.2320
 5443TIP3   OH237819   4.978   0.636   3.272  0.8173  0.4988 -0.1785
 5443TIP3    H137820   5.023   0.708   3.227  1.5673  1.3960  1.8863
 5443TIP3    H237821   5.048   0.580   3.304  0.4363  1.0730  1.7355
 5444TIP3   OH237822   3.575   0.068   3.618  0.0871 -0.1287 -0.2781
 5444TIP3    H137823   3.660   0.055   3.576  0.1192 -2.6008  0.3681
 5444TIP3    H237824   3.547  -0.020   3.643 -1.7740  0.8249  1.2965
 5445TIP3   OH237825   3.917   3.052  12.626 -0.4306  0.3405 -0.5550
 5445TIP3    H137826   3.827   3.041  12.596 -0.5345  0.3821 -0.2574
 5445TIP3    H237827   3.956   2.965  12.617 -0.5636  0.2719 -0.4705
 5446TIP3   OH237828   5.528   2.415  11.322 -0.4092 -0.3082 -0.1006
 5446TIP3    H137829   5.501   2.355  11.252 -0.9845 -0.3605  0.1610
 5446TIP3    H237830   5.518   2.502  11.285  0.6457 -0.3707 -0.5597
 5447TIP3   OH237831   5.226   6.458   2.270 -0.4471 -0.5963 -0.4984
 5447TIP3    H137832   5.168   6.427   2.340  1.8453 -2.8265  0.5623
 5447TIP3    H237833   5.278   6.527   2.312 -0.2333 -0.7426 -0.5229
 5448TIP3   OH237834   4.493   4.405  14.630  0.0889 -0.0970 -0.3871
 5448TIP3    H137835   4.558   4.425  14.698  0.5047 -0.4470 -0.6773
 5448TIP3    H237836   4.423   4.358  14.675 -1.2196  2.4698  0.4610
 5449TIP3   OH237837   6.030   5.720   1.231  0.5178  0.3911  0.2300
 5449TIP3    H137838   6.101   5.784   1.229 -0.0192  1.0040  0.5108
 5449TIP3    H237839   6.074   5.635   1.228  1.3026  0.7377  1.4941
 5450TIP3   OH237840   5.044   5.090   3.225 -0.1968 -0.5029 -0.2184
 5450TIP3    H137841   5.131   5.089   3.186 -0.3494 -1.8285 -0.5673
 5450TIP3    H237842   5.004   5.171   3.192  0.4575 -0.5067 -1.0489
 5451TIP3   OH237843   4.321   0.680   5.376 -0.2013 -0.5978 -0.1058
 5451TIP3    H137844   4.374   0.615   5.329  0.2776  0.0931 -0.5297
 5451TIP3    H237845   4.379   0.756   5.384 -0.8147 -0.1681  0.2534
 5452TIP3   OH237846   6.228   6.461   5.573 -0.0082  0.2116  0.2438
 5452TIP3    H137847   6.250   6.551   5.598 -1.2179  1.1430 -1.7818
 5452TIP3    H237848   6.309   6.412   5.585  1.4662  2.1697 -1.1468
 5453TIP3   OH237849   1.020   1.011  16.910 -0.0136  0.0385 -0.1785
 5453TIP3    H137850   1.019   1.087  16.852  2.5476  0.2115 -0.1109
 5453TIP3    H237851   1.058   0.941  16.857  1.0040 -0.1850  0.7987
 5454TIP3   OH237852   3.743   4.845  10.708  0.0419  0.3213  0.1398
 5454TIP3    H137853   3.678   4.797  10.758 -0.4824 -1.3160 -1.9315
 5454TIP3    H237854   3.692   4.901  10.649  0.4186 -1.1064 -1.6233
 5455TIP3   OH237855   3.683   0.425  14.914 -0.1601 -0.3054 -0.1310
 5455TIP3    H137856   3.684   0.407  15.008 -3.4895  3.3893  0.8645
 5455TIP3    H237857   3.694   0.520  14.908 -1.5630 -0.2254 -3.3672
 5456TIP3   OH237858   0.155   6.340   3.750  0.1085 -0.4919 -0.4449
 5456TIP3    H137859   0.088   6.350   3.817  1.0188  0.6669  0.3252
 5456TIP3    H237860   0.223   6.285   3.791  0.8926  0.6239 -0.2157
 5457TIP3   OH237861   2.731   4.448   1.969 -0.5227 -0.1740  0.1369
 5457TIP3    H137862   2.715   4.468   1.877  0.4841 -0.1027 -0.0339
 5457TIP3    H237863   2.761   4.357   1.968  3.2179  0.8895 -0.1041
 5458TIP3   OH237864   4.431   0.920  15.004 -0.1860  0.7478 -0.3484
 5458TIP3    H137865   4.372   0.994  14.989 -1.1010  0.1944  0.3691
 5458TIP3    H237866   4.494   0.952  15.069 -0.7481  0.8288  0.1671
 5459TIP3   OH237867   4.144   6.445  15.495 -0.1284  0.1919 -0.5338
 5459TIP3    H137868   4.202   6.393  15.551  1.0608 -0.9368 -2.6829
 5459TIP3    H237869   4.117   6.384  15.427  2.0157  2.4571 -3.6949
 5460TIP3   OH237870   6.535   6.407  12.830  0.1753  0.2760  0.3324
 5460TIP3    H137871   6.444   6.414  12.799  0.0310  0.0323  0.6913
 5460TIP3    H237872   6.588   6.411  12.751 -0.0204  2.4962  0.2253
 5461TIP3   OH237873   2.174   4.329  12.196 -0.7204  0.5785  0.3083
 5461TIP3    H137874   2.253   4.383  12.200 -1.0440  1.0066  1.0057
 5461TIP3    H237875   2.206   4.240  12.182 -0.1214  0.7585  0.5239
 5462TIP3   OH237876   5.086   4.585   1.197  0.6305  0.2871  0.4533
 5462TIP3    H137877   5.099   4.560   1.105  1.3586  0.2512  0.5561
 5462TIP3    H237878   5.041   4.510   1.236  1.1092 -0.0705  0.3244
 5463TIP3   OH237879   6.022   4.864  12.305 -0.3960  0.0539  0.2073
 5463TIP3    H137880   6.088   4.862  12.235  0.2913  4.1561  0.5243
 5463TIP3    H237881   6.074   4.859  12.385 -1.1702 -4.4468  0.7060
 5464TIP3   OH237882   6.478   0.191   4.266 -0.1417 -0.3033  0.7120
 5464TIP3    H137883   6.492   0.265   4.325 -0.8770 -0.4229  1.0425
 5464TIP3    H237884   6.501   0.226   4.179  1.5612 -0.3124  1.1175
 5465TIP3   OH237885   0.506   3.672   4.863 -0.2441 -0.3699 -0.4223
 5465TIP3    H137886   0.542   3.634   4.943  1.6134 -2.0843 -1.9670
 5465TIP3    H237887   0.557   3.752   4.849  0.4254 -0.8146 -0.5989
 5466TIP3   OH237888   5.635   6.251   6.215  0.3807 -0.4279 -0.0299
 5466TIP3    H137889   5.664   6.187   6.281 -0.8900 -0.6080  0.3791
 5466TIP3    H237890   5.675   6.333   6.243  4.3707 -1.4235 -2.0842
 5467TIP3   OH237891   0.081   2.911   5.946 -0.3557 -0.0179 -0.7448
 5467TIP3    H137892   0.029   2.850   6.000  0.3595 -1.2644 -1.4150
 5467TIP3    H237893   0.038   2.996   5.958 -2.0949 -0.8496 -0.6824
 5468TIP3   OH237894   1.535   3.739   1.916  0.2404  0.2604  0.1033
 5468TIP3    H137895   1.541   3.668   1.980  0.9525 -0.3353 -0.6036
 5468TIP3    H237896   1.583   3.811   1.956 -1.5449  0.8288  1.3962
 5469TIP3   OH237897   3.244   0.495  11.737  0.3801  0.0839  0.1698
 5469TIP3    H137898   3.262   0.416  11.788  0.0758 -0.7802 -1.0200
 5469TIP3    H237899   3.156   0.482  11.703  0.3717  0.8960 -0.1384
 5470TIP3   OH237900   0.234   3.934   2.715  0.0655 -0.1614  0.2916
 5470TIP3    H137901   0.260   3.842   2.702 -0.3429 -0.2639  0.1870
 5470TIP3    H237902   0.149   3.928   2.759 -0.5794  0.1573 -0.8851
 5471TIP3   OH237903   2.810   2.281  15.978 -0.4956  0.0097  0.2655
 5471TIP3    H137904   2.729   2.284  15.926 -1.4574 -0.0240  1.7136
 5471TIP3    H237905   2.865   2.216  15.932 -0.1124  1.9789 -2.3053
 5472TIP3   OH237906   4.099   2.554   5.183  0.0358 -0.2091 -0.2124
 5472TIP3    H137907   4.058   2.627   5.136  0.6580 -0.5227 -1.2624
 5472TIP3    H237908   4.125   2.493   5.115  1.3269 -0.5006  0.5183
 5473TIP3   OH237909   4.402   1.659   0.582  0.4436  0.0999 -0.0230
 5473TIP3    H137910   4.372   1.739   0.539  2.4911  0.4038 -1.0051
 5473TIP3    H237911   4.394   1.591   0.515 -0.9685 -0.4886  0.7037
 5474TIP3   OH237912   5.367   0.271  16.046 -0.2628 -0.3937  0.1248
 5474TIP3    H137913   5.302   0.237  15.985  1.1391 -0.9994 -1.0805
 5474TIP3    H237914   5.316   0.325  16.107 -1.7523  0.0848 -1.4519
 5475TIP3   OH237915   3.510   0.331  17.205  0.0415  0.3513 -0.1284
 5475TIP3    H137916   3.419   0.351  17.225  0.0569  1.5108 -1.1131
 5475TIP3    H237917   3.558   0.411  17.228  0.5785  0.3227 -1.1092
 5476TIP3   OH237918   2.990   6.117  17.131 -0.0751  0.4277 -0.1718
 5476TIP3    H137919   2.950   6.040  17.091 -0.5021  1.0710 -1.0149
 5476TIP3    H237920   2.924   6.148  17.193 -0.0100  0.2662 -0.0207
 5477TIP3   OH237921   3.243   0.440   5.406  0.1069  0.0882  0.2074
 5477TIP3    H137922   3.206   0.514   5.455 -0.0568 -0.4625  0.9371
 5477TIP3    H237923   3.177   0.419   5.339 -0.2006  0.1112  0.4990
 5478TIP3   OH237924   1.747   0.110   1.547 -0.3580 -0.0832  0.5331
 5478TIP3    H137925   1.680   0.042   1.542 -1.7600  0.8512  3.7232
 5478TIP3    H237926   1.813   0.075   1.606 -0.2567  0.6428  0.8659
 5479TIP3   OH237927   2.275   3.645  16.298  0.2320 -0.1657  0.4916
 5479TIP3    H137928   2.253   3.588  16.372  1.9440 -0.0779  1.1255
 5479TIP3    H237929   2.216   3.719  16.305 -0.6389 -0.8820  0.8686
 5480TIP3   OH237930   4.637   4.771   2.641  1.0005  0.5270 -0.3545
 5480TIP3    H137931   4.642   4.714   2.565 -0.4965  1.7783 -1.4437
 5480TIP3    H237932   4.715   4.749   2.692  0.7005 -2.1570 -0.9183
 5481TIP3   OH237933   2.830   2.757  17.214 -0.1082 -0.0503 -0.3356
 5481TIP3    H137934   2.879   2.695  17.160 -1.2131  1.2690 -3.0478
 5481TIP3    H237935   2.865   2.843  17.191 -1.4891  0.6573  0.0629
 5482TIP3   OH237936   3.744   1.685  12.829  0.2777  0.0279 -1.0002
 5482TIP3    H137937   3.680   1.749  12.861 -0.5002 -0.9747 -0.4725
 5482TIP3    H237938   3.824   1.735  12.815 -0.4208  1.1777 -0.9647
 5483TIP3   OH237939   1.628   4.390  15.291 -0.3550 -0.5193 -0.5725
 5483TIP3    H137940   1.600   4.304  15.322 -0.4536 -0.2143  0.2113
 5483TIP3    H237941   1.632   4.381  15.196  1.5848 -1.9956 -0.4233
 5484TIP3   OH237942   2.876   3.231  12.497  0.4308  0.0791  0.0476
 5484TIP3    H137943   2.966   3.248  12.523  0.3083  0.2597  0.3680
 5484TIP3    H237944   2.855   3.146  12.536  0.7415 -0.3807 -0.7657
 5485TIP3   OH237945   5.595   1.018  11.768 -0.2175  0.0068 -0.5602
 5485TIP3    H137946   5.505   0.988  11.757  0.2353 -2.1178  0.9785
 5485TIP3    H237947   5.599   1.049  11.858  0.8480 -1.0112 -0.2311
 5486TIP3   OH237948   0.570   1.717   5.985  0.5337 -0.2636  0.7223
 5486TIP3    H137949   0.534   1.755   5.906 -0.8376 -2.5680  0.1543
 5486TIP3    H237950   0.513   1.748   6.055 -0.1120 -0.6565  0.3769
 5487TIP3   OH237951   5.002   4.949  17.061  0.5522  0.2296 -0.0833
 5487TIP3    H137952   5.018   4.989  17.146 -0.1714  0.3044  0.0216
 5487TIP3    H237953   4.986   4.856  17.081  2.3743 -0.1780 -0.3404
 5488TIP3   OH237954   1.303   0.443   2.936 -0.2751  0.3183  0.1996
 5488TIP3    H137955   1.394   0.453   2.908 -0.6501  0.6798 -0.9734
 5488TIP3    H237956   1.307   0.434   3.031  0.8696  1.7476  0.3114
 5489TIP3   OH237957   3.047   2.738  15.738 -0.2922 -0.6515 -0.0522
 5489TIP3    H137958   3.141   2.739  15.722  0.0745  3.1686  1.2514
 5489TIP3    H237959   3.031   2.654  15.781  2.6701 -1.1082  0.3877
 5490TIP3   OH237960   0.532   5.031  11.251 -0.5837  0.0973  0.4335
 5490TIP3    H137961   0.574   4.999  11.330 -1.5267  0.2695  1.0149
 5490TIP3    H237962   0.442   5.049  11.277 -1.4412 -1.6116 -1.1313
 5491TIP3   OH237963   2.710   2.543   3.361  0.1274  0.1125  0.7474
 5491TIP3    H137964   2.654   2.617   3.387 -1.0041 -0.4397 -0.0469
 5491TIP3    H237965   2.777   2.582   3.305 -1.0423  0.4442 -0.4875
 5492TIP3   OH237966   6.575   5.059  10.770 -1.0188 -0.3510 -0.0475
 5492TIP3    H137967   6.565   4.983  10.712  0.7462 -0.7568  0.1087
 5492TIP3    H237968   6.624   5.025  10.845  0.9276  1.1671 -0.5465
 5493TIP3   OH237969   6.232   2.069   3.358 -0.2955 -0.4037 -0.3524
 5493TIP3    H137970   6.236   2.157   3.321  0.2816  0.1826  0.9940
 5493TIP3    H237971   6.215   2.011   3.284  1.6687  0.5954 -1.6673
 5494TIP3   OH237972   3.092   5.357  12.415  0.2227  0.0894 -0.9324
 5494TIP3    H137973   3.150   5.356  12.491  0.0485  0.8067 -0.7830
 5494TIP3    H237974   3.039   5.435  12.427 -0.4826 -0.3302 -1.2913
 5495TIP3   OH237975   5.623   0.409   4.488 -0.0321  0.2016  0.0656
 5495TIP3    H137976   5.625   0.409   4.584 -0.5352  0.8624  0.0832
 5495TIP3    H237977   5.700   0.459   4.462 -0.4685  0.9443  0.1578
 5496TIP3   OH237978   6.255   2.139  16.718 -0.0903  0.3999  0.1046
 5496TIP3    H137979   6.227   2.110  16.632 -1.1673  0.6586  0.3557
 5496TIP3    H237980   6.333   2.193  16.701  0.5699 -0.7196 -0.5538
 5497TIP3   OH237981   0.503   3.851  16.483 -0.2364 -0.2445 -0.0902
 5497TIP3    H137982   0.436   3.912  16.512 -2.1268 -2.0595 -0.4469
 5497TIP3    H237983   0.512   3.788  16.554 -0.6236 -1.3435 -0.9825
 5498TIP3   OH237984   3.675   6.598   4.777  0.1344 -0.0208  0.0248
 5498TIP3    H137985   3.625   6.536   4.831 -1.0225  0.0862 -0.8730
 5498TIP3    H237986   3.665   6.564   4.688  1.9290 -0.1374 -0.1576
 5499TIP3   OH237987   3.292   0.505  15.148  0.2018 -0.3172  0.3251
 5499TIP3    H137988   3.343   0.506  15.230  1.4538  2.5487 -0.3637
 5499TIP3    H237989   3.349   0.462  15.085  1.3903  1.8378 -0.1561
 5500TIP3   OH237990   0.774   2.398   4.503 -0.5217  0.6649  0.0463
 5500TIP3    H137991   0.821   2.482   4.499 -0.7640  0.8256  0.5496
 5500TIP3    H237992   0.780   2.364   4.414  1.7654  0.0095  0.3759
 5501TIP3   OH237993   0.585   3.914  15.389  0.4186 -0.0998  0.1425
 5501TIP3    H137994   0.528   3.921  15.312  0.7807 -1.3925 -0.2646
 5501TIP3    H237995   0.530   3.943  15.462 -0.3564 -0.1342 -0.4178
 5502TIP3   OH237996   2.600   6.485   2.321 -0.0306  0.2217  0.3054
 5502TIP3    H137997   2.694   6.500   2.312  0.0152 -1.3523 -3.0849
 5502TIP3    H237998   2.593   6.407   2.377  0.6790  0.2023  0.3704
 5503TIP3   OH237999   4.467   2.886  14.860  0.2660 -0.0397 -0.6588
 5503TIP3    H138000   4.400   2.942  14.900  1.2219  0.9987 -0.4456
 5503TIP3    H238001   4.458   2.802  14.905 -0.0602  0.4728  0.2667
 5504TIP3   OH238002   4.559   1.954   6.021  0.0341  0.6135 -0.4508
 5504TIP3    H138003   4.464   1.955   6.008 -0.2960  0.3732  1.6026
 5504TIP3    H238004   4.570   1.941   6.115  2.1210  0.4077 -0.6792
 5505TIP3   OH238005   4.285   2.611   0.034  0.2372  1.1090  0.1634
 5505TIP3    H138006   4.193   2.639   0.040  0.2783  1.1661  0.5920
 5505TIP3    H238007   4.319   2.622   0.123  1.1399  2.7109 -0.3331
 5506TIP3   OH238008   4.237   0.763   2.686  0.0646 -0.6366  0.2662
 5506TIP3    H138009   4.276   0.759   2.773  0.2706  0.2466  0.2277
 5506TIP3    H238010   4.169   0.696   2.687  0.6075 -1.2004  0.8236
 5507TIP3   OH238011   5.603   0.454  10.741  0.1570  0.0181 -0.0280
 5507TIP3    H138012   5.639   0.480  10.655  2.2319 -1.6601  0.2613
 5507TIP3    H238013   5.680   0.443  10.796 -1.1409  0.8409  2.0508
 5508TIP3   OH238014   0.043   2.820   2.647  0.2995 -0.3093 -0.2534
 5508TIP3    H138015  -0.009   2.901   2.643 -1.0546 -1.1114  0.1669
 5508TIP3    H238016   0.080   2.810   2.560 -0.9323 -0.0986 -0.8295
 5509TIP3   OH238017   4.463   3.055  13.506  0.0062 -0.1054  0.3673
 5509TIP3    H138018   4.383   3.107  13.516 -0.5045 -0.6678 -0.5444
 5509TIP3    H238019   4.481   3.057  13.412  0.0534 -1.4242  0.3276
 5510TIP3   OH238020   0.523   4.914  14.154  0.2365 -0.3970  0.2449
 5510TIP3    H138021   0.535   4.872  14.069 -0.0417  2.4824 -1.3731
 5510TIP3    H238022   0.430   4.907  14.172  0.3052 -1.0646  0.3504
 5511TIP3   OH238023   4.272   1.337  11.457  0.3383  0.3798 -0.0368
 5511TIP3    H138024   4.207   1.269  11.440 -0.5525  1.0546  0.5807
 5511TIP3    H238025   4.318   1.307  11.535  2.3688 -1.2170 -1.7108
 5512TIP3   OH238026   2.619   3.130  11.119  0.0042  0.4304  0.2505
 5512TIP3    H138027   2.569   3.071  11.175  1.5881 -0.1179  1.1315
 5512TIP3    H238028   2.707   3.094  11.118  0.4649  1.4991 -1.0796
 5513TIP3   OH238029   4.142   4.217  15.276  0.1051  0.0281 -0.4873
 5513TIP3    H138030   4.069   4.161  15.247  0.8358 -0.8431 -0.7179
 5513TIP3    H238031   4.162   4.271  15.200 -0.9029  0.9398 -0.1170
 5514TIP3   OH238032   4.511   5.050  16.490 -0.5739 -0.4188 -0.2064
 5514TIP3    H138033   4.464   5.071  16.410  0.6927  2.7812 -0.2461
 5514TIP3    H238034   4.567   4.976  16.467 -1.0887 -0.2996 -1.9200
 5515TIP3   OH238035   2.675   4.590  11.439 -0.0882 -0.1905  0.2048
 5515TIP3    H138036   2.675   4.679  11.402 -0.5658  0.2458  1.2381
 5515TIP3    H238037   2.734   4.541  11.381 -0.3185  0.6333 -0.7598
 5516TIP3   OH238038   3.963   2.274  15.817  0.4652 -0.8887  0.2693
 5516TIP3    H138039   4.020   2.299  15.744 -0.6069  1.2267  0.0841
 5516TIP3    H238040   3.881   2.249  15.775  0.1621 -0.5959  0.6798
 5517TIP3   OH238041   3.390   1.651   5.064  0.7074 -0.1322 -0.3708
 5517TIP3    H138042   3.444   1.598   5.005 -1.6480 -1.6732 -1.2841
 5517TIP3    H238043   3.300   1.625   5.045 -0.3981  2.0913  1.2919
 5518TIP3   OH238044   3.516   5.223  13.664  0.1494  0.0648  0.5208
 5518TIP3    H138045   3.584   5.176  13.714  0.7994  0.0597 -0.3303
 5518TIP3    H238046   3.499   5.166  13.589 -3.1578 -1.5289  2.2691
 5519TIP3   OH238047   5.656   4.480   5.951  0.6339 -0.0775  0.3942
 5519TIP3    H138048   5.587   4.475   5.885  1.2375  0.4881 -0.3077
 5519TIP3    H238049   5.690   4.569   5.944  0.8623 -0.0820  1.3199
 5520TIP3   OH238050   5.110   2.449  14.637 -0.0033  0.5908 -0.3597
 5520TIP3    H138051   5.084   2.459  14.546 -0.6187  0.5482 -0.1924
 5520TIP3    H238052   5.030   2.466  14.687  0.3400  0.6657  0.1733
 5521TIP3   OH238053   3.258   6.642  11.824 -0.3220  0.0331  0.0427
 5521TIP3    H138054   3.297   6.571  11.875 -0.8982 -0.5366 -0.2943
 5521TIP3    H238055   3.281   6.622  11.733  0.3822  0.8435  0.0263
 5522TIP3   OH238056   0.799   4.859   3.168 -0.0673 -0.0556 -0.0873
 5522TIP3    H138057   0.856   4.913   3.223 -0.8327 -0.3725  1.0310
 5522TIP3    H238058   0.720   4.847   3.219 -0.2703 -1.4844 -0.6995
 5523TIP3   OH238059   6.395   3.470  12.338 -0.4055  0.1217  0.4094
 5523TIP3    H138060   6.403   3.435  12.426  0.7876 -1.0171 -0.1069
 5523TIP3    H238061   6.480   3.451  12.297  0.0828  3.0048 -0.1635
 5524TIP3   OH238062   2.555   2.072   5.916 -0.8095 -0.5906  0.3740
 5524TIP3    H138063   2.600   2.151   5.946 -0.3808 -0.4014 -0.6993
 5524TIP3    H238064   2.537   2.022   5.995 -0.6128  0.3398  1.0184
 5525TIP3   OH238065   3.310   0.065  15.125 -0.2645 -0.1894  0.6732
 5525TIP3    H138066   3.244  -0.003  15.113  0.1169 -0.3214 -0.9175
 5525TIP3    H238067   3.373   0.051  15.055  1.4668 -0.0263  2.1216
 5526TIP3   OH238068   1.356   0.004   0.915 -0.0009  0.4214  0.4719
 5526TIP3    H138069   1.318  -0.076   0.880 -1.2579  0.8082  0.8944
 5526TIP3    H238070   1.449  -0.016   0.927 -0.7566 -2.0791  3.5741
 5527TIP3   OH238071   4.641   3.281  13.985 -0.6562 -0.7185 -0.0058
 5527TIP3    H138072   4.595   3.348  14.035 -0.3493 -0.6571  0.1956
 5527TIP3    H238073   4.591   3.273  13.904 -0.1062  0.5054 -0.4893
 5528TIP3   OH238074   1.205   6.818  12.333  1.0748 -0.1449  1.0433
 5528TIP3    H138075   1.288   6.780  12.362  1.0374 -2.1343 -1.1804
 5528TIP3    H238076   1.142   6.747  12.344  0.8629 -0.6992 -2.5810
 5529TIP3   OH238077   1.983   3.700  11.665 -0.2462 -0.5599  0.8267
 5529TIP3    H138078   1.906   3.756  11.659  0.4050  0.4170  1.3252
 5529TIP3    H238079   2.031   3.732  11.741  1.8998  0.5037 -0.8439
 5530TIP3   OH238080   2.546   5.722   5.224  0.4565 -0.5004  0.5073
 5530TIP3    H138081   2.505   5.662   5.287 -1.2352 -0.7639 -0.7888
 5530TIP3    H238082   2.484   5.794   5.216  1.8349  0.7796  0.9922
 5531TIP3   OH238083   1.773   2.657  11.454  0.4010  0.0670  0.1346
 5531TIP3    H138084   1.791   2.609  11.535  0.0620  0.9138  0.7260
 5531TIP3    H238085   1.855   2.656  11.406  0.0387 -2.3940 -0.5872
 5532TIP3   OH238086   3.865   5.717  15.582 -0.1892  0.2748 -1.2686
 5532TIP3    H138087   3.907   5.744  15.664 -1.1854  1.2389 -1.0586
 5532TIP3    H238088   3.773   5.705  15.606 -0.4075  0.1467 -2.1596
 5533TIP3   OH238089   4.182   6.732  11.069  0.0350  0.0420  0.1199
 5533TIP3    H138090   4.162   6.708  10.979  0.1630  0.5107 -0.0369
 5533TIP3    H238091   4.256   6.677  11.093  0.7944  0.7699 -0.4803
 5534TIP3   OH238092   5.191   1.940   6.530 -0.4745 -0.0425 -0.2265
 5534TIP3    H138093   5.216   1.911   6.618 -1.5536 -0.3447 -0.0005
 5534TIP3    H238094   5.123   1.878   6.503 -0.8419  0.6248 -0.8692
 5535TIP3   OH238095   2.424   6.122   4.089 -0.4058 -0.1848 -0.3122
 5535TIP3    H138096   2.425   6.215   4.113 -0.3829  0.3476 -2.1797
 5535TIP3    H238097   2.507   6.107   4.045 -0.8915 -0.7933 -1.0486
 5536TIP3   OH238098   5.570   6.618   0.281 -0.3165 -0.0779 -0.5068
 5536TIP3    H138099   5.614   6.698   0.250 -0.6480  0.1419 -0.4148
 5536TIP3    H238100   5.626   6.585   0.351 -0.0547 -0.0574 -0.7046
 5537TIP3   OH238101   6.595   1.634  14.220  0.0483  0.3691  0.2322
 5537TIP3    H138102   6.579   1.674  14.134  0.9584  0.3507  0.0510
 5537TIP3    H238103   6.688   1.615  14.221  0.0392  0.3217  1.2126
 5538TIP3   OH238104   6.356   6.236  16.745  0.3970  0.3991  0.3848
 5538TIP3    H138105   6.358   6.296  16.670  0.1633 -2.3036 -1.9285
 5538TIP3    H238106   6.267   6.243  16.779 -0.7334 -0.9981 -2.0209
 5539TIP3   OH238107   4.094   5.196   3.904 -0.1159  0.1247  0.0679
 5539TIP3    H138108   4.132   5.182   3.991  0.8160 -1.0320 -0.4896
 5539TIP3    H238109   4.160   5.245   3.856 -0.7498  1.0185  0.0870
 5540TIP3   OH238110   4.831   6.627   2.943  0.2971  0.5012  0.3234
 5540TIP3    H138111   4.777   6.581   3.008 -0.1659  1.5868  0.7239
 5540TIP3    H238112   4.866   6.702   2.989  0.1262  1.1792 -0.6257
 5541TIP3   OH238113   0.700   3.369  13.199 -0.0293  0.0776 -0.6489
 5541TIP3    H138114   0.691   3.461  13.223 -0.2752  0.3098 -1.6065
 5541TIP3    H238115   0.648   3.322  13.264  1.5961  0.4308  1.0103
 5542TIP3   OH238116   2.120   5.955  15.111  0.0750  0.0629 -0.2199
 5542TIP3    H138117   2.038   6.003  15.124 -0.2277 -1.0942  3.0709
 5542TIP3    H238118   2.187   6.023  15.104 -0.8703  0.9879 -0.4347
 5543TIP3   OH238119   2.188   5.967  13.253  0.0430  0.2856  0.0646
 5543TIP3    H138120   2.125   5.964  13.182  0.4965  1.0600 -0.3764
 5543TIP3    H238121   2.226   6.055  13.250 -1.0381  0.9051  2.2288
 5544TIP3   OH238122   1.296   3.181  17.193  0.6531 -0.0206 -0.3860
 5544TIP3    H138123   1.314   3.123  17.267 -0.7112 -0.6813 -0.5417
 5544TIP3    H238124   1.215   3.225  17.217  0.6800  0.4282 -1.1032
 5545TIP3   OH238125   4.014   2.489   6.556 -0.6346 -0.4271  0.1783
 5545TIP3    H138126   4.060   2.574   6.556  0.5603 -1.0119 -1.2959
 5545TIP3    H238127   4.070   2.433   6.502 -0.6583 -2.5922  2.2585
 5546TIP3   OH238128   4.777   5.153   0.913 -0.1818 -0.1724  0.4252
 5546TIP3    H138129   4.724   5.217   0.960 -0.3865  0.7134 -0.9743
 5546TIP3    H238130   4.867   5.179   0.931 -0.1649 -1.2795  2.2491
 5547TIP3   OH238131   4.509   6.197   5.911  0.4032 -0.1055 -0.6747
 5547TIP3    H138132   4.598   6.183   5.942  0.2327  1.2630  0.5516
 5547TIP3    H238133   4.499   6.292   5.908 -1.5053 -0.1882  0.7874
 5548TIP3   OH238134   1.772   4.146  13.241 -0.0968  0.0652 -0.6450
 5548TIP3    H138135   1.751   4.091  13.165  0.5052 -1.3322  0.1556
 5548TIP3    H238136   1.844   4.100  13.285  1.2596  2.1558 -0.5871
 5549TIP3   OH238137   0.204   4.425  15.959  0.2833  0.2588  0.0356
 5549TIP3    H138138   0.122   4.393  15.920  0.3286  1.1376 -0.8140
 5549TIP3    H238139   0.270   4.362  15.931  0.0810  0.1319 -0.1583
 5550TIP3   OH238140   0.947   4.873  11.337 -0.4781  0.1353 -0.3573
 5550TIP3    H138141   0.930   4.895  11.245 -1.1253  0.5488 -0.1443
 5550TIP3    H238142   1.037   4.903  11.352  0.0724 -1.0120 -1.1739
 5551TIP3   OH238143   5.067   5.943  14.464  0.6508  0.5155 -0.0080
 5551TIP3    H138144   5.150   5.899  14.448 -0.1022 -1.1720  0.4612
 5551TIP3    H238145   5.063   5.952  14.560 -1.0398 -2.3659  0.3173
 5552TIP3   OH238146   5.290   5.870   4.258  0.6671  0.1309  0.1010
 5552TIP3    H138147   5.352   5.803   4.285  1.1170 -0.1653 -1.5332
 5552TIP3    H238148   5.304   5.879   4.164  1.6391  3.5380  0.4245
 5553TIP3   OH238149   6.267   2.914  17.030 -0.3864 -0.3783 -0.0375
 5553TIP3    H138150   6.221   2.831  17.018  0.2332 -0.6096 -0.9849
 5553TIP3    H238151   6.341   2.892  17.087  0.1275 -0.6322 -0.7797
 5554TIP3   OH238152   5.219   0.028   3.993  0.6146  0.3372  0.0297
 5554TIP3    H138153   5.136  -0.015   4.012  0.0843  1.0329 -0.6530
 5554TIP3    H238154   5.268   0.022   4.075  0.1241 -0.5910  0.2628
 5555TIP3   OH238155   1.237   1.145  11.377 -0.4710 -0.0098 -0.5246
 5555TIP3    H138156   1.257   1.088  11.302 -2.0066 -0.3753 -0.6866
 5555TIP3    H238157   1.234   1.233  11.340 -0.6003 -0.1197 -0.7782
 5556TIP3   OH238158   2.723   0.735  16.530 -0.3255  0.5139 -0.0321
 5556TIP3    H138159   2.789   0.668  16.513  0.2141  0.7320  1.1080
 5556TIP3    H238160   2.670   0.738  16.450 -1.7089 -2.7661  0.6272
 5557TIP3   OH238161   1.750   6.059   4.461  0.3238 -0.0745  0.1624
 5557TIP3    H138162   1.809   6.019   4.397  0.3583  0.0898  0.0906
 5557TIP3    H238163   1.670   6.007   4.456 -0.1926  0.8061 -1.0409
 5558TIP3   OH238164   5.509   6.820   3.172 -0.1914  0.0653  0.4061
 5558TIP3    H138165   5.562   6.803   3.250  0.7461  0.2605 -0.1768
 5558TIP3    H238166   5.519   6.914   3.156 -0.5383  0.0624  0.1613
 5559TIP3   OH238167   0.796   5.836   2.974  0.6894 -0.6486 -0.6321
 5559TIP3    H138168   0.799   5.822   3.068 -3.6111  0.7300 -0.0491
 5559TIP3    H238169   0.788   5.931   2.964  1.5947 -0.7225 -2.4599
 5560TIP3   OH238170   3.223   1.364   5.426 -0.0769 -0.0659  0.0032
 5560TIP3    H138171   3.279   1.293   5.395  0.3713  0.1101  0.4084
 5560TIP3    H238172   3.213   1.348   5.520 -1.9732 -0.9783 -0.2918
 5561TIP3   OH238173   6.099   1.460  16.934  0.2138  0.5073 -0.0117
 5561TIP3    H138174   6.043   1.383  16.935  0.9888 -0.1580 -2.2400
 5561TIP3    H238175   6.142   1.459  17.020 -1.2694 -0.3647  0.7699
 5562TIP3   OH238176   0.593   0.606   2.949 -0.0223 -0.0336 -0.0820
 5562TIP3    H138177   0.640   0.662   3.011  0.6674  0.0753 -0.7001
 5562TIP3    H238178   0.609   0.646   2.864 -0.1755 -0.7283 -0.4368
 5563TIP3   OH238179   5.958   1.627   6.220  0.2290 -0.4304 -0.2817
 5563TIP3    H138180   5.977   1.717   6.246 -1.7526  0.3093 -1.1742
 5563TIP3    H238181   5.915   1.589   6.297 -1.4847  0.3253 -0.8050
 5564TIP3   OH238182   3.204   1.928   3.047 -0.0955  0.0627  0.1357
 5564TIP3    H138183   3.246   1.987   2.983 -0.6648  0.3953  0.0668
 5564TIP3    H238184   3.218   1.841   3.011 -3.2029  0.3647 -2.1899
 5565TIP3   OH238185   4.360   4.208   6.123 -0.6647  0.0438  0.4278
 5565TIP3    H138186   4.329   4.246   6.040  0.4167  0.4830  0.2132
 5565TIP3    H238187   4.285   4.156   6.155 -1.9690  1.8034  0.3933
 5566TIP3   OH238188   6.123   4.735   2.248  0.0257 -0.2726  0.2343
 5566TIP3    H138189   6.161   4.669   2.306 -0.0711  0.9196  1.7175
 5566TIP3    H238190   6.033   4.708   2.235  0.0472 -0.5426  0.6473
 5567TIP3   OH238191   4.965   1.085   4.024 -0.6239  0.9492  0.2712
 5567TIP3    H138192   4.944   1.057   3.935  2.2537  1.3805 -0.6531
 5567TIP3    H238193   5.026   1.158   4.013  0.7690  0.2521  2.5860
 5568TIP3   OH238194   6.520   5.099   1.999 -0.5041  0.4631  0.5051
 5568TIP3    H138195   6.462   5.031   1.964 -0.8292  0.0031  1.8527
 5568TIP3    H238196   6.492   5.109   2.090 -0.3489  2.2962  0.3872
 5569TIP3   OH238197   5.500   5.466   6.883  0.5051 -0.4527 -0.2148
 5569TIP3    H138198   5.550   5.388   6.858  0.7825 -0.4873  0.4458
 5569TIP3    H238199   5.414   5.432   6.908  0.2560 -0.4282 -0.9991
 5570TIP3   OH238200   2.151   1.783  17.149 -0.4170  1.0195 -0.1252
 5570TIP3    H138201   2.176   1.691  17.158 -2.3016  0.4091 -0.6009
 5570TIP3    H238202   2.184   1.825  17.228 -0.4679 -0.2975  0.6330
 5571TIP3   OH238203   4.275   3.471  13.124 -0.0903  0.4093  0.3210
 5571TIP3    H138204   4.199   3.530  13.120 -0.2069  0.2714  0.4693
 5571TIP3    H238205   4.238   3.387  13.153 -0.0231  0.0880 -0.5021
 5572TIP3   OH238206   1.793   5.671  11.466  0.7770  0.3585 -0.4962
 5572TIP3    H138207   1.865   5.657  11.405 -0.9381 -1.3389 -2.3302
 5572TIP3    H238208   1.717   5.689  11.409 -0.4651  0.9586  1.2661
 5573TIP3   OH238209   5.958   4.060   0.850  0.2091 -0.1739  0.1933
 5573TIP3    H138210   6.017   4.130   0.878  0.3547  0.0754 -0.7080
 5573TIP3    H238211   6.000   4.021   0.773 -0.5253 -0.3522 -0.1369
 5574TIP3   OH238212   4.282   5.834  16.769 -0.1038  0.3793  0.6959
 5574TIP3    H138213   4.223   5.834  16.694 -0.3228 -0.1420  0.8619
 5574TIP3    H238214   4.236   5.887  16.835 -0.3938 -0.0246  0.8240
 5575TIP3   OH238215   3.960   6.224  12.998 -0.0240  0.2349 -0.2092
 5575TIP3    H138216   3.929   6.285  12.931  0.4993 -0.3006 -0.9616
 5575TIP3    H238217   3.918   6.141  12.976 -2.3248  0.7263  1.9855
 5576TIP3   OH238218   6.050   1.271  11.965  0.1029  0.2472  0.2372
 5576TIP3    H138219   5.992   1.224  12.025 -0.1881  0.3807  0.0665
 5576TIP3    H238220   6.072   1.205  11.898 -1.1039  0.5965 -0.5525
 5577TIP3   OH238221   4.163   4.926  15.425 -0.3880 -0.4144 -0.6896
 5577TIP3    H138222   4.169   4.888  15.513  1.0478  1.3985  0.0609
 5577TIP3    H238223   4.077   4.967  15.423 -0.3372 -0.2626 -0.0427
 5578TIP3   OH238224   5.405   5.848   2.469  0.3449  0.0640 -0.1840
 5578TIP3    H138225   5.400   5.829   2.563 -0.8688 -0.0881 -0.2651
 5578TIP3    H238226   5.328   5.902   2.451  0.6596  0.2389 -1.0621
 5579TIP3   OH238227   6.274   6.741   5.623  0.0547  0.6370 -0.2893
 5579TIP3    H138228   6.181   6.735   5.648 -0.0743  0.6043 -0.7707
 5579TIP3    H238229   6.282   6.825   5.579  0.2433  0.6111 -0.3067
 5580TIP3   OH238230   4.213   2.345   0.639 -0.7985 -0.2817 -0.7298
 5580TIP3    H138231   4.126   2.384   0.642 -1.3102 -1.4569  0.9352
 5580TIP3    H238232   4.197   2.251   0.632  0.2681 -0.6291  0.8929
 5581TIP3   OH238233   6.585   0.844   6.436 -0.2342 -0.0172 -0.5529
 5581TIP3    H138234   6.639   0.802   6.369  0.5604 -0.5818  0.4102
 5581TIP3    H238235   6.605   0.796   6.516  1.2596  2.5630  0.7860
 5582TIP3   OH238236   6.022   1.099  14.602 -0.0823  0.1827 -0.3976
 5582TIP3    H138237   5.930   1.096  14.576 -0.6168  1.4675  1.1709
 5582TIP3    H238238   6.069   1.126  14.524 -1.1764  0.5907 -0.9308
 5583TIP3   OH238239   3.273   6.350  13.465 -0.1212  0.1804 -0.1412
 5583TIP3    H138240   3.318   6.267  13.454 -1.7833 -0.4242 -3.6073
 5583TIP3    H238241   3.298   6.402  13.388 -2.4468  1.1959 -0.2916
 5584TIP3   OH238242   4.120   3.704  13.170  0.5856 -0.1323 -0.5671
 5584TIP3    H138243   4.036   3.673  13.137  1.6957 -2.3764 -1.4907
 5584TIP3    H238244   4.119   3.682  13.263  0.2237 -0.2975 -0.6082
 5585TIP3   OH238245   5.010   6.642  13.751 -0.0258 -0.5638 -0.4422
 5585TIP3    H138246   5.031   6.550  13.734 -0.4002 -0.7714  0.1882
 5585TIP3    H238247   5.025   6.686  13.667  2.9560 -0.6552 -0.0575
 5586TIP3   OH238248   5.002   2.303   4.419 -0.0256 -0.6003 -0.1045
 5586TIP3    H138249   5.059   2.357   4.473  1.8517 -1.2709 -1.3285
 5586TIP3    H238250   4.915   2.341   4.431  0.9039  1.4475  0.6033
 5587TIP3   OH238251   3.010   6.167   1.632  0.4644 -0.5026  0.3150
 5587TIP3    H138252   2.973   6.079   1.629  0.9503 -0.7769  1.6018
 5587TIP3    H238253   2.997   6.195   1.723  0.0483  0.8797 -0.1454
 5588TIP3   OH238254   1.627   1.836   4.867 -0.0886  0.1109 -0.2633
 5588TIP3    H138255   1.656   1.761   4.815 -0.7975  0.5680 -1.3603
 5588TIP3    H238256   1.532   1.839   4.854 -0.0411  1.3573 -0.4844
 5589TIP3   OH238257   3.140   5.373   2.530 -0.3513 -0.2693 -0.0024
 5589TIP3    H138258   3.199   5.438   2.491  0.4149 -0.8540  0.1415
 5589TIP3    H238259   3.101   5.328   2.455 -1.8050  1.1233 -0.1283
 5590TIP3   OH238260   2.006   0.415  16.152  0.2534 -0.3068  0.0900
 5590TIP3    H138261   2.054   0.388  16.074  1.2249 -1.6120  1.0751
 5590TIP3    H238262   2.074   0.427  16.219 -0.6954 -1.6538  1.3706
 5591TIP3   OH238263   6.483   2.102   0.170  0.1695  0.0033 -0.3942
 5591TIP3    H138264   6.422   2.028   0.178  0.5794 -0.2210  1.0772
 5591TIP3    H238265   6.430   2.179   0.192 -0.1345  0.1010 -1.4284
 5592TIP3   OH238266   1.142   2.284  14.672  0.0494 -0.3936  0.2761
 5592TIP3    H138267   1.166   2.360  14.725 -0.4558  0.4276 -0.6352
 5592TIP3    H238268   1.211   2.277  14.606 -0.6392  0.1989 -0.5452
 5593TIP3   OH238269   2.226   4.166  15.383  0.2993 -0.5986  0.3706
 5593TIP3    H138270   2.198   4.193  15.296 -0.6969 -0.6614  0.6594
 5593TIP3    H238271   2.317   4.195  15.389  0.5753 -1.1403 -0.9128
 5594TIP3   OH238272   1.394   4.673  11.335  0.2317 -0.4711  0.2650
 5594TIP3    H138273   1.485   4.699  11.327  0.1540 -0.5469 -0.9945
 5594TIP3    H238274   1.367   4.651  11.246 -1.3378  0.6364  0.4301
 5595TIP3   OH238275   4.079   1.841  10.317  0.1288  0.3656 -0.3841
 5595TIP3    H138276   4.133   1.911  10.352  0.3809  0.1790 -0.3960
 5595TIP3    H238277   4.120   1.818  10.233  0.2241  0.0064 -0.2443
 5596TIP3   OH238278   3.550   5.369   6.308  0.2899  0.2943 -0.2496
 5596TIP3    H138279   3.638   5.391   6.279  1.0428 -2.5616 -0.3836
 5596TIP3    H238280   3.560   5.288   6.357 -2.0246  0.9413  1.4904
 5597TIP3   OH238281   4.775   5.076   6.050  0.0114 -0.6918  0.9807
 5597TIP3    H138282   4.835   5.123   6.107  0.5482  0.5922 -0.5669
 5597TIP3    H238283   4.711   5.037   6.109  0.6990  0.3426  2.4594
 5598TIP3   OH238284   0.635   3.846  15.846  0.8338 -0.2325 -0.2797
 5598TIP3    H138285   0.553   3.880  15.883  0.0983 -0.1333 -1.9270
 5598TIP3    H238286   0.664   3.914  15.786  4.1140  1.4334  2.7925
 5599TIP3   OH238287   2.490   6.287   0.955 -0.5244 -0.6474  0.5437
 5599TIP3    H138288   2.553   6.307   0.885 -0.9414 -0.8557  0.1106
 5599TIP3    H238289   2.491   6.192   0.961 -0.2156 -0.6127  1.0767
 5600TIP3   OH238290   4.167   3.121  12.975 -0.3665  0.6416  0.0155
 5600TIP3    H138291   4.221   3.097  12.900 -1.7044 -0.8169 -0.5437
 5600TIP3    H238292   4.078   3.124  12.940 -1.0237 -0.1090  1.5414
 5601TIP3   OH238293   2.617   0.061   3.141  0.2077 -0.1086  0.3275
 5601TIP3    H138294   2.567   0.142   3.143 -0.4916 -0.4933 -0.5211
 5601TIP3    H238295   2.697   0.083   3.093 -0.7466 -0.2948 -1.4285
 5602TIP3   OH238296   6.688   5.541   0.653 -0.1041  0.5296 -0.0212
 5602TIP3    H138297   6.755   5.584   0.706  1.2964 -1.2322 -0.2486
 5602TIP3    H238298   6.728   5.457   0.628 -1.0662  0.8460 -3.0239
 5603TIP3   OH238299   1.861   5.106  14.902 -0.2884  0.6357 -0.3196
 5603TIP3    H138300   1.817   5.145  14.977  0.7371  1.2328 -0.0141
 5603TIP3    H238301   1.868   5.177  14.838 -1.3553  0.0751 -1.0900
 5604TIP3   OH238302   0.467   1.641   5.525 -0.0899 -0.7927 -0.3043
 5604TIP3    H138303   0.464   1.719   5.580  0.6551 -1.7166  1.1166
 5604TIP3    H238304   0.467   1.674   5.435  1.2182  0.8933  0.2668
 5605TIP3   OH238305   5.322   6.618  12.199 -0.2861 -0.1366 -0.0547
 5605TIP3    H138306   5.388   6.678  12.165  0.6551 -0.8372  0.4969
 5605TIP3    H238307   5.366   6.533  12.205 -1.3493 -0.7131 -0.0404
 5606TIP3   OH238308   2.111   1.632  12.567 -0.0300 -0.9637 -0.4656
 5606TIP3    H138309   2.061   1.633  12.648  1.0767 -0.9799  0.2339
 5606TIP3    H238310   2.046   1.650  12.499 -0.5777  1.6217  0.6391
 5607TIP3   OH238311   2.149   2.868  11.227 -0.8913 -0.0870  0.3397
 5607TIP3    H138312   2.080   2.934  11.234 -1.1038 -0.2331 -0.3245
 5607TIP3    H238313   2.135   2.811  11.303  0.5624  1.7832  2.1159
 5608TIP3   OH238314   2.959   6.137  14.186 -0.2412 -0.7978 -0.2310
 5608TIP3    H138315   2.898   6.081  14.138  0.8592 -1.1782 -1.2474
 5608TIP3    H238316   2.952   6.222  14.144  2.7126 -1.7745 -3.0816
 5609TIP3   OH238317   2.390   4.604  12.780  0.0427 -0.4924  0.8489
 5609TIP3    H138318   2.374   4.575  12.690 -1.8068  0.4913  0.8025
 5609TIP3    H238319   2.439   4.533  12.820  1.6032 -0.6069 -1.1371
 5610TIP3   OH238320   0.596   5.426  16.769 -0.4399  0.3188  0.2635
 5610TIP3    H138321   0.601   5.491  16.700 -0.7563  0.5326  0.4438
 5610TIP3    H238322   0.536   5.360  16.736  1.0028 -0.6557 -0.5600
 5611TIP3   OH238323   5.822   5.383   3.080 -0.2407  0.2931 -0.0093
 5611TIP3    H138324   5.796   5.290   3.085  1.2360 -0.1491 -0.1526
 5611TIP3    H238325   5.905   5.382   3.032  0.5986  1.5306  1.3434
 5612TIP3   OH238326   2.426   0.991   5.336 -0.8521  0.3386  0.6362
 5612TIP3    H138327   2.515   0.971   5.368  0.7497  2.2363 -2.2042
 5612TIP3    H238328   2.413   0.931   5.262 -0.7631  1.8392 -0.6460
 5613TIP3   OH238329   5.153   0.249   5.945  0.0726 -0.1350 -0.0360
 5613TIP3    H138330   5.162   0.163   5.903 -0.3485 -0.8326  1.2297
 5613TIP3    H238331   5.065   0.278   5.922  0.0062 -0.3134 -0.0109
 5614TIP3   OH238332   2.834   2.346  12.910 -0.4587  0.2051  0.1511
 5614TIP3    H138333   2.851   2.267  12.961  0.5796 -2.0399 -3.3325
 5614TIP3    H238334   2.906   2.405  12.932 -0.6550 -0.1696  2.0046
 5615TIP3   OH238335   2.179   5.556  14.208  0.1173 -0.1624  0.3439
 5615TIP3    H138336   2.155   5.544  14.116 -1.2725 -0.6492  0.7354
 5615TIP3    H238337   2.248   5.491  14.223  0.2848 -0.1473 -0.3268
 5616TIP3   OH238338   5.991   3.673   3.686  0.5206 -0.4461 -0.1899
 5616TIP3    H138339   6.087   3.669   3.684  0.6438  0.6237  1.4130
 5616TIP3    H238340   5.970   3.765   3.668 -0.1261 -0.4335  0.5643
 5617TIP3   OH238341   5.182   4.765  15.236 -0.0745  0.1855 -0.1905
 5617TIP3    H138342   5.089   4.789  15.228 -0.4839 -0.7946  1.2898
 5617TIP3    H238343   5.194   4.746  15.329  1.6893  0.5217 -0.3125
 5618TIP3   OH238344   6.361   5.170  15.519 -0.1307 -0.5256 -0.6433
 5618TIP3    H138345   6.277   5.202  15.486  1.0412  0.0271 -3.3419
 5618TIP3    H238346   6.399   5.246  15.564  0.0839  0.1079 -1.8508
 5619TIP3   OH238347   5.737   4.226  12.407  0.4472  0.1481  0.0483
 5619TIP3    H138348   5.814   4.282  12.404  0.0364  1.0725  3.0288
 5619TIP3    H238349   5.732   4.197  12.498 -1.9687 -0.9811 -0.3493
 5620TIP3   OH238350   3.648   0.304  16.907 -0.1759 -0.2723 -0.2854
 5620TIP3    H138351   3.637   0.232  16.845  1.3844 -1.8762  1.1668
 5620TIP3    H238352   3.606   0.272  16.987  0.3099  0.5410  0.3058
 5621TIP3   OH238353   4.826   5.500   6.216 -0.0257  0.2507 -0.2848
 5621TIP3    H138354   4.764   5.464   6.280  0.2196  0.3301  0.0001
 5621TIP3    H238355   4.857   5.424   6.167  0.4076  0.0763  0.2410
 5622TIP3   OH238356   4.219   2.650   1.456  0.3238 -0.0750  0.2169
 5622TIP3    H138357   4.293   2.710   1.468  1.0128 -1.2364  2.2020
 5622TIP3    H238358   4.195   2.660   1.364  1.0842  2.4411  0.2209
 5623TIP3   OH238359   5.858   2.050  15.632  0.4595 -0.2290  0.4834
 5623TIP3    H138360   5.851   2.009  15.718 -1.4701 -1.4403 -0.1856
 5623TIP3    H238361   5.826   1.984  15.571 -0.7599  1.5240 -0.8740
 5624TIP3   OH238362   3.811   5.791   0.750  0.2548 -0.0079 -1.2618
 5624TIP3    H138363   3.830   5.777   0.842  0.1938 -0.4284 -1.3126
 5624TIP3    H238364   3.741   5.856   0.749  0.4507  0.2089 -1.0228
 5625TIP3   OH238365   4.662   2.137   4.885  0.4084 -0.9312 -0.6493
 5625TIP3    H138366   4.595   2.079   4.848  1.3344 -0.8497 -2.5957
 5625TIP3    H238367   4.704   2.084   4.952 -0.1910 -1.7446 -0.8907
 5626TIP3   OH238368   3.394   6.222   0.570  0.7010  0.2875 -0.7219
 5626TIP3    H138369   3.318   6.179   0.531  0.5000  0.2202 -0.2553
 5626TIP3    H238370   3.459   6.153   0.579 -0.6906 -0.7693  3.0098
 5627TIP3   OH238371   4.365   6.217   4.046  0.1789 -0.1259  0.1617
 5627TIP3    H138372   4.405   6.250   4.127 -1.8075  0.4228  0.9719
 5627TIP3    H238373   4.439   6.183   3.996  1.4961 -0.4039  2.1502
 5628TIP3   OH238374   4.592   2.712  13.831 -0.1607 -0.1884 -0.3066
 5628TIP3    H138375   4.612   2.632  13.783  1.1782 -0.7361  1.0851
 5628TIP3    H238376   4.517   2.749  13.785 -0.7692 -2.1897 -1.0274
 5629TIP3   OH238377   4.564   6.569  13.274 -0.0645 -0.3630 -0.1396
 5629TIP3    H138378   4.570   6.608  13.362  1.8279  0.1495 -0.4624
 5629TIP3    H238379   4.481   6.603  13.240 -0.1758  0.5441  0.9345
 5630TIP3   OH238380   4.326   3.620   5.543 -0.2926 -0.4294 -0.1793
 5630TIP3    H138381   4.262   3.681   5.508 -0.8850 -1.3204 -0.6575
 5630TIP3    H238382   4.370   3.670   5.613 -2.3210 -0.1968  0.9930
 5631TIP3   OH238383   1.722   0.966   4.389 -0.6528  0.0367  0.4048
 5631TIP3    H138384   1.793   1.012   4.434 -0.4876  1.1553 -0.9171
 5631TIP3    H238385   1.720   0.879   4.429  1.9442 -0.2874  0.0155
 5632TIP3   OH238386   4.144   4.226  12.494  0.0088 -0.2585  0.0749
 5632TIP3    H138387   4.058   4.199  12.525 -0.0706 -1.5740 -1.1759
 5632TIP3    H238388   4.199   4.149  12.506  1.1082  0.6418  1.0929
 5633TIP3   OH238389   2.559   4.732   4.253  0.9703  0.6587 -0.0871
 5633TIP3    H138390   2.523   4.660   4.201  3.8543  0.5613 -2.2039
 5633TIP3    H238391   2.597   4.690   4.330  2.0047 -0.0717 -0.9630
 5634TIP3   OH238392   0.836   6.095  15.882 -1.1143  0.4527  0.5031
 5634TIP3    H138393   0.772   6.029  15.855  1.1407 -1.6888  0.0501
 5634TIP3    H238394   0.826   6.101  15.977  0.6474 -3.0402  1.1033
 5635TIP3   OH238395   1.440   0.384   0.953 -0.4896  0.6151 -0.0476
 5635TIP3    H138396   1.483   0.430   0.881 -0.0335  1.1999  0.5864
 5635TIP3    H238397   1.477   0.295   0.950 -2.1090 -0.0867 -1.9059
 5636TIP3   OH238398   0.418   5.158   2.535 -0.4163 -0.1161 -0.2967
 5636TIP3    H138399   0.495   5.135   2.588 -1.5221  0.5450  1.6894
 5636TIP3    H238400   0.412   5.087   2.471  1.9195 -0.0947 -0.6395
 5637TIP3   OH238401   5.963   5.680  16.822 -0.0946  0.1770 -0.0953
 5637TIP3    H138402   5.873   5.646  16.823  0.7187 -2.1029 -0.4626
 5637TIP3    H238403   6.015   5.613  16.866  1.4503  1.5251  0.2503
 5638TIP3   OH238404   5.534   6.812   3.513  0.5269  0.7042 -0.1892
 5638TIP3    H138405   5.509   6.720   3.503 -1.0308  0.6681  2.7800
 5638TIP3    H238406   5.620   6.809   3.555 -0.0175  0.5169  0.9617
 5639TIP3   OH238407   4.531   3.318  12.069  0.1450  0.3358  0.1403
 5639TIP3    H138408   4.508   3.226  12.081  1.4013  0.0374  0.4396
 5639TIP3    H238409   4.454   3.357  12.029 -0.0952 -1.0498 -0.8359
 5640TIP3   OH238410   5.606   2.384   6.094 -0.3850  0.5712 -0.1557
 5640TIP3    H138411   5.557   2.454   6.052  0.2538  0.4544 -1.1330
 5640TIP3    H238412   5.609   2.314   6.029  1.6549  0.8366 -0.4288
 5641TIP3   OH238413   6.466   4.881  14.228 -0.3948 -0.7219 -0.7219
 5641TIP3    H138414   6.556   4.862  14.201 -0.5120 -0.0061 -1.6789
 5641TIP3    H238415   6.473   4.959  14.283 -0.3796 -0.9443 -0.4078
 5642TIP3   OH238416   0.216   6.091   3.446 -0.0865  0.8097  0.1186
 5642TIP3    H138417   0.213   6.105   3.541 -1.5731  0.8624  0.0872
 5642TIP3    H238418   0.131   6.123   3.415  0.0051 -0.1031 -1.1117
 5643TIP3   OH238419   3.209   1.686   4.371  0.1821 -0.0541 -0.0709
 5643TIP3    H138420   3.178   1.772   4.401  0.9581  0.5671 -0.9824
 5643TIP3    H238421   3.272   1.706   4.302  1.0373 -1.3467  0.3045
 5644TIP3   OH238422   2.759   2.177   5.259  0.0479  0.1549  0.8799
 5644TIP3    H138423   2.688   2.124   5.222 -0.3710 -0.2807  2.2369
 5644TIP3    H238424   2.762   2.152   5.352  1.9175  0.2337  0.8900
 5645TIP3   OH238425   1.442   3.364  13.347 -0.3639 -0.1958 -0.1687
 5645TIP3    H138426   1.438   3.416  13.427  1.4204  0.1095 -0.2410
 5645TIP3    H238427   1.437   3.273  13.377 -0.3017 -0.0621  0.2452
 5646TIP3   OH238428   6.773   6.068  15.297 -0.2937  0.2170 -0.5547
 5646TIP3    H138429   6.687   6.110  15.299 -0.5444 -0.3035  0.2934
 5646TIP3    H238430   6.819   6.109  15.224 -1.3532  0.3162 -1.1784
 5647TIP3   OH238431   1.191   2.430  13.687  0.4846  0.4013 -0.6911
 5647TIP3    H138432   1.204   2.507  13.632  1.0443  0.6791 -0.1807
 5647TIP3    H238433   1.121   2.381  13.644 -1.6064  2.3897  0.2513
 5648TIP3   OH238434   6.358   1.546   3.133  0.0272 -0.1392 -0.0460
 5648TIP3    H138435   6.393   1.574   3.048  0.6870  2.9071  1.1324
 5648TIP3    H238436   6.436   1.522   3.184  0.0595  1.9104  0.9556
 5649TIP3   OH238437   5.519   0.422  16.809 -0.5008  0.1491 -0.1314
 5649TIP3    H138438   5.463   0.455  16.739 -0.5276 -1.8086 -1.0930
 5649TIP3    H238439   5.566   0.500  16.841 -0.0133  1.0293 -2.7646
 5650TIP3   OH238440   2.478   3.465   5.118  0.2655  0.6059 -0.5225
 5650TIP3    H138441   2.551   3.433   5.066  0.0743  1.4185 -1.3017
 5650TIP3    H238442   2.496   3.558   5.132  0.2689  0.4344  0.8037
 5651TIP3   OH238443   1.046   1.861  11.873  0.1330  0.4662 -0.1337
 5651TIP3    H138444   0.958   1.896  11.891 -0.3512 -1.5218  1.7522
 5651TIP3    H238445   1.095   1.876  11.953  0.3745 -1.6646  0.1729
 5652TIP3   OH238446   0.544   1.275   3.156  0.0684 -0.2783  0.4592
 5652TIP3    H138447   0.471   1.295   3.097 -0.2059 -1.9228  0.1952
 5652TIP3    H238448   0.543   1.179   3.164  2.1531 -0.3422  0.5102
 5653TIP3   OH238449   5.756   0.941  14.212  0.0662 -0.1854 -0.6524
 5653TIP3    H138450   5.674   0.982  14.185 -0.4972  0.2870  1.5156
 5653TIP3    H238451   5.743   0.848  14.195 -1.1473 -0.1793  0.0933
 5654TIP3   OH238452   5.609   0.175  16.111  0.0742  0.5340  0.6994
 5654TIP3    H138453   5.528   0.225  16.103  0.0712  0.5214  0.6498
 5654TIP3    H238454   5.658   0.195  16.031 -0.9838 -1.4552 -0.5398
 5655TIP3   OH238455   6.431   3.072   4.512  0.1528  0.3270 -0.4857
 5655TIP3    H138456   6.338   3.072   4.536  0.4941  1.6136  1.0467
 5655TIP3    H238457   6.476   3.052   4.594  1.2309 -2.1390 -1.5666
 5656TIP3   OH238458   3.370   4.703   0.522 -0.0398  0.0302 -0.5130
 5656TIP3    H138459   3.315   4.778   0.499 -1.3589 -1.0103 -0.9336
 5656TIP3    H238460   3.455   4.723   0.483 -0.7949  0.6325 -1.9498
 5657TIP3   OH238461   4.948   3.927  11.930 -0.0587 -0.7398  0.3185
 5657TIP3    H138462   4.892   4.000  11.903  0.8576 -0.2814 -0.3933
 5657TIP3    H238463   4.887   3.855  11.947 -1.0415  0.3650  1.6979
 5658TIP3   OH238464   3.900   6.138  14.247 -0.3021 -0.2557  0.0667
 5658TIP3    H138465   3.966   6.116  14.313 -0.9904 -0.4439  0.7056
 5658TIP3    H238466   3.944   6.198  14.187  0.7394 -1.1144 -0.0563
 5659TIP3   OH238467   6.430   0.896  16.007  0.0824  0.4177  0.2689
 5659TIP3    H138468   6.497   0.882  15.940 -1.5726  1.1345 -1.6505
 5659TIP3    H238469   6.461   0.972  16.057  1.7420 -0.6286  0.8805
 5660TIP3   OH238470   3.534   2.250  14.783 -0.2953 -0.1711  0.7797
 5660TIP3    H138471   3.533   2.188  14.710 -1.5729 -2.8508  2.8751
 5660TIP3    H238472   3.618   2.235  14.826  1.1721  2.5512 -0.9045
 5661TIP3   OH238473   4.266   1.604   3.541 -0.1740 -0.2922  0.2774
 5661TIP3    H138474   4.210   1.675   3.572  0.1258  0.7070 -1.3426
 5661TIP3    H238475   4.210   1.527   3.540 -0.8594  0.1840  0.8563
 5662TIP3   OH238476   2.290   4.084  11.595 -0.0550  0.1128  0.0557
 5662TIP3    H138477   2.196   4.070  11.588  0.0483  0.0660 -1.6674
 5662TIP3    H238478   2.330   4.010  11.549  0.8358  0.1626  0.7061
 5663TIP3   OH238479   1.162   4.973   3.340 -0.0403  0.1877  0.1926
 5663TIP3    H138480   1.080   5.006   3.375 -0.0853  0.7228 -0.4038
 5663TIP3    H238481   1.148   4.969   3.245  0.3714 -0.4147  0.1471
 5664TIP3   OH238482   0.326   3.843  14.125 -0.4195 -0.6622  0.8584
 5664TIP3    H138483   0.251   3.858  14.183  0.6058  0.0265  2.0229
 5664TIP3    H238484   0.321   3.914  14.061  0.1089  0.3019  1.8626
 5665TIP3   OH238485   0.380   5.073  12.665 -0.3615  0.1580  0.1656
 5665TIP3    H138486   0.293   5.103  12.641 -1.0316 -0.4797  1.6728
 5665TIP3    H238487   0.433   5.086  12.586 -1.7983  0.5782 -0.7577
 5666TIP3   OH238488   3.897   3.231  13.468  0.4907  0.5714 -0.6704
 5666TIP3    H138489   3.834   3.166  13.437  1.5998  0.0292 -1.9214
 5666TIP3    H238490   3.903   3.295  13.397  0.8924  0.9497 -0.3054
 5667TIP3   OH238491   2.060   1.777   2.354  0.3214 -0.0667  0.2591
 5667TIP3    H138492   2.064   1.853   2.412  1.3918 -1.3925  2.0200
 5667TIP3    H238493   2.098   1.808   2.272  0.2064  1.4515  0.7428
 5668TIP3   OH238494   3.828   2.968  14.571 -0.2775 -0.3079  0.1743
 5668TIP3    H138495   3.828   3.045  14.514 -0.5024 -0.0476  0.5231
 5668TIP3    H238496   3.749   2.977  14.624 -0.2427 -0.7185  0.2972
 5669TIP3   OH238497   2.822   3.821   4.218  0.1960  0.1204 -0.2481
 5669TIP3    H138498   2.761   3.761   4.262  0.3243 -0.0118 -0.2533
 5669TIP3    H238499   2.906   3.805   4.260  0.1222  0.6821  0.1338
 5670TIP3   OH238500   1.534   3.910  14.041 -0.8281 -0.6652 -0.0980
 5670TIP3    H138501   1.500   3.997  14.021  1.0929  0.2015  0.1498
 5670TIP3    H238502   1.501   3.890  14.129  0.2690  0.7131  0.6726
 5671TIP3   OH238503   2.888   3.014  11.084  0.3195 -0.0261  0.2159
 5671TIP3    H138504   2.981   3.012  11.062  0.9164  0.4649  2.4868
 5671TIP3    H238505   2.844   2.982  11.005  2.2607  1.5282 -1.5965
 5672TIP3   OH238506   0.539   6.646   6.233  0.1361 -0.0646 -0.3479
 5672TIP3    H138507   0.546   6.574   6.170 -1.7103  0.1828 -0.9185
 5672TIP3    H238508   0.450   6.638   6.267  1.1124 -0.2414  2.3538
 5673TIP3   OH238509   1.739   5.522   3.163 -0.2801 -0.0540  0.5040
 5673TIP3    H138510   1.709   5.469   3.089  2.1540 -1.4245  0.3766
 5673TIP3    H238511   1.688   5.602   3.158 -2.4976 -1.4537 -0.6821
 5674TIP3   OH238512   5.378   5.263  16.222 -0.4735 -0.9970 -0.7142
 5674TIP3    H138513   5.348   5.185  16.269 -2.2646 -0.7959 -1.4346
 5674TIP3    H238514   5.386   5.331  16.290  0.3645 -1.5935 -0.2004
 5675TIP3   OH238515   4.089   1.152  10.277  0.5973  0.1370 -0.6037
 5675TIP3    H138516   4.045   1.133  10.360  1.5509  2.1600  0.4391
 5675TIP3    H238517   4.051   1.090  10.215 -1.0926 -0.5675  1.0346
 5676TIP3   OH238518   2.761   2.577  10.696 -0.1232  0.0178 -0.2778
 5676TIP3    H138519   2.827   2.592  10.628 -0.3941 -0.5367 -0.6727
 5676TIP3    H238520   2.678   2.598  10.653 -0.4225 -1.5355 -0.5350
 5677TIP3   OH238521   1.551   5.569  15.849  0.1488  0.1414  0.2776
 5677TIP3    H138522   1.530   5.640  15.909 -2.8912 -1.3192  1.1295
 5677TIP3    H238523   1.533   5.603  15.762  0.0832  0.8222  0.5583
 5678TIP3   OH238524   4.246   5.909  13.216  0.2905  0.1732 -0.0597
 5678TIP3    H138525   4.239   5.883  13.124  1.1175 -0.4766  0.0548
 5678TIP3    H238526   4.176   5.974  13.227 -2.3356 -2.4121 -0.1845
 5679TIP3   OH238527   6.120   3.387   1.631 -0.3631 -0.3614 -0.1541
 5679TIP3    H138528   6.136   3.468   1.582  0.1922  0.1321  0.8072
 5679TIP3    H238529   6.098   3.417   1.720 -0.1460 -1.2614  0.2100
 5680TIP3   OH238530   2.754   6.058   5.727  0.0361  0.1265  0.1707
 5680TIP3    H138531   2.807   5.998   5.780 -0.8842  0.2202  1.2273
 5680TIP3    H238532   2.815   6.129   5.704  1.1840 -1.2172 -1.2231
 5681TIP3   OH238533   4.078   0.823   4.365 -0.1322 -0.2474 -0.4900
 5681TIP3    H138534   4.168   0.826   4.333 -0.9327 -0.0559 -2.8481
 5681TIP3    H238535   4.065   0.908   4.408  0.5097  0.0927 -0.9483
 5682TIP3   OH238536   0.665   2.805  15.501  0.7033  0.3246 -0.2211
 5682TIP3    H138537   0.640   2.894  15.476 -0.4305 -0.0664 -0.5557
 5682TIP3    H238538   0.636   2.751  15.428  1.6062 -0.3078 -0.1347
 5683TIP3   OH238539   6.111   6.562   1.706 -0.6404  0.5486 -0.1503
 5683TIP3    H138540   6.156   6.621   1.646 -1.5996  0.1709 -1.2830
 5683TIP3    H238541   6.155   6.478   1.695  0.1040  0.8003  0.7570
 5684TIP3   OH238542   4.182   5.040  12.019 -0.4420 -0.1319  0.0992
 5684TIP3    H138543   4.146   5.070  11.936  1.7696  2.4201 -0.0651
 5684TIP3    H238544   4.246   4.973  11.995  0.3522  0.7596 -0.3029
 5685TIP3   OH238545   4.470   6.407   1.263 -0.6524  0.0442 -0.2372
 5685TIP3    H138546   4.510   6.492   1.242  1.2423 -0.6628  0.3169
 5685TIP3    H238547   4.410   6.390   1.190 -0.1269  1.2786 -0.9832
 5686TIP3   OH238548   4.944   2.724   2.402  0.1735 -0.0908  0.3951
 5686TIP3    H138549   5.003   2.771   2.462  0.0241 -0.2042  0.6325
 5686TIP3    H238550   4.904   2.656   2.457 -0.0882 -0.0905  0.2024
 5687TIP3   OH238551   0.242   1.049   3.978  0.4907 -0.7647  0.4215
 5687TIP3    H138552   0.228   0.969   3.927  2.4578 -1.3412  0.7021
 5687TIP3    H238553   0.264   1.017   4.066  2.5231 -0.0039  0.2325
 5688TIP3   OH238554   2.172   5.778   4.821 -0.3841 -0.0390 -0.2727
 5688TIP3    H138555   2.258   5.806   4.852 -0.7849  0.0973  0.7566
 5688TIP3    H238556   2.139   5.852   4.770  0.0010  0.0015 -0.4686
 5689TIP3   OH238557   4.641   4.437  16.275 -0.6678  0.1975 -1.1588
 5689TIP3    H138558   4.577   4.375  16.240  1.0318 -1.3820 -1.6373
 5689TIP3    H238559   4.685   4.473  16.198  2.3962 -2.5366 -0.9097
 5690TIP3   OH238560   0.273   5.833   5.999 -0.0346 -0.1439 -0.3979
 5690TIP3    H138561   0.288   5.921   5.962 -0.3018 -1.1946 -3.2828
 5690TIP3    H238562   0.282   5.774   5.924  0.2304 -2.6314  1.4720
 5691TIP3   OH238563   6.334   2.679   2.611 -0.4288 -0.6337  0.0748
 5691TIP3    H138564   6.364   2.763   2.575 -0.0159 -0.7300  0.1869
 5691TIP3    H238565   6.267   2.704   2.675 -1.4521 -0.4840 -1.0196
 5692TIP3   OH238566   0.906   5.026  14.647  0.5800  0.3762 -0.1561
 5692TIP3    H138567   0.885   5.119  14.640  1.1399  0.4324 -1.4684
 5692TIP3    H238568   0.822   4.983  14.663  0.1812  1.0200 -0.4848
 5693TIP3   OH238569   5.731   4.899  14.709 -0.2628 -0.1822 -0.3273
 5693TIP3    H138570   5.788   4.960  14.662  0.3108  0.3268  0.9897
 5693TIP3    H238571   5.752   4.814  14.671 -0.2091  0.2736 -1.3584
 5694TIP3   OH238572   2.308   5.472   3.892 -0.5911  0.0111  0.4802
 5694TIP3    H138573   2.297   5.435   3.979  0.0671 -2.6995 -0.4937
 5694TIP3    H238574   2.387   5.430   3.857  0.9378  3.2618 -0.3868
 5695TIP3   OH238575   4.968   6.344  12.027  0.4710  0.6329  0.0600
 5695TIP3    H138576   4.924   6.419  11.986 -0.2586  0.2574  0.1260
 5695TIP3    H238577   5.016   6.302  11.956 -0.4321  0.2398 -0.3371
 5696TIP3   OH238578   2.084   2.470  17.007 -0.1448  0.1814  0.2260
 5696TIP3    H138579   2.044   2.413  16.941 -0.7046  0.7898  0.0340
 5696TIP3    H238580   2.122   2.409  17.070 -1.2528 -0.4229  0.3455
 5697TIP3   OH238581   3.722   5.079  11.793  0.3412  0.1403  0.0806
 5697TIP3    H138582   3.766   5.027  11.725 -0.9529 -0.3270 -0.4302
 5697TIP3    H238583   3.746   5.035  11.875  0.1639 -0.6095 -0.2559
 5698TIP3   OH238584   3.232   6.191   0.902 -0.0985  0.0691  0.0589
 5698TIP3    H138585   3.288   6.184   0.979  1.2528 -1.1772 -0.9601
 5698TIP3    H238586   3.202   6.101   0.886 -0.1702  0.2608 -0.9751
 5699TIP3   OH238587   2.867   5.509   2.641 -0.4257 -0.0348 -0.1675
 5699TIP3    H138588   2.925   5.544   2.573 -1.4063  1.2226 -0.3792
 5699TIP3    H238589   2.925   5.458   2.697  0.5246 -0.5175 -1.5438
 5700TIP3   OH238590   3.124   5.872  11.774 -0.1266 -0.0232 -0.5018
 5700TIP3    H138591   3.169   5.804  11.823  2.9275  1.6448 -0.6781
 5700TIP3    H238592   3.178   5.883  11.695 -1.9750  0.8505 -1.7044
 5701TIP3   OH238593   2.936   5.288  16.330 -0.2624  0.2542  0.2394
 5701TIP3    H138594   2.928   5.262  16.238 -2.0001 -0.3883  0.5301
 5701TIP3    H238595   2.884   5.369  16.335 -0.3961  0.1352  0.7189
 5702TIP3   OH238596   4.815   0.857   3.646  0.0867 -0.2983  0.1246
 5702TIP3    H138597   4.798   0.914   3.570 -0.2315 -0.5121  0.0333
 5702TIP3    H238598   4.760   0.893   3.716  1.6642  0.9567  0.7828
 5703TIP3   OH238599   1.487   4.740  13.719  0.1061  0.1929  0.6213
 5703TIP3    H138600   1.490   4.709  13.628  0.8296  0.0927  0.6737
 5703TIP3    H238601   1.394   4.759  13.735 -0.4936 -2.5022  0.7937
 5704TIP3   OH238602   5.072   1.174   3.200 -0.4632  0.4076 -0.2377
 5704TIP3    H138603   5.050   1.111   3.268  0.7400  0.6878  0.4358
 5704TIP3    H238604   5.144   1.225   3.236 -1.6542  2.4632 -0.5932
 5705TIP3   OH238605   3.619   0.044   4.777  0.1375 -0.0410 -0.2510
 5705TIP3    H138606   3.591   0.055   4.686  0.0079 -0.0498 -0.2126
 5705TIP3    H238607   3.664  -0.040   4.779  0.8861  0.3424 -0.4892
 5706TIP3   OH238608   1.373   2.592  14.726 -0.0216  0.1172  0.2272
 5706TIP3    H138609   1.341   2.557  14.642 -0.0189  0.0550  0.2513
 5706TIP3    H238610   1.443   2.653  14.701 -0.6841  0.8526  0.1284
 5707TIP3   OH238611   1.050   4.996  16.778  0.0021 -0.1900  0.1893
 5707TIP3    H138612   1.101   4.942  16.839  0.3181 -0.2660 -0.1431
 5707TIP3    H238613   0.962   4.958  16.781  0.2834 -0.9048 -0.2513
 5708TIP3   OH238614   3.685   6.487   1.836  0.0714 -0.2215 -0.1014
 5708TIP3    H138615   3.609   6.449   1.880 -0.1061 -0.3335 -0.4933
 5708TIP3    H238616   3.662   6.485   1.743  0.5144 -0.1664 -0.2159
 5709TIP3   OH238617   2.097   5.610   0.509  0.1271  0.3652  0.2385
 5709TIP3    H138618   2.041   5.653   0.445 -0.3926  1.8950  1.6423
 5709TIP3    H238619   2.145   5.682   0.551  1.0073 -0.6600  1.0529
 5710TIP3   OH238620   0.299   4.110  11.258  0.0385  0.3954 -0.4636
 5710TIP3    H138621   0.310   4.164  11.180 -1.8946  2.9454  0.8984
 5710TIP3    H238622   0.383   4.114  11.302 -0.1211  2.6224 -0.2553
 5711TIP3   OH238623   6.545   6.161  16.060 -0.2733 -0.0073  0.2958
 5711TIP3    H138624   6.524   6.082  16.011 -0.7771  0.1944  0.1805
 5711TIP3    H238625   6.489   6.158  16.137 -2.7466  1.7973 -1.2600
 5712TIP3   OH238626   1.021   4.722   6.297  0.0370 -0.0971  0.0801
 5712TIP3    H138627   1.035   4.810   6.332 -0.7189 -0.7938  2.2947
 5712TIP3    H238628   1.006   4.735   6.203  2.2871  1.8756 -0.0968
 5713TIP3   OH238629   4.172   2.924   1.604 -0.2024  0.1378 -0.5876
 5713TIP3    H138630   4.261   2.908   1.573 -0.0263  0.9247 -0.5271
 5713TIP3    H238631   4.116   2.900   1.530  0.2011  1.8562 -1.5156
 5714TIP3   OH238632   2.212   1.868   3.974  0.0524  0.6694  0.2685
 5714TIP3    H138633   2.153   1.894   4.044 -0.6269 -0.1816  0.0306
 5714TIP3    H238634   2.252   1.787   4.005  0.4224  0.7650  0.0487
 5715TIP3   OH238635   3.222   3.866   4.555 -0.4143  0.4396 -0.4421
 5715TIP3    H138636   3.202   3.776   4.578 -0.8394  0.1605 -1.7903
 5715TIP3    H238637   3.250   3.907   4.637  2.9877 -1.7390 -0.3343
 5716TIP3   OH238638   0.043   3.039   1.011 -0.5113 -0.1485 -0.0304
 5716TIP3    H138639  -0.026   3.091   0.970  0.2158  0.4142 -0.5780
 5716TIP3    H238640   0.104   3.021   0.940  0.2254 -0.1017  0.5832
 5717TIP3   OH238641   3.283   1.721  13.181 -0.5859  0.1488 -0.0450
 5717TIP3    H138642   3.362   1.775  13.182 -0.0605 -0.6201  0.1483
 5717TIP3    H238643   3.219   1.772  13.231 -0.3884  1.0284 -0.6691
 5718TIP3   OH238644   5.228   5.304   0.785 -0.1005  0.1442 -0.0591
 5718TIP3    H138645   5.213   5.218   0.746 -0.8224 -0.6149  1.7673
 5718TIP3    H238646   5.241   5.362   0.710  0.2860 -1.5102 -1.3542
 5719TIP3   OH238647   0.501   6.431   6.000  0.5163 -0.8011  0.2541
 5719TIP3    H138648   0.544   6.391   6.076  1.0673 -0.3221  0.2091
 5719TIP3    H238649   0.505   6.364   5.932  1.5403 -0.6482  0.1371
 5720TIP3   OH238650   4.232   5.531  16.612 -0.2979  0.2529  0.1396
 5720TIP3    H138651   4.284   5.498  16.538 -0.6156  2.3988 -1.1071
 5720TIP3    H238652   4.251   5.624  16.615 -1.3356  0.4388  1.9621
 5721TIP3   OH238653   4.666   5.755   5.962  0.4409  0.1691  0.0680
 5721TIP3    H138654   4.615   5.694   5.909 -0.5343 -0.2776  1.4563
 5721TIP3    H238655   4.602   5.820   5.992  0.3913 -0.9563  2.6615
 5722TIP3   OH238656   0.516   4.362  16.247 -0.0815 -0.1925  0.7847
 5722TIP3    H138657   0.514   4.349  16.342 -5.1574  2.8894  1.4443
 5722TIP3    H238658   0.466   4.289  16.211 -0.5404  0.0907  0.8373
 5723TIP3   OH238659   1.938   3.750  12.513  0.4597 -0.3787 -0.1082
 5723TIP3    H138660   1.969   3.807  12.442 -0.0414 -1.1078 -0.9420
 5723TIP3    H238661   1.917   3.810  12.584  2.0324  0.2890 -0.1537
 5724TIP3   OH238662   2.498   5.344   3.493 -0.2659 -0.0592 -0.0641
 5724TIP3    H138663   2.482   5.418   3.552 -0.3624  0.9102 -1.2588
 5724TIP3    H238664   2.569   5.295   3.535 -0.7163  0.2687  1.1344
 5725TIP3   OH238665   5.840   5.827   6.464 -0.5466  0.0445 -0.1082
 5725TIP3    H138666   5.797   5.861   6.543 -0.3201  0.4395 -0.1530
 5725TIP3    H238667   5.905   5.766   6.497 -1.1261 -0.5431 -0.0372
 5726TIP3   OH238668   0.328   5.802  15.312 -0.0768  0.4881 -0.2452
 5726TIP3    H138669   0.314   5.710  15.291 -0.4153  0.6242 -0.6263
 5726TIP3    H238670   0.271   5.849  15.252  1.0624  1.0086 -0.9527
 5727TIP3   OH238671   5.949   4.839  14.002  0.2567  0.2460 -0.8810
 5727TIP3    H138672   5.937   4.747  13.982 -0.7708 -0.5951  2.8151
 5727TIP3    H238673   6.041   4.856  13.982  0.4882 -1.6051 -1.5507
 5728TIP3   OH238674   5.467   0.525   2.083  0.1642  0.7179 -0.5221
 5728TIP3    H138675   5.477   0.561   1.995  1.0224 -1.7966 -1.5693
 5728TIP3    H238676   5.545   0.471   2.096  0.0586  1.0175  1.8123
 5729TIP3   OH238677   5.165   4.484   4.961 -0.1814 -0.2451 -0.3878
 5729TIP3    H138678   5.166   4.425   5.036  1.1213  1.0056  0.6389
 5729TIP3    H238679   5.141   4.569   4.998  0.6902  0.4372 -1.3376
 5730TIP3   OH238680   5.661   4.007  17.228 -0.2485 -0.0272  0.4478
 5730TIP3    H138681   5.743   4.030  17.271 -0.5628  0.2370  0.9153
 5730TIP3    H238682   5.603   3.981  17.300 -1.0379  1.1851  0.2744
 5731TIP3   OH238683   3.191   3.213   3.029 -0.3916 -0.7449 -0.2850
 5731TIP3    H138684   3.142   3.274   2.974 -0.2493 -0.2900  0.0840
 5731TIP3    H238685   3.149   3.219   3.115  2.4101  2.3486  1.0753
 5732TIP3   OH238686   5.055   3.936   2.620  0.5612 -0.1360 -0.3991
 5732TIP3    H138687   4.996   4.009   2.641 -0.3458 -1.2430  1.1034
 5732TIP3    H238688   5.093   3.960   2.535 -0.6959  1.4636 -0.5678
 5733TIP3   OH238689   0.521   3.849   4.417  0.1141  0.0110 -0.0701
 5733TIP3    H138690   0.608   3.812   4.402  0.0536  0.8322 -2.9798
 5733TIP3    H238691   0.463   3.800   4.358 -0.5205  2.4571 -1.6330
 5734TIP3   OH238692   6.625   3.170   5.279 -0.2391  0.3831 -0.1370
 5734TIP3    H138693   6.693   3.134   5.223 -1.4513  1.3176 -2.3582
 5734TIP3    H238694   6.634   3.265   5.271 -2.3528  0.5524 -1.3290
 5735TIP3   OH238695   4.673   5.554   3.489  1.0954 -0.1852 -0.7692
 5735TIP3    H138696   4.670   5.628   3.428  0.0817 -0.4111 -0.9943
 5735TIP3    H238697   4.750   5.573   3.544  0.2580  1.6129 -0.1119
 5736TIP3   OH238698   1.231   0.400  15.429 -0.5755  0.2236  0.2426
 5736TIP3    H138699   1.165   0.469  15.423  0.6201  1.4381  0.4979
 5736TIP3    H238700   1.274   0.416  15.513 -0.9049 -1.4446  0.7584
 5737TIP3   OH238701   1.354   2.618  15.802 -0.2765  0.0314 -0.0304
 5737TIP3    H138702   1.328   2.708  15.822 -0.4784 -0.3446  1.5339
 5737TIP3    H238703   1.446   2.613  15.828 -0.3959 -0.3316  0.3354
 5738TIP3   OH238704   5.423   3.650   6.214 -0.7102  0.1091 -0.0299
 5738TIP3    H138705   5.354   3.636   6.280 -0.1905 -1.1466  0.2886
 5738TIP3    H238706   5.487   3.706   6.258  0.3458 -1.8815  1.1276
 5739TIP3   OH238707   5.457   0.357  14.864 -0.5350 -0.2150  0.0023
 5739TIP3    H138708   5.518   0.430  14.851 -0.2812  0.0299  2.1641
 5739TIP3    H238709   5.373   0.399  14.882 -0.7364 -0.4850 -0.3113
 5740TIP3   OH238710   2.033   5.531   4.106  0.0142 -0.1174  0.6019
 5740TIP3    H138711   2.076   5.501   4.186  0.5491 -2.5898 -0.5407
 5740TIP3    H238712   1.942   5.504   4.116 -0.3287  1.1020  1.0524
 5741TIP3   OH238713   3.979   3.461   0.726 -0.4485  0.0548  0.2057
 5741TIP3    H138714   3.943   3.545   0.754  1.0018  0.2242  1.7911
 5741TIP3    H238715   4.042   3.439   0.795  0.4695 -1.4884 -1.0702
 5742TIP3   OH238716   2.200   0.967  12.796 -0.2652  0.2510 -0.2069
 5742TIP3    H138717   2.199   1.000  12.886  0.3647  0.9577 -0.4494
 5742TIP3    H238718   2.289   0.934  12.783 -0.4940 -0.2997 -0.4148
 5743TIP3   OH238719   5.615   3.649   6.575  0.4742 -1.2724  0.2901
 5743TIP3    H138720   5.709   3.631   6.571  0.7939  0.3941 -0.3449
 5743TIP3    H238721   5.597   3.700   6.496 -0.6363 -0.1834  1.2015
 5744TIP3   OH238722   4.390   5.722  16.517 -0.8387  0.0382  0.0099
 5744TIP3    H138723   4.440   5.705  16.597 -0.8672 -0.5090 -0.0847
 5744TIP3    H238724   4.456   5.728  16.448 -0.4152  4.1541  0.5436
 5745TIP3   OH238725   3.099   3.989   6.107 -0.2817 -0.0298 -0.6344
 5745TIP3    H138726   3.154   4.064   6.129 -1.1781 -0.2378  3.0388
 5745TIP3    H238727   3.158   3.914   6.111  0.1196  0.2010 -1.8457
 5746TIP3   OH238728   4.205   4.685  12.635  0.3785 -0.3738  0.0449
 5746TIP3    H138729   4.210   4.592  12.655 -1.0515 -0.5661 -0.4425
 5746TIP3    H238730   4.241   4.728  12.712 -1.4832 -1.2343  1.4660
 5747TIP3   OH238731   4.196   1.451  13.096  0.6186  0.0052  0.0905
 5747TIP3    H138732   4.174   1.364  13.129 -1.1393  0.6816  0.8807
 5747TIP3    H238733   4.228   1.436  13.008 -2.3031 -1.3016 -0.8872
 5748TIP3   OH238734   4.000   5.379   1.217 -0.4584 -0.2297 -0.0551
 5748TIP3    H138735   3.973   5.323   1.290 -0.7582 -1.5608 -1.1497
 5748TIP3    H238736   3.963   5.337   1.139  0.6125  0.6485 -1.0798
 5749TIP3   OH238737   2.557   2.336   4.679 -0.7880 -0.1204  0.0697
 5749TIP3    H138738   2.510   2.264   4.636 -2.3538  2.0813 -2.1730
 5749TIP3    H238739   2.488   2.393   4.714  0.3665  0.8697  0.8317
 5750TIP3   OH238740   3.601   2.207  16.631  0.6505 -0.4082 -0.0869
 5750TIP3    H138741   3.593   2.195  16.537  1.9877 -1.7088 -0.0921
 5750TIP3    H238742   3.643   2.292  16.642 -0.2606  0.1156 -0.6130
 5751TIP3   OH238743   0.808   0.857   2.114 -0.1766  0.2829 -0.0156
 5751TIP3    H138744   0.819   0.829   2.023  2.1152  1.4934 -0.1930
 5751TIP3    H238745   0.892   0.898   2.137 -1.6222  2.4910  1.7657
 5752TIP3   OH238746   0.298   5.075   1.334  0.8421  0.2172 -0.0027
 5752TIP3    H138747   0.269   4.989   1.364  0.9255  0.1579 -0.0923
 5752TIP3    H238748   0.275   5.135   1.405  0.4416  0.1800 -0.1008
 5753TIP3   OH238749   0.552   6.262  17.047  0.0638  0.1070 -0.3648
 5753TIP3    H138750   0.591   6.333  17.096  1.1894 -1.1068  0.5735
 5753TIP3    H238751   0.621   6.197  17.039 -1.7007 -2.1682  1.4037
 5754TIP3   OH238752   4.638   2.762   3.460 -0.0713 -0.5057 -0.0480
 5754TIP3    H138753   4.544   2.749   3.451  0.1900 -3.6869  0.4181
 5754TIP3    H238754   4.670   2.773   3.371 -0.7405 -0.9809 -0.3555
 5755TIP3   OH238755   0.430   5.281  16.610 -0.0155 -0.4134 -0.4955
 5755TIP3    H138756   0.446   5.233  16.528 -1.8661 -0.5186 -0.8287
 5755TIP3    H238757   0.337   5.303  16.607 -0.2788 -0.9557  1.8797
 5756TIP3   OH238758   4.646   6.299  13.111 -0.4770 -0.0411  0.2965
 5756TIP3    H138759   4.685   6.221  13.149  2.7949  1.2096 -0.1643
 5756TIP3    H238760   4.703   6.371  13.140 -1.2900  1.7123 -2.1246
 5757TIP3   OH238761   4.156   3.378  10.947 -0.4634  0.2054 -0.3072
 5757TIP3    H138762   4.169   3.287  10.921  0.6137 -0.3810  2.0544
 5757TIP3    H238763   4.205   3.429  10.882  0.9789 -1.0631 -0.2673
 5758TIP3   OH238764   3.198   2.505   1.271  0.0793 -0.5081  0.6206
 5758TIP3    H138765   3.217   2.501   1.365  1.8045  0.6938  0.3605
 5758TIP3    H238766   3.249   2.434   1.233 -0.8668 -1.1993  0.5849
 5759TIP3   OH238767   5.828   5.487  13.014  0.2155 -0.5210 -0.0151
 5759TIP3    H138768   5.885   5.465  12.940  0.7334  0.2891  0.1332
 5759TIP3    H238769   5.783   5.405  13.034  1.5561 -1.2603  0.0539
 5760TIP3   OH238770   1.904   0.047   3.588 -0.0677  0.1748 -0.3830
 5760TIP3    H138771   1.887   0.036   3.682  1.5483 -1.3222 -0.2188
 5760TIP3    H238772   1.961   0.124   3.583  0.3479 -0.1072 -0.0657
 5761TIP3   OH238773   2.764   4.429  14.187 -0.7856 -0.0959 -0.2697
 5761TIP3    H138774   2.721   4.451  14.270 -0.8975  1.1147 -0.6350
 5761TIP3    H238775   2.857   4.421  14.210 -1.1175 -2.6222  0.4998
 5762TIP3   OH238776   1.393   4.154  14.787 -0.3186 -0.2752 -0.2496
 5762TIP3    H138777   1.410   4.248  14.787 -0.1196 -0.3097 -0.1974
 5762TIP3    H238778   1.352   4.136  14.872  2.4518 -0.7181  1.1327
 5763TIP3   OH238779   6.451   1.198   3.642  0.0146  0.2187 -0.3970
 5763TIP3    H138780   6.429   1.108   3.665 -1.5574  0.4630 -0.8259
 5763TIP3    H238781   6.469   1.196   3.549 -0.5962  0.4304 -0.5266
 5764TIP3   OH238782   2.626   4.927  15.931  0.0282 -0.0229  0.4475
 5764TIP3    H138783   2.600   5.019  15.934 -0.4749 -0.1789  2.3654
 5764TIP3    H238784   2.680   4.920  15.852 -1.6543  1.4191 -0.9074
 5765TIP3   OH238785   4.237   5.576   5.625 -0.2769 -0.4188  0.2092
 5765TIP3    H138786   4.294   5.654   5.624  0.0827 -0.6573 -1.3222
 5765TIP3    H238787   4.296   5.504   5.646 -0.6036 -0.3092  1.5920
 5766TIP3   OH238788   3.562   4.195  12.757  0.0977 -0.2300 -0.1130
 5766TIP3    H138789   3.580   4.285  12.784 -0.9646 -0.6300  2.1274
 5766TIP3    H238790   3.498   4.204  12.686 -0.0119  0.7989  0.0982
 5767TIP3   OH238791   5.014   2.470   2.666 -0.3552  0.2717 -0.5935
 5767TIP3    H138792   4.933   2.483   2.616 -0.8919  0.4608  0.2934
 5767TIP3    H238793   4.984   2.445   2.754  0.5543  0.2836 -0.2664
 5768TIP3   OH238794   1.489   4.254   5.232 -0.3493 -0.0698 -0.2185
 5768TIP3    H138795   1.417   4.254   5.295 -1.4262 -0.8498 -1.3934
 5768TIP3    H238796   1.452   4.297   5.154  0.5639 -0.1840 -0.7281
 5769TIP3   OH238797   6.033   4.248  12.153 -0.1858  0.4739 -0.1364
 5769TIP3    H138798   6.014   4.182  12.219  0.8541  1.7246  1.4800
 5769TIP3    H238799   5.949   4.263  12.109 -0.5682 -1.4329 -0.1204
 5770TIP3   OH238800   3.303   6.698  13.317  0.1691 -0.2405  0.0614
 5770TIP3    H138801   3.348   6.707  13.401 -2.5341  0.5220  1.5378
 5770TIP3    H238802   3.257   6.781  13.304 -1.6530 -1.3084 -0.7849
 5771TIP3   OH238803   1.482   5.038  12.956  0.7671  0.7086 -0.4271
 5771TIP3    H138804   1.403   5.092  12.962  0.8436  0.9057 -1.0738
 5771TIP3    H238805   1.451   4.952  12.929  0.9580  1.4046 -3.1219
 5772TIP3   OH238806   5.601   5.296   4.855 -0.8154 -0.0261  0.4298
 5772TIP3    H138807   5.600   5.242   4.776  0.1014  1.8876 -0.9623
 5772TIP3    H238808   5.513   5.285   4.893 -1.0149 -1.5706 -0.4058
 5773TIP3   OH238809   5.492   4.223  13.591 -0.4443  0.1616 -0.4243
 5773TIP3    H138810   5.530   4.138  13.568 -1.4628 -0.1764 -0.9149
 5773TIP3    H238811   5.417   4.201  13.647 -0.7453  0.7386 -0.6013
 5774TIP3   OH238812   4.651   3.856  12.710 -0.5441 -0.4000  0.9746
 5774TIP3    H138813   4.681   3.806  12.786 -0.0192 -1.0683  0.3386
 5774TIP3    H238814   4.654   3.794  12.637  1.4211  0.8562 -0.1123
 5775TIP3   OH238815   3.577   4.835   0.369 -0.1743  0.4230  0.2338
 5775TIP3    H138816   3.636   4.895   0.415 -0.0463  0.0506  0.5628
 5775TIP3    H238817   3.544   4.886   0.295  0.7843  0.5467 -0.1282
 5776TIP3   OH238818   4.849   3.972   3.923  0.5294 -0.0881  0.2133
 5776TIP3    H138819   4.884   3.975   4.012 -1.4414  0.0796  1.0485
 5776TIP3    H238820   4.768   3.922   3.931 -0.1737  0.7314 -1.3010
 5777TIP3   OH238821   6.189   1.420  14.504 -0.5704 -0.1183 -0.4382
 5777TIP3    H138822   6.131   1.346  14.487  1.3652 -2.0200  0.7533
 5777TIP3    H238823   6.254   1.416  14.434 -0.5545  0.5849 -0.4684
 5778TIP3   OH238824   2.178   1.456   0.747 -0.7921 -0.9741 -0.0435
 5778TIP3    H138825   2.169   1.443   0.841  1.4701  1.5416  0.6320
 5778TIP3    H238826   2.260   1.413   0.724 -0.0464  0.5409 -0.3323
 5779TIP3   OH238827   4.899   0.529  11.617 -0.0598 -0.1464 -0.1389
 5779TIP3    H138828   4.927   0.464  11.681  0.4178 -0.8210 -1.0218
 5779TIP3    H238829   4.835   0.583  11.664 -2.1252 -2.5631 -0.0084
 5780TIP3   OH238830   0.748   1.158  15.051  0.0026 -0.2678 -0.2016
 5780TIP3    H138831   0.795   1.220  15.107  0.2988  0.0099 -0.7481
 5780TIP3    H238832   0.721   1.088  15.110  1.0686 -0.4087  0.1366
 5781TIP3   OH238833   3.166   2.161   2.081  0.3364 -0.4044  0.4871
 5781TIP3    H138834   3.258   2.134   2.073  0.3430 -0.5143  0.9318
 5781TIP3    H238835   3.129   2.101   2.146  0.0348 -0.1364  0.5631
 5782TIP3   OH238836   6.733   2.257   1.233  0.2193 -0.2614 -0.2479
 5782TIP3    H138837   6.810   2.218   1.193 -0.2586 -0.9543 -0.5065
 5782TIP3    H238838   6.765   2.339   1.271  0.9342 -0.1980 -0.9569
 5783TIP3   OH238839   1.072   2.354   4.412 -0.1769 -1.0616  0.8854
 5783TIP3    H138840   1.158   2.325   4.383  0.6661  0.9654  1.2083
 5783TIP3    H238841   1.013   2.327   4.341  0.6144 -2.7992  0.8245
 5784TIP3   OH238842   2.354   5.219   4.697  0.4734 -0.0494  0.2842
 5784TIP3    H138843   2.320   5.307   4.711  0.1668 -0.1438  0.1569
 5784TIP3    H238844   2.294   5.181   4.632  0.7161 -0.2833  0.1958
 5785TIP3   OH238845   2.467   1.418  12.485  0.0783  0.0592 -0.3094
 5785TIP3    H138846   2.404   1.457  12.424 -0.6548 -1.0624 -0.2977
 5785TIP3    H238847   2.552   1.435  12.445 -0.3826 -0.5417 -1.5930
 5786TIP3   OH238848   4.634   5.766  14.300  0.5397 -0.3572 -0.4291
 5786TIP3    H138849   4.620   5.761  14.206 -0.0097  1.2678 -0.4759
 5786TIP3    H238850   4.546   5.771  14.338  0.7324 -1.6780  0.2430
 5787TIP3   OH238851   1.354   2.729  16.085 -0.7645 -0.1486 -0.3779
 5787TIP3    H138852   1.438   2.685  16.102 -0.2866  0.3125 -1.4486
 5787TIP3    H238853   1.299   2.661  16.047 -0.7114 -0.3379 -0.1171
 5788TIP3   OH238854   4.462   3.385  16.594 -0.5907  0.0048  0.2637
 5788TIP3    H138855   4.536   3.431  16.633 -0.0617 -1.2194  0.7515
 5788TIP3    H238856   4.503   3.321  16.535 -1.2911 -0.1727 -0.0325
 5789TIP3   OH238857   0.378   5.838  12.636  0.5944  0.2311 -0.2268
 5789TIP3    H138858   0.360   5.765  12.576 -0.9636  0.3119  0.1009
 5789TIP3    H238859   0.357   5.916  12.585 -3.5060  0.2596  1.1059
 5790TIP3   OH238860   4.788   1.983  15.936  0.4431  0.3902  0.2149
 5790TIP3    H138861   4.726   1.917  15.966  0.9342 -0.4360 -0.5241
 5790TIP3    H238862   4.832   1.942  15.861  1.0722  1.3908  0.0147
 5791TIP3   OH238863   3.041   2.532   1.820  0.5149  0.1499 -0.2881
 5791TIP3    H138864   3.023   2.622   1.847 -3.1342  0.4819 -3.0128
 5791TIP3    H238865   3.025   2.479   1.899  1.6585  1.7493  1.0735
 5792TIP3   OH238866   4.322   6.280  14.804 -0.4153 -0.4341  0.2138
 5792TIP3    H138867   4.290   6.365  14.772 -0.7256 -1.1498 -1.4585
 5792TIP3    H238868   4.407   6.300  14.843  0.3825  0.3971 -1.8306
 5793TIP3   OH238869   4.455   3.351   4.321 -0.0039  0.0285  0.0473
 5793TIP3    H138870   4.359   3.349   4.311  0.1233 -0.6079 -1.2945
 5793TIP3    H238871   4.470   3.411   4.394 -1.4597 -0.5338  0.8367
 5794TIP3   OH238872   4.702   6.133  11.916  1.1206  0.6409 -0.0314
 5794TIP3    H138873   4.734   6.148  12.005 -0.4766 -0.1313  0.7181
 5794TIP3    H238874   4.746   6.200  11.863  1.1056  1.9843  1.5702
 5795TIP3   OH238875   1.529   4.381  12.046 -0.0020 -0.3565  0.1194
 5795TIP3    H138876   1.495   4.392  11.956 -0.2189  1.4457  0.3815
 5795TIP3    H238877   1.480   4.445  12.098 -1.3006 -2.7017  1.9564
 5796TIP3   OH238878   5.719   3.938  13.062  0.3764 -0.9006  0.2927
 5796TIP3    H138879   5.652   3.870  13.060  0.5780 -1.2137 -3.3530
 5796TIP3    H238880   5.778   3.915  12.990 -0.2821  3.7229 -2.0968
 5797TIP3   OH238881   5.519   6.497  13.335  0.4360 -0.3466 -0.0709
 5797TIP3    H138882   5.543   6.459  13.419  3.8822 -0.8665 -1.1313
 5797TIP3    H238883   5.595   6.481  13.279 -1.7694 -0.2180 -3.3900
 5798TIP3   OH238884   6.042   1.928  12.974  0.1153  0.1613  0.2076
 5798TIP3    H138885   5.981   1.855  12.971 -0.4194  0.6375 -1.1519
 5798TIP3    H238886   5.991   2.004  12.945  0.8006  0.9819  1.0766
 5799TIP3   OH238887   0.143   1.290  10.783 -0.5020 -0.4495  0.6154
 5799TIP3    H138888   0.155   1.385  10.788 -1.1205 -0.4024  1.3843
 5799TIP3    H238889   0.056   1.275  10.821 -1.0418 -1.1859 -0.8524
 5800TIP3   OH238890   5.381   1.531   5.621 -0.3528  0.5561 -0.4751
 5800TIP3    H138891   5.296   1.575   5.621 -0.2036  0.8521 -1.1350
 5800TIP3    H238892   5.373   1.463   5.689 -0.7461  1.2739  0.2078
 5801TIP3   OH238893   1.484   1.937   3.588 -0.5207  0.0394 -0.5865
 5801TIP3    H138894   1.410   1.878   3.573 -0.8906  0.3270  0.0654
 5801TIP3    H238895   1.521   1.908   3.672 -2.1063  2.1445  0.9202
 5802TIP3   OH238896   6.455   4.914  15.466  0.0852 -0.1909 -0.6392
 5802TIP3    H138897   6.373   4.879  15.502  0.6482 -0.6657  0.2338
 5802TIP3    H238898   6.451   5.007  15.485 -0.6115 -0.0734 -1.3303
 5803TIP3   OH238899   4.138   0.793   5.182  0.0047 -0.1859  0.0542
 5803TIP3    H138900   4.053   0.815   5.221  0.4407 -0.4272  1.1875
 5803TIP3    H238901   4.182   0.740   5.249  1.6340  1.1383  0.0914
 5804TIP3   OH238902   1.310   5.412   4.119 -0.3564 -0.2126 -1.0758
 5804TIP3    H138903   1.279   5.439   4.205 -1.6507 -2.1093 -0.8821
 5804TIP3    H238904   1.397   5.376   4.134  0.2480  1.2476 -0.9175
 5805TIP3   OH238905   0.250   3.797  15.243 -0.2287  0.1803  0.4159
 5805TIP3    H138906   0.168   3.843  15.259  2.1564  4.8347  1.3064
 5805TIP3    H238907   0.246   3.772  15.151 -2.2928  1.1606  0.1778
 5806TIP3   OH238908   4.206   3.442  12.377  0.0510 -0.4209 -0.1150
 5806TIP3    H138909   4.134   3.411  12.323 -0.8526  0.8008  0.3338
 5806TIP3    H238910   4.177   3.429  12.467  0.5106 -0.1814  0.0749
 5807TIP3   OH238911   3.912   6.711   4.599  0.5756  0.1732 -0.9732
 5807TIP3    H138912   3.837   6.669   4.640  0.8502  0.1438 -0.4965
 5807TIP3    H238913   3.968   6.738   4.672  1.3872 -0.4654 -1.3430
 5808TIP3   OH238914   6.820   0.984   1.883 -0.1289 -0.4792  0.6422
 5808TIP3    H138915   6.848   0.960   1.795  1.7492  0.5102  0.9216
 5808TIP3    H238916   6.725   0.991   1.877 -0.0160 -0.1502 -1.3737
 5809TIP3   OH238917   5.229   6.024   2.341  0.2362  0.4600 -0.0319
 5809TIP3    H138918   5.242   6.075   2.262 -0.4480 -0.7464 -0.9525
 5809TIP3    H238919   5.137   5.999   2.340  0.6341 -1.1226  0.1678
 5810TIP3   OH238920   3.306   4.802  12.122 -0.0027  0.2647  0.2295
 5810TIP3    H138921   3.239   4.751  12.077 -0.2453 -1.2310  2.1581
 5810TIP3    H238922   3.362   4.835  12.052  0.1579 -2.6460 -1.1556
 5811TIP3   OH238923   2.602   5.721   0.473 -0.5989 -0.2769 -0.7635
 5811TIP3    H138924   2.534   5.707   0.540  0.3068  0.0253  0.2447
 5811TIP3    H238925   2.663   5.649   0.485 -0.7791 -0.6177 -1.7554
 5812TIP3   OH238926   0.603   4.116  10.857  0.1233  0.6982  0.4965
 5812TIP3    H138927   0.602   4.099  10.951 -2.1537 -1.4401  0.1932
 5812TIP3    H238928   0.551   4.196  10.847 -1.9129 -0.4914  0.9551
 5813TIP3   OH238929   5.057   6.680  16.186 -0.0668 -0.3163 -0.1832
 5813TIP3    H138930   5.051   6.735  16.107 -3.2940 -2.1644 -1.4377
 5813TIP3    H238931   5.095   6.598  16.155 -0.6187 -0.7811  0.3572
 5814TIP3   OH238932   0.838   6.568  14.382 -0.1370 -0.4248  0.9904
 5814TIP3    H138933   0.819   6.659  14.403  0.2127 -0.0734 -0.1413
 5814TIP3    H238934   0.763   6.519  14.415 -1.0432  0.4466  0.2773
 5815TIP3   OH238935   2.943   4.288   4.653 -0.0032  0.1250 -0.3245
 5815TIP3    H138936   2.969   4.196   4.653  2.3106  0.6601 -2.2337
 5815TIP3    H238937   3.006   4.330   4.594 -1.8738  2.6860 -0.6676
 5816TIP3   OH238938   0.153   2.114  12.035 -0.5122  0.1724 -0.2485
 5816TIP3    H138939   0.207   2.193  12.030  1.2573 -1.0140 -0.7784
 5816TIP3    H238940   0.214   2.044  12.057 -2.0853 -1.0294  0.4952
 5817TIP3   OH238941   2.695   6.660   1.152 -0.0934 -0.2214  0.5063
 5817TIP3    H138942   2.647   6.703   1.222 -0.6406 -1.9321  1.2253
 5817TIP3    H238943   2.688   6.567   1.171  2.2421 -0.6144 -0.1986
 5818TIP3   OH238944   0.234   4.293   2.538 -0.0515  0.1032  0.3828
 5818TIP3    H138945   0.297   4.221   2.543 -0.0664  0.1596  3.8933
 5818TIP3    H238946   0.149   4.250   2.525  0.2795 -0.2206 -0.8335
 5819TIP3   OH238947   6.435   4.688  11.348  0.3842  0.2651  0.4561
 5819TIP3    H138948   6.356   4.665  11.397 -0.8241 -1.0606 -1.9095
 5819TIP3    H238949   6.489   4.609  11.350  0.0645 -0.0014 -0.7599
 5820TIP3   OH238950   3.627   4.493  13.842 -0.5787  0.0826  0.3788
 5820TIP3    H138951   3.559   4.510  13.777  0.2566  0.1517 -0.5015
 5820TIP3    H238952   3.692   4.440  13.796  0.2270  0.4699  1.0402
 5821TIP3   OH238953   4.762   1.270  13.683  0.0068 -0.2611  0.0840
 5821TIP3    H138954   4.846   1.305  13.654  0.1618  0.8513  1.7237
 5821TIP3    H238955   4.780   1.179  13.707  0.6218 -0.1743 -0.0411
 5822TIP3   OH238956   1.999   4.796   5.488  0.2635 -0.4496  0.4325
 5822TIP3    H138957   2.066   4.809   5.421  0.1694 -0.0607  0.4105
 5822TIP3    H238958   1.972   4.885   5.513 -0.2741 -0.6028  0.4097
 5823TIP3   OH238959   5.229   1.107   1.794 -0.0417  0.0790 -0.4897
 5823TIP3    H138960   5.231   1.183   1.736  0.9562  0.8832  0.5463
 5823TIP3    H238961   5.137   1.082   1.797 -0.2892  0.8245 -1.3984
 5824TIP3   OH238962   6.482   5.077   5.753 -0.3760  0.3701  0.2649
 5824TIP3    H138963   6.576   5.085   5.740 -0.4073  2.2545  0.9563
 5824TIP3    H238964   6.472   5.067   5.848 -0.8478 -0.6194  0.1251
 5825TIP3   OH238965   3.989   1.656  14.885 -0.2089 -0.9817 -0.4118
 5825TIP3    H138966   3.946   1.715  14.822 -0.2014  0.3104  0.7480
 5825TIP3    H238967   4.082   1.667  14.868 -0.0855  1.0343  1.1785
 5826TIP3   OH238968   5.814   0.166   4.820 -0.2114  0.3954  0.3773
 5826TIP3    H138969   5.859   0.206   4.895 -0.6018 -2.5545  2.3834
 5826TIP3    H238970   5.878   0.104   4.784 -0.1376  1.5594 -1.6469
 5827TIP3   OH238971   2.421   5.757   2.463 -0.3391  0.3235 -0.0801
 5827TIP3    H138972   2.454   5.693   2.526  1.2525  0.2872 -0.8913
 5827TIP3    H238973   2.382   5.704   2.393  1.3898  0.1626 -0.9765
 5828TIP3   OH238974   0.027   2.467   3.632  0.3959 -0.0967 -0.4256
 5828TIP3    H138975   0.021   2.416   3.713 -1.3944 -0.7999 -0.9444
 5828TIP3    H238976  -0.037   2.426   3.574  0.5405  1.3574 -1.6594
 5829TIP3   OH238977   1.048   4.343  11.308 -0.7914  0.1027  0.5460
 5829TIP3    H138978   1.054   4.332  11.403  0.2901 -0.2605  0.4485
 5829TIP3    H238979   1.107   4.277  11.272 -1.2860  0.1500 -0.3922
 5830TIP3   OH238980   0.579   2.644  15.311  0.1500 -0.1472 -0.5780
 5830TIP3    H138981   0.554   2.589  15.385  0.0498 -0.7720 -1.0628
 5830TIP3    H238982   0.497   2.683  15.282  0.3866  1.1792  0.4763
 5831TIP3   OH238983   0.587   3.029  11.059 -0.5606 -0.1943 -0.1126
 5831TIP3    H138984   0.630   3.090  10.999  0.1034 -1.4882 -1.0280
 5831TIP3    H238985   0.526   2.980  11.003  0.3614 -1.7089  0.1300
 5832TIP3   OH238986   6.595   1.254  13.730 -0.0225  0.3383  0.3143
 5832TIP3    H138987   6.544   1.303  13.795  0.1330  1.6973 -0.5313
 5832TIP3    H238988   6.584   1.305  13.649  0.8104 -0.6212 -0.4186
 5833TIP3   OH238989   0.231   2.476   3.116 -0.6575 -0.0335 -0.3082
 5833TIP3    H138990   0.222   2.447   3.207  0.9808  1.4432  0.4130
 5833TIP3    H238991   0.143   2.473   3.080 -1.3974 -0.3840  1.4372
 5834TIP3   OH238992   6.095   1.083  13.698 -0.0957  0.2003  0.0032
 5834TIP3    H138993   6.092   1.178  13.702  1.4018  0.2630  0.0439
 5834TIP3    H238994   6.095   1.055  13.790  0.2264  0.1921  0.0006
 5835TIP3   OH238995   6.541   3.227   2.320  0.3170  0.1265 -0.4884
 5835TIP3    H138996   6.606   3.295   2.338  1.0988 -0.8702  0.6295
 5835TIP3    H238997   6.588   3.162   2.268  0.6213 -1.1572  1.2815
 5836TIP3   OH238998   1.754   5.592  17.162 -0.3736 -0.0596 -0.1377
 5836TIP3    H138999   1.844   5.607  17.134 -0.4902 -0.8171 -0.9603
 5836TIP3    H239000   1.705   5.665  17.125  0.4153  2.6319  3.5153
 5837TIP3   OH239001   4.511   0.693   1.744 -0.1122  0.4228  0.5255
 5837TIP3    H139002   4.437   0.751   1.759 -0.7794 -0.5737  1.2132
 5837TIP3    H239003   4.473   0.614   1.707  0.5278 -0.2782  1.3097
 5838TIP3   OH239004   6.180   4.921  14.503 -0.0263  0.4113  0.2299
 5838TIP3    H139005   6.154   5.004  14.464 -1.1643  0.1611  0.4222
 5838TIP3    H239006   6.101   4.868  14.502  0.7871 -0.8345 -0.2755
 5839TIP3   OH239007   3.186   1.125  12.545  0.1859 -0.2540  0.0937
 5839TIP3    H139008   3.173   1.066  12.471  1.0418 -0.4948  0.1233
 5839TIP3    H239009   3.150   1.209  12.516  0.2414 -0.4255 -0.4832
 5840TIP3   OH239010   4.060   1.192   3.262 -0.0457 -0.2204  0.2898
 5840TIP3    H139011   4.029   1.133   3.192  1.2934 -3.0822  1.9505
 5840TIP3    H239012   4.018   1.160   3.341  1.3646  0.5673  1.4046
 5841TIP3   OH239013   4.066   4.763   2.099  0.4294 -0.3018 -0.2379
 5841TIP3    H139014   4.111   4.821   2.161 -0.6869  1.4939 -1.0079
 5841TIP3    H239015   4.044   4.820   2.026 -0.8252 -1.7053 -1.0071
 5842TIP3   OH239016   1.187   5.200  15.934 -0.4060 -0.0897 -0.4691
 5842TIP3    H139017   1.277   5.178  15.910 -0.6452 -0.3664 -1.1592
 5842TIP3    H239018   1.195   5.255  16.011  0.3057 -1.0393  0.1545
 5843TIP3   OH239019   5.653   5.601   3.900 -0.6294 -0.4124  0.1005
 5843TIP3    H139020   5.630   5.541   3.829  1.1651 -0.7911 -0.2090
 5843TIP3    H239021   5.640   5.689   3.862  2.7848 -0.5277 -1.7175
 5844TIP3   OH239022   5.000   2.163  13.779 -0.0020  0.1042  0.2360
 5844TIP3    H139023   4.951   2.242  13.800 -0.4742 -0.4988  1.5693
 5844TIP3    H239024   5.051   2.145  13.859  0.4997 -0.6432 -0.2357
 5845TIP3   OH239025   4.767   6.127   1.187 -0.3131  0.0149 -0.0571
 5845TIP3    H139026   4.842   6.078   1.220 -1.1536  0.4902  2.7838
 5845TIP3    H239027   4.705   6.130   1.260 -2.8518  0.2312 -2.0532
 5846TIP3   OH239028   3.968   1.413   2.555 -0.6339  0.3068  0.7449
 5846TIP3    H139029   3.972   1.507   2.538  0.8329  0.3200  1.0423
 5846TIP3    H239030   3.887   1.401   2.605 -1.6066  1.1846 -0.5472
 5847TIP3   OH239031   5.399   5.818   3.991  0.4325 -0.4680 -0.0636
 5847TIP3    H139032   5.470   5.840   3.930  1.0244 -0.7504  0.5007
 5847TIP3    H239033   5.320   5.821   3.939  0.8914 -0.3518 -0.7629
 5848TIP3   OH239034   5.609   6.131   6.570  0.2770  0.3130  0.3018
 5848TIP3    H139035   5.693   6.157   6.530 -0.0255  0.2932 -0.3638
 5848TIP3    H239036   5.628   6.047   6.611  0.8645  0.8355  1.1313
 5849TIP3   OH239037   4.226   3.748   2.443  0.1796 -0.1298 -0.4780
 5849TIP3    H139038   4.145   3.794   2.420  0.9972  0.8633 -1.4881
 5849TIP3    H239039   4.197   3.666   2.484 -1.3215  0.3501 -0.5414
 5850TIP3   OH239040   3.645   4.641   3.489  0.3823 -0.6466 -0.1231
 5850TIP3    H139041   3.646   4.733   3.516  1.1076 -0.6225 -0.2213
 5850TIP3    H239042   3.665   4.643   3.396 -3.0489 -0.6531 -0.9977
 5851TIP3   OH239043   1.387   0.286  12.774 -0.2696 -0.5928  0.6042
 5851TIP3    H139044   1.447   0.212  12.785  1.4526  0.9015  1.8020
 5851TIP3    H239045   1.364   0.311  12.864  0.7787  1.5486  0.3199
 5852TIP3   OH239046   6.376   3.505   6.291  0.4683  0.4877  0.0929
 5852TIP3    H139047   6.471   3.516   6.294  0.7518 -1.1035 -1.5337
 5852TIP3    H239048   6.362   3.412   6.305 -0.9046  0.7766  0.7598
 5853TIP3   OH239049   0.858   0.400  10.799  0.4819  0.4425 -0.4556
 5853TIP3    H139050   0.835   0.308  10.790  0.3629  0.2370  1.4393
 5853TIP3    H239051   0.793   0.435  10.861  3.0938  0.6581  2.3891
 5854TIP3   OH239052   2.341   3.990  14.194  0.0297 -0.3872 -0.2746
 5854TIP3    H139053   2.249   3.975  14.214  0.1780  0.2661  0.9772
 5854TIP3    H239054   2.356   4.081  14.218  0.9241 -0.3981 -0.7730
 5855TIP3   OH239055   6.037   2.547   6.683 -0.0513 -0.5012 -0.3776
 5855TIP3    H139056   5.997   2.603   6.616  1.3142  2.0345  0.7815
 5855TIP3    H239057   5.973   2.545   6.754  0.3940  0.7615  0.1012
 5856TIP3   OH239058   6.302   0.866   4.158 -0.2910  0.1047  0.1966
 5856TIP3    H139059   6.327   0.865   4.251  0.2580 -0.9959  0.0403
 5856TIP3    H239060   6.382   0.843   4.111 -0.3885  1.3254 -0.6145
 5857TIP3   OH239061   4.168   0.605  12.914 -0.2343 -0.2039  0.3252
 5857TIP3    H139062   4.176   0.663  12.838 -0.1535  0.8484  1.1144
 5857TIP3    H239063   4.258   0.582  12.936 -0.1566  0.7263  1.0170
 5858TIP3   OH239064   6.777   3.384  12.948 -0.2358  0.0139 -0.2799
 5858TIP3    H139065   6.695   3.400  12.994  0.9906  0.7221  1.8102
 5858TIP3    H239066   6.818   3.311  12.995  0.7585  0.3047 -0.6491
 5859TIP3   OH239067   2.031   1.379   3.566 -0.1745 -0.2724 -0.1264
 5859TIP3    H139068   2.011   1.405   3.656 -3.1838  1.3393 -1.1199
 5859TIP3    H239069   2.078   1.453   3.530 -1.1475  0.1471 -0.5498
 5860TIP3   OH239070   4.893   5.726   6.100  0.1102 -0.3403  0.0545
 5860TIP3    H139071   4.863   5.642   6.134  1.2857 -0.5752  0.5825
 5860TIP3    H239072   4.819   5.760   6.050 -0.5475 -1.4683  0.2240
 5861TIP3   OH239073   1.001   2.298  12.986 -0.0171 -0.2557  0.4684
 5861TIP3    H139074   0.906   2.300  12.998 -0.2397  0.4005 -1.1460
 5861TIP3    H239075   1.018   2.361  12.916  1.4451 -1.3604 -0.2341
 5862TIP3   OH239076   1.951   5.996   5.726  0.2179  0.2972 -0.1104
 5862TIP3    H139077   1.965   5.956   5.640 -1.3410 -0.1125 -0.2196
 5862TIP3    H239078   1.930   5.922   5.784 -3.1592  0.8309 -0.4117
 5863TIP3   OH239079   1.566   6.376  11.634  0.3827 -0.3731 -0.1374
 5863TIP3    H139080   1.638   6.388  11.696  1.1087  0.8544 -1.1712
 5863TIP3    H239081   1.527   6.463  11.626  0.0742 -0.5923 -1.1181
 5864TIP3   OH239082   6.749   6.158  14.730 -0.0338  0.6001 -0.1376
 5864TIP3    H139083   6.715   6.204  14.653  0.4457  0.6969 -0.2985
 5864TIP3    H239084   6.834   6.200  14.746 -0.1508  0.6079  0.4683
 5865TIP3   OH239085   0.631   2.310   2.449 -0.0550  0.2334 -0.1606
 5865TIP3    H139086   0.705   2.357   2.488 -0.0731  0.4749 -0.4178
 5865TIP3    H239087   0.599   2.254   2.520  0.0835  0.4710  0.0932
 5866TIP3   OH239088   0.336   4.834   6.596  0.4562 -0.2825  0.0302
 5866TIP3    H139089   0.349   4.869   6.684  0.9575 -1.2441  0.3548
 5866TIP3    H239090   0.405   4.876   6.544  0.1868  0.2536  0.0995
 5867TIP3   OH239091   4.542   5.700   0.101  0.3974 -0.5241 -0.3024
 5867TIP3    H139092   4.604   5.642   0.056 -0.4996 -2.1976  0.5127
 5867TIP3    H239093   4.518   5.652   0.180  1.6921  2.1926  1.8825
 5868TIP3   OH239094   3.970   6.421  16.592 -0.1603  0.0895  0.3581
 5868TIP3    H139095   3.893   6.378  16.629  0.5431 -0.9360  0.6598
 5868TIP3    H239096   3.996   6.367  16.518  0.2231  0.4859  0.1952
 5869TIP3   OH239097   1.929   5.347   2.088  0.5794  0.4276  0.8288
 5869TIP3    H139098   2.020   5.376   2.099  0.6193  1.5323 -1.7265
 5869TIP3    H239099   1.918   5.341   1.994 -1.6525 -0.9612  1.1291
 5870TIP3   OH239100   5.005   1.214  15.934  0.1627 -0.0069  0.6136
 5870TIP3    H139101   5.067   1.187  15.866  0.4584  0.3595  0.7377
 5870TIP3    H239102   5.059   1.240  16.008 -0.1675 -0.6290  1.0854
 5871TIP3   OH239103   3.408   5.701   5.317  0.5642  0.4607 -1.1215
 5871TIP3    H139104   3.438   5.723   5.405  0.9333  0.8376 -1.3411
 5871TIP3    H239105   3.325   5.747   5.308 -0.6218 -1.3593 -0.1501
 5872TIP3   OH239106   2.019   4.116   5.830 -0.3327 -0.1683 -0.6262
 5872TIP3    H139107   1.957   4.174   5.873  0.2095 -0.6310  0.8523
 5872TIP3    H239108   2.101   4.165   5.827 -0.3080 -0.2235 -0.9595
 5873TIP3   OH239109   0.654   0.597   6.895  0.0152 -0.5470  0.4422
 5873TIP3    H139110   0.722   0.569   6.834  1.0464  0.8428  0.8924
 5873TIP3    H239111   0.581   0.626   6.839  0.8505  0.4822 -0.1400
 5874TIP3   OH239112   1.752   0.347  11.125  0.0684 -0.1422  0.0638
 5874TIP3    H139113   1.713   0.361  11.212  1.1702  1.8041  0.3076
 5874TIP3    H239114   1.727   0.424  11.075  0.5852 -0.5969 -0.9180
 5875TIP3   OH239115   0.756   3.038   2.046 -0.4111 -0.6741  0.0955
 5875TIP3    H139116   0.787   3.057   1.958 -0.9791 -0.3726 -0.0401
 5875TIP3    H239117   0.687   2.973   2.034 -2.3054  1.2375  0.0588
 5876TIP3   OH239118   1.892   3.872  16.779 -0.4563 -0.2406  0.4718
 5876TIP3    H139119   1.806   3.832  16.765 -0.9965  0.3958  1.7557
 5876TIP3    H239120   1.873   3.957  16.818  0.7396  0.3979 -0.3013
 5877TIP3   OH239121   0.092   2.787  15.092 -0.1741  0.0676  0.1233
 5877TIP3    H139122   0.132   2.707  15.056  0.9505  1.2031 -1.2619
 5877TIP3    H239123   0.005   2.789  15.054 -0.1969 -0.4661  0.1350
 5878TIP3   OH239124   4.055   2.825  12.625  0.0905  0.0647 -0.0880
 5878TIP3    H139125   4.084   2.762  12.559  0.2335  0.6933 -0.6292
 5878TIP3    H239126   4.026   2.771  12.698 -1.6347 -0.7090 -1.2797
 5879TIP3   OH239127   4.366   3.386   2.312  0.2652 -0.3898 -0.3514
 5879TIP3    H139128   4.384   3.426   2.397  0.3637 -0.0747 -0.5190
 5879TIP3    H239129   4.429   3.427   2.253  0.2872 -0.7068 -0.5485
 5880TIP3   OH239130   4.539   0.560  15.989  0.1370  0.2058  0.1914
 5880TIP3    H139131   4.599   0.489  15.966  0.9302  0.4594  1.4098
 5880TIP3    H239132   4.464   0.516  16.029  0.6344  0.0479  0.9604
 5881TIP3   OH239133   1.157   0.103   2.760 -0.6082  0.3080  0.3197
 5881TIP3    H139134   1.147   0.008   2.763 -0.7176  0.3008 -0.3050
 5881TIP3    H239135   1.207   0.120   2.681 -2.5261  0.9285 -0.8432
 5882TIP3   OH239136   4.385   3.998  13.851  0.2460  0.5728 -0.7069
 5882TIP3    H139137   4.308   4.054  13.861 -0.5320 -0.1482 -2.3373
 5882TIP3    H239138   4.353   3.910  13.869  0.5625  0.2175 -1.8174
 5883TIP3   OH239139   6.045   6.067  17.041  0.3928 -0.0303 -0.3422
 5883TIP3    H139140   6.068   6.021  17.122 -1.0911 -0.5567 -0.1778
 5883TIP3    H239141   6.019   6.154  17.071  1.1533  0.2308 -0.4189
 5884TIP3   OH239142   2.807   6.545   3.967 -0.6703  0.0401 -0.4153
 5884TIP3    H139143   2.737   6.578   3.911  0.9148  2.5431 -1.0875
 5884TIP3    H239144   2.885   6.546   3.911  0.2214 -1.2273  0.7312
 5885TIP3   OH239145   6.513   2.501   5.589  0.0235 -0.1716 -0.0447
 5885TIP3    H139146   6.574   2.484   5.518  1.1962 -0.7222  1.0514
 5885TIP3    H239147   6.452   2.427   5.588 -0.5703  0.3091 -1.0499
 5886TIP3   OH239148   3.097   1.038  15.264 -0.4365  0.0959 -0.0121
 5886TIP3    H139149   3.033   1.099  15.301 -0.9456 -1.4655  1.8566
 5886TIP3    H239150   3.051   0.954  15.259  0.3604 -0.2781 -2.1516
 5887TIP3   OH239151   1.838   0.942  12.723  0.4377  0.0866 -0.5593
 5887TIP3    H139152   1.786   0.966  12.646  0.2548 -1.4199 -0.9442
 5887TIP3    H239153   1.872   1.025  12.756  2.3414  0.6296 -3.5346
 5888TIP3   OH239154   0.290   3.053   6.252  0.0351  0.4354  0.2258
 5888TIP3    H139155   0.251   2.966   6.242 -1.5113  1.0720  0.4494
 5888TIP3    H239156   0.315   3.078   6.163 -0.1971  0.0640  0.0526
 5889TIP3   OH239157   4.865   6.479  15.553  0.0833 -0.2058 -0.0806
 5889TIP3    H139158   4.818   6.403  15.520 -2.1197  1.6559 -1.5664
 5889TIP3    H239159   4.926   6.501  15.484  1.1059 -0.8881  0.5802
 5890TIP3   OH239160   1.627   1.762   4.410  0.0333  0.1159 -0.1817
 5890TIP3    H139161   1.642   1.852   4.381  2.0380 -0.3272 -0.6807
 5890TIP3    H239162   1.572   1.771   4.488 -0.2205  1.7257 -0.5126
 5891TIP3   OH239163   1.554   0.241   3.053 -0.2084 -0.0871  0.1450
 5891TIP3    H139164   1.478   0.233   2.994 -1.5841 -1.6834  1.9873
 5891TIP3    H239165   1.570   0.151   3.082  1.6332  0.4043  0.7615
 5892TIP3   OH239166   3.386   1.490   1.453  0.1384 -0.6558 -0.1591
 5892TIP3    H139167   3.402   1.566   1.398 -0.5911 -1.0657 -0.9578
 5892TIP3    H239168   3.344   1.525   1.531 -1.5585 -0.3676 -1.1556
 5893TIP3   OH239169   6.377   2.593   3.750 -0.0867  0.4897 -0.1053
 5893TIP3    H139170   6.302   2.589   3.691  0.4919  1.1172 -0.9071
 5893TIP3    H239171   6.428   2.515   3.729  0.4445  1.0345 -0.9119
 5894TIP3   OH239172   4.620   4.614  12.720  0.1684  0.0763 -0.2241
 5894TIP3    H139173   4.598   4.655  12.804  1.3549  0.2295  0.0269
 5894TIP3    H239174   4.708   4.579  12.733  0.0807 -0.5199 -1.1866
 5895TIP3   OH239175   6.050   1.090  13.966  0.0751 -0.4651  0.2875
 5895TIP3    H139176   6.081   1.006  13.997 -0.0841 -0.9590 -0.8430
 5895TIP3    H239177   6.121   1.151  13.986 -0.0796 -0.7168  1.7182
 5896TIP3   OH239178   6.334   3.129  11.640  0.6085 -0.0244  0.3550
 5896TIP3    H139179   6.291   3.209  11.611  2.1145  0.6857 -0.0164
 5896TIP3    H239180   6.270   3.060  11.623 -1.1417  1.1981  1.6919
 5897TIP3   OH239181   1.145   3.476  13.209  0.2667  0.2995  0.2614
 5897TIP3    H139182   1.231   3.433  13.201 -0.4150 -0.9704 -0.5682
 5897TIP3    H239183   1.086   3.407  13.239 -0.9501  0.4958 -1.5004
 5898TIP3   OH239184   2.837   6.580   2.233 -0.1982  0.3808 -0.0509
 5898TIP3    H139185   2.859   6.500   2.187  1.5771 -0.0890  1.4906
 5898TIP3    H239186   2.844   6.649   2.167  0.7260 -0.4438 -0.8393
 5899TIP3   OH239187   6.448   6.205   3.802  0.4154  0.1931 -0.0054
 5899TIP3    H139188   6.515   6.179   3.738  1.4651 -1.0253  1.5308
 5899TIP3    H239189   6.415   6.123   3.837 -0.4661  0.8388  0.7170
 5900TIP3   OH239190   2.113   6.710   3.685  0.5596  0.0099  0.3361
 5900TIP3    H139191   2.174   6.782   3.696 -0.7096  0.8944  2.3277
 5900TIP3    H239192   2.042   6.745   3.631  0.2416  0.0743  0.7861
 5901TIP3   OH239193   6.641   1.010   4.481  0.6590  0.4912 -0.1527
 5901TIP3    H139194   6.566   1.062   4.455  1.4279  1.7149 -0.0069
 5901TIP3    H239195   6.624   0.986   4.572 -0.4983 -1.0067 -0.7310
 5902TIP3   OH239196   1.725   4.597   2.464  0.2974 -0.6092 -0.3066
 5902TIP3    H139197   1.687   4.565   2.547 -0.2596 -0.2621 -0.4188
 5902TIP3    H239198   1.808   4.551   2.456  0.6185 -0.2348  0.7332
 5903TIP3   OH239199   6.524   2.144   5.811 -0.1306 -0.2784  0.0953
 5903TIP3    H139200   6.478   2.155   5.894 -1.2264 -2.5016 -0.1431
 5903TIP3    H239201   6.569   2.227   5.797 -1.9015  1.0283  1.6871
 5904TIP3   OH239202   4.820   6.523  14.192  0.3538  0.4456  0.9706
 5904TIP3    H139203   4.846   6.441  14.235 -0.1940 -0.0691  0.3338
 5904TIP3    H239204   4.731   6.538  14.222  0.4809  0.8542  1.1463
 5905TIP3   OH239205   6.101   6.045   5.013  0.4032 -0.0915  0.2154
 5905TIP3    H139206   6.141   5.970   5.057 -2.6242 -2.1985 -0.2836
 5905TIP3    H239207   6.064   6.008   4.932 -2.4370  1.5675  0.6303
 5906TIP3   OH239208   1.687   1.429  12.382 -0.3041 -0.1735 -0.4993
 5906TIP3    H139209   1.626   1.438  12.309 -0.9769 -2.4617 -0.2905
 5906TIP3    H239210   1.648   1.361  12.438  1.0696  0.2580  1.0807
 5907TIP3   OH239211   3.696   5.099   3.254 -0.6734  0.3456 -0.0331
 5907TIP3    H139212   3.786   5.107   3.224 -0.7147 -0.7896 -0.4864
 5907TIP3    H239213   3.648   5.063   3.179 -1.1278 -0.8250  0.7829
 5908TIP3   OH239214   5.731   1.443  14.440  0.5462 -0.3078  0.5628
 5908TIP3    H139215   5.713   1.424  14.348 -0.5231  0.5228  0.5805
 5908TIP3    H239216   5.813   1.493  14.438  1.5533 -1.8994  0.2487
 5909TIP3   OH239217   5.190   0.775  13.860 -0.0988  0.6080  0.2487
 5909TIP3    H139218   5.276   0.758  13.898 -0.0859  1.0029  0.4097
 5909TIP3    H239219   5.154   0.845  13.915 -0.6066  0.3017  0.3109
 5910TIP3   OH239220   0.913   2.456   3.819  0.6130 -0.0867  0.3735
 5910TIP3    H139221   0.897   2.362   3.812  0.4262  0.0513 -1.7153
 5910TIP3    H239222   0.831   2.492   3.851  0.9732 -0.6971  2.0765
 5911TIP3   OH239223   3.040   3.350  14.299 -0.1662  0.0424 -0.2249
 5911TIP3    H139224   3.083   3.414  14.356  0.8362  0.8799 -1.8407
 5911TIP3    H239225   3.049   3.387  14.211 -1.1505 -1.4854 -1.0044
 5912TIP3   OH239226   3.594   6.758  11.550  0.1661  0.4499  0.1382
 5912TIP3    H139227   3.581   6.789  11.639 -0.6462  2.1491 -0.5265
 5912TIP3    H239228   3.673   6.703  11.555 -0.3072 -0.1239  2.0088
 5913TIP3   OH239229   1.477   2.005  14.403 -0.2035 -0.2063 -0.2724
 5913TIP3    H139230   1.519   2.090  14.417 -0.4866 -0.0999 -0.0465
 5913TIP3    H239231   1.517   1.948  14.468 -0.3643 -0.1175 -0.0918
 5914TIP3   OH239232   1.593   2.539  13.336 -0.3707  0.0479  0.0660
 5914TIP3    H139233   1.599   2.466  13.274 -0.2611 -2.5623  2.8770
 5914TIP3    H239234   1.675   2.537  13.385 -1.9722 -0.8218  2.9972
 5915TIP3   OH239235   1.755   2.297  15.138 -0.5961 -0.4460  0.0377
 5915TIP3    H139236   1.764   2.205  15.115 -0.5665 -0.4337  0.0006
 5915TIP3    H239237   1.664   2.306  15.169 -0.5735 -0.5051  0.1217
 5916TIP3   OH239238   4.986   3.346  16.475 -0.2172  0.4812 -0.2723
 5916TIP3    H139239   4.988   3.390  16.389  0.5059  0.3086 -0.3491
 5916TIP3    H239240   4.896   3.316  16.484 -0.6386  1.6468 -0.3909
 5917TIP3   OH239241   0.875   5.482  16.475  0.5212  0.0427 -0.1877
 5917TIP3    H139242   0.875   5.409  16.413  0.3305 -2.0618  2.1515
 5917TIP3    H239243   0.783   5.491  16.502  0.8596 -0.4041  1.2099
 5918TIP3   OH239244   3.688   5.248   4.711 -0.3596  0.1994 -0.1649
 5918TIP3    H139245   3.775   5.211   4.694 -0.4908 -0.9333  1.3779
 5918TIP3    H239246   3.692   5.337   4.676  1.1253 -0.1298 -0.9026
 5919TIP3   OH239247   6.289   3.197   4.129  0.6766 -0.2591  0.2318
 5919TIP3    H139248   6.303   3.186   4.035 -0.4283 -1.7583  0.1941
 5919TIP3    H239249   6.362   3.151   4.171  0.4936 -0.6999  0.0785
 5920TIP3   OH239250   1.551   3.882   2.802  0.2014 -0.3319 -0.0168
 5920TIP3    H139251   1.511   3.819   2.743 -1.2921  0.0832  0.5005
 5920TIP3    H239252   1.572   3.831   2.880  1.0813 -0.6356 -0.4424
 5921TIP3   OH239253   3.495   0.104   3.243  0.5943 -0.1957 -0.8469
 5921TIP3    H139254   3.505   0.167   3.315 -1.5898 -1.3484  0.5868
 5921TIP3    H239255   3.537   0.024   3.276 -0.3250 -0.6983 -0.8640
 5922TIP3   OH239256   3.394   4.087  13.859 -0.1382  0.4404 -0.3600
 5922TIP3    H139257   3.301   4.086  13.879 -0.4936 -2.1233 -1.6156
 5922TIP3    H239258   3.399   4.120  13.770  0.2139  0.9935 -0.1386
 5923TIP3   OH239259   4.214   5.351   3.057 -0.2270  0.0740 -0.2070
 5923TIP3    H139260   4.208   5.315   2.969  1.3793 -1.3916  0.2198
 5923TIP3    H239261   4.206   5.446   3.046 -1.7546 -0.1798 -1.6962
 5924TIP3   OH239262   1.502   6.668   5.245 -0.9715 -0.3768 -0.2156
 5924TIP3    H139263   1.407   6.678   5.244 -1.0758 -1.3173 -1.0790
 5924TIP3    H239264   1.519   6.597   5.183  0.2387 -0.6636  0.4167
 5925TIP3   OH239265   0.033   4.826  11.890  0.3656  0.4313  1.1315
 5925TIP3    H139266  -0.016   4.748  11.918 -1.2739  0.8603 -0.4119
 5925TIP3    H239267  -0.028   4.899  11.902  0.3229  0.9063 -1.3975
 5926TIP3   OH239268   0.027   3.765  17.137  0.1615 -0.1130 -0.5699
 5926TIP3    H139269  -0.064   3.748  17.114 -0.2870 -0.4377  1.2436
 5926TIP3    H239270   0.030   3.751  17.232  1.1089  3.9667  0.2028
 5927TIP3   OH239271   4.627   4.629  15.411  0.0350 -0.0452  0.8072
 5927TIP3    H139272   4.715   4.634  15.449  1.1040  1.7984 -1.6194
 5927TIP3    H239273   4.605   4.719  15.387 -1.0016 -0.8621 -1.7140
 5928TIP3   OH239274   2.824   1.492   1.533  0.4434  0.5825  0.2851
 5928TIP3    H139275   2.818   1.452   1.620 -0.8318 -1.1121 -0.5318
 5928TIP3    H239276   2.798   1.583   1.546 -0.1490  0.2399  1.5977
 5929TIP3   OH239277   2.374   0.489   1.154 -0.1211 -0.4456 -0.3972
 5929TIP3    H139278   2.389   0.512   1.062  2.5445  2.9265  0.6342
 5929TIP3    H239279   2.417   0.404   1.165  1.4918  0.1015 -1.8866
 5930TIP3   OH239280   1.807   1.804   0.041 -0.5171 -0.4898 -0.4465
 5930TIP3    H139281   1.895   1.830   0.015 -1.0036  1.4542 -0.3576
 5930TIP3    H239282   1.818   1.720   0.085  1.4833  0.3373  0.7753
 5931TIP3   OH239283   4.929   3.774   1.421  0.3494  0.8753 -0.2650
 5931TIP3    H139284   4.862   3.709   1.401  0.6653  0.6075 -0.4684
 5931TIP3    H239285   4.980   3.735   1.492 -0.6084  1.7090  0.9162
 5932TIP3   OH239286   5.098   4.615  16.568 -0.1213  0.0672  0.1787
 5932TIP3    H139287   5.163   4.593  16.501 -1.4796  0.6056 -1.3839
 5932TIP3    H239288   5.057   4.531  16.589  0.1471 -0.0700  0.1669
 5933TIP3   OH239289   0.445   3.418  15.423 -0.3745 -0.2469  0.0820
 5933TIP3    H139290   0.371   3.370  15.387 -1.0732 -0.9506  2.2833
 5933TIP3    H239291   0.439   3.404  15.518  2.2954  0.0882  0.3859
 5934TIP3   OH239292   5.968   0.333   0.080  0.1020 -0.5116  0.5907
 5934TIP3    H139293   5.896   0.280   0.046  0.6748  0.0395 -1.6660
 5934TIP3    H239294   6.009   0.370   0.002  1.3574  1.1153  1.9481
 5935TIP3   OH239295   1.481   2.477   0.766  0.6325  0.7673 -0.4882
 5935TIP3    H139296   1.410   2.424   0.728 -0.8153  2.8446 -0.8658
 5935TIP3    H239297   1.557   2.459   0.711  0.4409 -1.4937 -0.1016
 5936TIP3   OH239298   6.030   1.953  13.231  0.5221 -0.3783 -0.6424
 5936TIP3    H139299   5.993   1.922  13.149  0.1472  1.0512 -1.0406
 5936TIP3    H239300   6.124   1.950  13.218  0.4589  0.3881 -1.3510
 5937TIP3   OH239301   3.760   2.342   0.258 -0.3250 -0.0539  0.4895
 5937TIP3    H139302   3.759   2.340   0.162 -2.4169 -3.3146  0.4015
 5937TIP3    H239303   3.714   2.422   0.281 -1.5229 -0.1586 -1.3157
 5938TIP3   OH239304   4.020   0.964  16.942 -0.1690  0.4430 -0.5297
 5938TIP3    H139305   4.006   1.047  16.988  0.4348 -0.2116  0.8871
 5938TIP3    H239306   3.941   0.952  16.889 -0.3246  1.8411 -0.6554
 5939TIP3   OH239307   5.891   5.671   0.130  0.2707 -0.4703 -0.2937
 5939TIP3    H139308   5.919   5.695   0.042  0.0887 -0.2173 -0.2832
 5939TIP3    H239309   5.797   5.688   0.132  0.6518  2.0355  0.7231
 5940TIP3   OH239310   4.096   5.495  14.149  0.1910 -0.3474  0.1359
 5940TIP3    H139311   4.130   5.423  14.202 -3.3564 -2.4162 -0.0232
 5940TIP3    H239312   4.040   5.545  14.209  1.2075  1.2643 -0.1978
 5941TIP3   OH239313   6.543   5.690  15.296 -0.2314  0.0510 -0.2569
 5941TIP3    H139314   6.503   5.620  15.244  1.4152 -0.3709 -1.0169
 5941TIP3    H239315   6.596   5.739  15.234  0.0331  0.9004  0.6117
 5942TIP3   OH239316   4.823   2.492  12.862  0.1495 -0.5479  0.6152
 5942TIP3    H139317   4.839   2.509  12.769 -0.6014 -0.1466  0.5517
 5942TIP3    H239318   4.896   2.437  12.889  2.2338  2.0395  0.6349
 5943TIP3   OH239319   5.230   3.690   0.745  0.1580  0.1668 -0.3931
 5943TIP3    H139320   5.289   3.617   0.728 -0.1546 -0.0773 -0.4328
 5943TIP3    H239321   5.145   3.649   0.762 -0.4931  0.5896 -2.3613
 5944TIP3   OH239322   1.232   2.984  14.756 -0.5344 -0.0988 -0.4258
 5944TIP3    H139323   1.277   2.957  14.676 -0.8462 -0.6358 -0.4206
 5944TIP3    H239324   1.197   3.071  14.735  2.5257  1.4706  0.3536
 5945TIP3   OH239325   1.516   3.683   5.011 -0.0054  0.3538  0.0374
 5945TIP3    H139326   1.493   3.595   5.042  0.7292 -0.3389 -1.3493
 5945TIP3    H239327   1.538   3.731   5.091 -1.5435 -0.3608  0.9313
 5946TIP3   OH239328   0.702   0.219   1.204  0.0573  0.0980 -0.2906
 5946TIP3    H139329   0.623   0.209   1.257  0.3655  0.1691  0.1945
 5946TIP3    H239330   0.674   0.270   1.128 -0.4653 -0.2964 -0.3682
 5947TIP3   OH239331   5.623   1.305   0.993  0.6928 -0.1830  0.1132
 5947TIP3    H139332   5.563   1.258   1.052  0.9982 -0.2681  0.3617
 5947TIP3    H239333   5.613   1.260   0.909  1.8184 -1.4530  0.6166
 5948TIP3   OH239334   5.094   5.703   1.744  0.8640 -0.2267 -0.4342
 5948TIP3    H139335   5.058   5.615   1.729  1.0317 -0.1114 -1.6620
 5948TIP3    H239336   5.087   5.716   1.838 -2.7589 -0.0235 -0.6191
 5949TIP3   OH239337   6.656   5.013  14.790  0.4134  0.1761 -0.7577
 5949TIP3    H139338   6.562   5.015  14.773  0.0690 -0.6528  0.8212
 5949TIP3    H239339   6.671   5.090  14.846  0.7856  0.6275 -1.4692
 5950TIP3   OH239340   0.003   1.148   0.982  0.6013  0.1730 -0.1097
 5950TIP3    H139341  -0.045   1.216   0.935  0.1080  0.1161  0.2966
 5950TIP3    H239342  -0.056   1.073   0.983  0.1619  0.4871  1.4475
 5951TIP3   OH239343   1.260   4.661   5.551  0.3160 -0.8506  0.2445
 5951TIP3    H139344   1.344   4.691   5.587 -0.4173  0.1689  1.1647
 5951TIP3    H239345   1.207   4.640   5.628  0.5801 -4.1370 -0.3109
 5952TIP3   OH239346   3.413   3.449  11.300  0.6130  0.2120  0.4711
 5952TIP3    H139347   3.477   3.489  11.359 -0.5692 -0.9655  2.6604
 5952TIP3    H239348   3.328   3.480  11.332 -0.0588 -0.1849 -0.8610
 5953TIP3   OH239349   3.430   6.095   5.547  0.2249  0.3187 -0.8901
 5953TIP3    H139350   3.350   6.043   5.556 -0.3804  1.4348  0.6986
 5953TIP3    H239351   3.425   6.132   5.459 -2.3531  2.3736 -0.0313
 5954TIP3   OH239352   3.021   3.230  13.836 -0.0881 -0.3633 -0.1970
 5954TIP3    H139353   2.939   3.280  13.835  0.2076  0.2036  1.3479
 5954TIP3    H239354   3.079   3.280  13.893  0.5100 -2.0187  0.7162
 5955TIP3   OH239355   3.211   5.059   3.461 -0.4439 -1.0680  0.0830
 5955TIP3    H139356   3.182   5.086   3.374  0.2804 -2.8970 -0.7867
 5955TIP3    H239357   3.134   5.019   3.501 -0.6336 -0.7081  0.0834
 5956TIP3   OH239358   4.061   1.154   1.129  0.4774 -0.3882 -0.2935
 5956TIP3    H139359   4.136   1.212   1.116  1.5455 -1.2483  1.6023
 5956TIP3    H239360   3.985   1.213   1.128  1.3568  0.7850 -0.2704
 5957TIP3   OH239361   4.783   0.291   0.461  0.2324 -0.2416 -0.3475
 5957TIP3    H139362   4.695   0.316   0.433  0.8579  1.4178 -0.9164
 5957TIP3    H239363   4.779   0.292   0.557 -0.6288 -1.2383 -0.3510
 5958TIP3   OH239364   5.998   0.227  13.712  0.7598 -0.6591 -0.2030
 5958TIP3    H139365   5.969   0.299  13.767 -0.2405 -0.4919 -0.9223
 5958TIP3    H239366   6.009   0.266  13.625 -0.7778 -1.5465 -0.8390
 5959TIP3   OH239367   4.313   4.773   3.305  0.6581  0.6880  0.0227
 5959TIP3    H139368   4.323   4.866   3.326 -0.3162  0.6000  0.9638
 5959TIP3    H239369   4.301   4.731   3.390  0.2021 -0.1805 -0.4624
 5960TIP3   OH239370   2.625   0.197  13.230  0.2712 -0.2064  0.0208
 5960TIP3    H139371   2.549   0.229  13.279  0.4584 -0.6879  0.6311
 5960TIP3    H239372   2.604   0.106  13.209  0.4272 -0.1635 -0.3404
 5961TIP3   OH239373   4.998   4.986  14.451  0.4788 -0.0025 -0.5947
 5961TIP3    H139374   5.055   5.013  14.522  1.5578  2.9863 -2.3938
 5961TIP3    H239375   5.038   4.905  14.418  1.6791  0.1734  0.3457
 5962TIP3   OH239376   4.189   0.831  16.183  0.2574  0.0533  0.2933
 5962TIP3    H139377   4.208   0.797  16.095 -0.6488  1.1929 -0.3727
 5962TIP3    H239378   4.098   0.859  16.179 -0.0731 -0.6899  1.8884
 5963TIP3   OH239379   3.289   3.286  13.736 -0.3769 -0.2497  0.2436
 5963TIP3    H139380   3.194   3.280  13.737 -0.5413  1.3094 -1.4056
 5963TIP3    H239381   3.313   3.286  13.644  0.9882  1.7560  0.5106
 5964TIP3   OH239382   2.813   1.745  12.189  1.2709 -0.5829 -0.1316
 5964TIP3    H139383   2.761   1.796  12.251  2.0389 -1.2421  1.0875
 5964TIP3    H239384   2.809   1.796  12.108 -1.0001 -0.4630  0.0026
 5965TIP3   OH239385   1.118   5.508  15.740 -0.0779 -0.2056 -0.1011
 5965TIP3    H139386   1.075   5.495  15.825 -0.7234  1.8479 -0.0622
 5965TIP3    H239387   1.075   5.446  15.682 -2.1128  0.7583  0.2908
 5966TIP3   OH239388   3.592   2.554   0.906  0.1545  0.3178 -0.8231
 5966TIP3    H139389   3.507   2.584   0.939  0.7311 -0.8363  1.9694
 5966TIP3    H239390   3.586   2.459   0.907  2.2248  0.0988  1.8703
 5967TIP3   OH239391   1.680   5.378  13.621 -0.3995 -0.3371  0.5224
 5967TIP3    H139392   1.763   5.397  13.579 -0.3745  1.1771  1.1667
 5967TIP3    H239393   1.677   5.439  13.696 -1.8105 -0.7709  0.8482
 5968TIP3   OH239394   1.229   3.544   2.908 -0.2638  0.3994  0.7254
 5968TIP3    H139395   1.220   3.628   2.955 -2.6151 -0.6683  2.3566
 5968TIP3    H239396   1.144   3.502   2.918  0.5664 -1.8097 -0.8732
 5969TIP3   OH239397   3.948   5.880  16.858  0.0532 -0.0171  0.7301
 5969TIP3    H139398   3.901   5.872  16.775  0.7931  1.6103  0.1246
 5969TIP3    H239399   3.927   5.967  16.890  1.9234  0.4029  0.8969
 5970TIP3   OH239400   4.747   4.963   2.149 -0.3136 -0.0385  0.3525
 5970TIP3    H139401   4.842   4.962   2.133 -0.0039  0.5725  1.9913
 5970TIP3    H239402   4.708   4.956   2.062  1.2356  2.2581 -0.6262
 5971TIP3   OH239403   1.588   3.264  14.544  0.1989 -0.0575  0.4801
 5971TIP3    H139404   1.670   3.217  14.527 -0.6796 -1.7554  0.7655
 5971TIP3    H239405   1.591   3.285  14.637  0.5152  0.3196  0.3885
 5972TIP3   OH239406   5.318   6.104   1.833 -0.1813 -0.1107  0.4972
 5972TIP3    H139407   5.341   6.033   1.773 -0.2140  0.8599 -0.6961
 5972TIP3    H239408   5.368   6.179   1.802  1.4909 -0.0737  2.9901
 5973TIP3   OH239409   3.146   5.374   0.652 -0.0114 -0.2986  0.0430
 5973TIP3    H139410   3.123   5.434   0.580 -1.4069 -0.8745 -0.0173
 5973TIP3    H239411   3.062   5.341   0.683  0.6143 -0.5216  1.5636
 5974TIP3   OH239412   5.103   2.204   5.301  0.4047 -0.3668 -0.1181
 5974TIP3    H139413   5.174   2.169   5.354  1.8504  0.3963 -1.4554
 5974TIP3    H239414   5.104   2.298   5.319  0.0476 -0.2842 -0.5076
 5975TIP3   OH239415   5.964   6.676   3.191  0.0440  0.0559 -0.3942
 5975TIP3    H139416   6.049   6.632   3.193  1.5122  2.6352 -1.1613
 5975TIP3    H239417   5.924   6.650   3.108  1.4377  1.0440 -1.4197
 5976TIP3   OH239418   0.743   1.363   3.404 -0.1773 -0.5113  0.0949
 5976TIP3    H139419   0.790   1.289   3.364 -0.5965 -0.2717 -0.8703
 5976TIP3    H239420   0.652   1.350   3.380 -0.6176 -0.9003  1.8566
 5977TIP3   OH239421   5.262   1.354  15.320 -0.5451  0.0214 -0.0074
 5977TIP3    H139422   5.281   1.261  15.309  1.0510  0.1675  1.0377
 5977TIP3    H239423   5.307   1.397  15.247  1.4463  0.1792  1.2302
 5978TIP3   OH239424   6.768   0.869   3.710  0.8899  0.7586  0.0305
 5978TIP3    H139425   6.795   0.791   3.661 -3.0665 -1.1727  0.5424
 5978TIP3    H239426   6.767   0.939   3.644  3.0913  0.1169 -0.7784
 5979TIP3   OH239427   5.912   6.805  15.778 -0.1531  0.0182  1.1028
 5979TIP3    H139428   5.912   6.847  15.864  0.2625  0.7620  0.7488
 5979TIP3    H239429   5.835   6.747  15.780 -2.0113  2.3272  0.8574
 5980TIP3   OH239430   6.417   0.618   4.633  0.1706  0.4227  0.1828
 5980TIP3    H139431   6.500   0.647   4.671  0.1028  0.6618  0.1477
 5980TIP3    H239432   6.424   0.642   4.541  1.3294 -2.2314 -0.5447
 5981TIP3   OH239433   0.096   3.696  16.217 -0.2088  0.3690  0.1638
 5981TIP3    H139434   0.066   3.769  16.163 -0.4411  0.6268  0.6418
 5981TIP3    H239435   0.158   3.735  16.278  3.1563 -0.4962 -2.3657
 5982TIP3   OH239436   3.998   3.422  14.889  0.5979 -0.3970  0.1513
 5982TIP3    H139437   4.007   3.505  14.842  1.3604  0.1323  1.1645
 5982TIP3    H239438   3.932   3.440  14.956 -0.3270 -1.0759 -0.5574
 5983TIP3   OH239439   3.928   2.007  12.998  0.4236  0.3417 -0.5764
 5983TIP3    H139440   3.984   1.945  12.953 -0.1923  0.0891 -1.0103
 5983TIP3    H239441   3.957   2.093  12.967  0.6133  0.2182 -0.7453
 5984TIP3   OH239442   1.560   3.035  12.045 -0.5869  0.0980 -0.1476
 5984TIP3    H139443   1.576   2.973  11.974 -1.8571  0.4789 -0.8012
 5984TIP3    H239444   1.466   3.030  12.060 -0.1921 -1.0113  2.5036
 5985TIP3   OH239445   1.078   6.333  17.117 -0.1843 -0.0492  0.0232
 5985TIP3    H139446   1.128   6.415  17.112 -0.7698  0.2982 -0.4569
 5985TIP3    H239447   1.118   6.277  17.051  0.5406 -0.3412  0.7006
 5986TIP3   OH239448   1.963   2.706  15.517  0.3357 -0.3021  0.1240
 5986TIP3    H139449   1.868   2.695  15.514  0.2485  0.5071 -0.3374
 5986TIP3    H239450   1.980   2.740  15.605  0.5158 -3.0074  1.2365
 5987TIP3   OH239451   2.738   5.617  15.388 -0.0508  0.1033 -0.4064
 5987TIP3    H139452   2.834   5.613  15.384  0.0687 -0.8089  1.8479
 5987TIP3    H239453   2.720   5.702  15.430 -0.0596 -0.6893  1.2996
 5988TIP3   OH239454   1.055   0.889  11.796  0.0371 -0.0420 -0.0956
 5988TIP3    H139455   1.010   0.950  11.738 -0.3006 -1.0664 -0.9386
 5988TIP3    H239456   0.992   0.871  11.866 -0.1240  0.0129 -0.2288
 5989TIP3   OH239457   6.752   0.722   1.191  0.2377 -0.1594 -0.2905
 5989TIP3    H139458   6.759   0.673   1.272 -1.5342  0.8271  0.5103
 5989TIP3    H239459   6.792   0.807   1.211 -1.0770  0.4404 -0.0956
 5990TIP3   OH239460   0.400   6.136  16.035  0.0307  0.0715 -0.7392
 5990TIP3    H139461   0.354   6.055  16.057  0.5780 -0.0835 -0.1431
 5990TIP3    H239462   0.330   6.202  16.029 -0.4727 -0.5225 -1.7044
 5991TIP3   OH239463   5.436   5.676   4.391 -0.1485  0.3807 -0.3692
 5991TIP3    H139464   5.375   5.611   4.356 -0.9586  1.1804 -0.4541
 5991TIP3    H239465   5.484   5.629   4.460 -0.2499 -0.4963 -0.8853
 5992TIP3   OH239466   1.381   6.743   2.799  0.3583 -0.3634  0.3745
 5992TIP3    H139467   1.289   6.718   2.793 -0.3935  2.4063 -1.4308
 5992TIP3    H239468   1.408   6.759   2.708  3.2448 -2.8289  0.6345
 5993TIP3   OH239469   1.542   3.974  15.545  0.2535 -0.4025 -0.6199
 5993TIP3    H139470   1.604   3.973  15.618 -0.6367 -1.7572  0.1691
 5993TIP3    H239471   1.515   3.883  15.536 -1.0656  0.0445 -1.4092
 5994TIP3   OH239472   4.425   4.115  12.102 -0.7683 -0.0055 -0.7983
 5994TIP3    H139473   4.469   4.159  12.174 -0.6800 -0.6167 -0.4763
 5994TIP3    H239474   4.496   4.091  12.042 -0.4641 -2.1639  0.3401
 5995TIP3   OH239475   2.083   6.813  11.905  0.3829 -0.5682  0.1646
 5995TIP3    H139476   2.166   6.765  11.899  1.2137  0.9596 -1.2589
 5995TIP3    H239477   2.020   6.758  11.858  0.8188 -1.2621  0.3793
 5996TIP3   OH239478   6.486   3.062   4.262 -0.0172 -0.0715  0.3040
 5996TIP3    H139479   6.563   3.118   4.276 -0.1026  0.5355 -1.3735
 5996TIP3    H239480   6.452   3.047   4.349  0.5415  1.7767  0.9034
 5997TIP3   OH239481   5.722   5.861  12.220  0.3076  0.1281 -0.2187
 5997TIP3    H139482   5.689   5.772  12.208 -0.4079 -0.1722  3.1216
 5997TIP3    H239483   5.814   5.850  12.242  0.4123  0.3084 -0.5506
 5998TIP3   OH239484   1.734   5.406   4.154 -0.2435 -0.0678  0.2105
 5998TIP3    H139485   1.675   5.461   4.206  1.0483 -0.5645  2.3639
 5998TIP3    H239486   1.748   5.455   4.073 -1.0295  1.6059  1.0314
 5999TIP3   OH239487   1.535   4.443   0.231 -0.1661  0.0513  0.0818
 5999TIP3    H139488   1.609   4.410   0.283  0.5843 -1.7948 -1.9994
 5999TIP3    H239489   1.458   4.405   0.272  0.1488  0.6304  1.2681
 6000TIP3   OH239490   3.839   0.104   1.783  0.0151  0.2771  0.0678
 6000TIP3    H139491   3.778   0.176   1.768  0.3594  0.5084 -0.2446
 6000TIP3    H239492   3.923   0.147   1.802 -0.3655  0.0185  2.6496
 6001TIP3   OH239493   1.538   1.194  15.413 -0.2729  0.3081  0.5350
 6001TIP3    H139494   1.446   1.174  15.393 -1.1745  1.7068  2.9436
 6001TIP3    H239495   1.565   1.253  15.343 -0.9946 -0.5680 -0.5299
 6002TIP3   OH239496   5.019   1.901  12.075  0.1008  0.8025 -0.5171
 6002TIP3    H139497   5.036   1.860  12.159  0.1827  0.9589 -0.4573
 6002TIP3    H239498   5.092   1.962  12.062  1.3958 -0.9065 -1.7896
 6003TIP3   OH239499   1.067   6.820  12.039  0.0962  0.3510 -0.5959
 6003TIP3    H139500   1.013   6.829  12.117  0.7278  0.7555 -0.2005
 6003TIP3    H239501   1.067   6.907  12.000  0.4208  0.3374 -0.6255
 6004TIP3   OH239502   4.053   5.644   5.822  0.4285  0.5852 -0.3206
 6004TIP3    H139503   3.982   5.699   5.789 -0.3973  0.1989  0.7278
 6004TIP3    H239504   4.105   5.622   5.745 -4.0558 -4.3746 -2.5845
 6005TIP3   OH239505   5.292   2.992  12.320  0.3155  1.0121  0.5394
 6005TIP3    H139506   5.336   3.074  12.341  2.0510 -0.0531  1.3168
 6005TIP3    H239507   5.363   2.932  12.297 -1.0092  0.1655 -1.6929
 6006TIP3   OH239508   0.440   2.669  14.452 -0.2032  0.4598  0.4228
 6006TIP3    H139509   0.445   2.681  14.357 -1.0397 -1.7946  0.0286
 6006TIP3    H239510   0.529   2.684  14.483  0.3754 -0.0737 -0.9080
 6007TIP3   OH239511   3.615   3.058  15.133 -0.1713 -0.3802  0.0024
 6007TIP3    H139512   3.628   3.117  15.059 -0.1320 -1.6506 -1.0384
 6007TIP3    H239513   3.697   3.062  15.182 -0.3893  0.8786  0.2977
 6008TIP3   OH239514   6.534   0.790   3.832  0.2646  0.5645  0.4986
 6008TIP3    H139515   6.454   0.822   3.790  0.8403  0.2466 -0.8904
 6008TIP3    H239516   6.604   0.816   3.772  0.8971 -2.1007 -0.0188
 6009TIP3   OH239517   5.633   6.397   5.995  1.2756  0.4264  0.0216
 6009TIP3    H139518   5.700   6.373   5.931  0.8882  1.0680 -0.6385
 6009TIP3    H239519   5.649   6.339   6.069  1.3310 -0.7661 -0.9037
 6010TIP3   OH239520   2.772   0.173   1.699  0.0064 -0.4710 -0.1232
 6010TIP3    H139521   2.690   0.124   1.699  0.1251 -0.8603  2.6403
 6010TIP3    H239522   2.747   0.263   1.679 -1.1646 -0.5506  0.8475
 6011TIP3   OH239523   1.284   1.403  16.861 -0.6954 -0.4031  0.6282
 6011TIP3    H139524   1.214   1.419  16.798 -0.7172 -0.4008  0.6527
 6011TIP3    H239525   1.253   1.329  16.913 -0.6116 -0.4987  0.5397
 6012TIP3   OH239526   0.335   4.536   4.395  0.0076  0.3695  0.0837
 6012TIP3    H139527   0.335   4.550   4.300  1.3237  0.1836  0.0306
 6012TIP3    H239528   0.428   4.533   4.418 -0.2983  0.5196  1.3993
 6013TIP3   OH239529   1.796   5.843  12.195  0.5115 -0.0056  0.5305
 6013TIP3    H139530   1.866   5.830  12.259  2.0994  1.0457 -0.9246
 6013TIP3    H239531   1.798   5.936  12.174  0.8824 -0.4915 -1.9321
 6014TIP3   OH239532   5.763   1.414   3.912  0.5492 -0.6304 -0.5948
 6014TIP3    H139533   5.823   1.486   3.935 -0.3152 -0.4285  1.2017
 6014TIP3    H239534   5.766   1.355   3.987 -0.6547 -1.1950 -0.9611
 6015TIP3   OH239535   4.253   3.037   2.998 -0.5730 -0.1786 -0.0355
 6015TIP3    H139536   4.248   2.955   3.048 -1.6421 -0.3009 -0.3176
 6015TIP3    H239537   4.260   3.008   2.907 -0.6182  0.0393 -0.1072
 6016TIP3   OH239538   5.231   1.456   2.953  0.2150  0.0714 -0.8737
 6016TIP3    H139539   5.236   1.415   3.040  0.4894 -1.0393 -1.3873
 6016TIP3    H239540   5.233   1.382   2.892 -0.4898  0.8048 -1.8185
 6017TIP3   OH239541   0.825   1.494   0.248  0.4948 -0.1338  0.2700
 6017TIP3    H139542   0.743   1.540   0.229  1.0164  0.8181  0.2618
 6017TIP3    H239543   0.841   1.511   0.341  1.1921  0.5486  0.0398
 6018TIP3   OH239544   6.512   5.439  16.370 -0.8793 -0.1945 -0.2879
 6018TIP3    H139545   6.477   5.419  16.457  0.6867 -0.3971  0.3360
 6018TIP3    H239546   6.548   5.355  16.340  0.4367  0.3120 -0.2093
 6019TIP3   OH239547   0.941   1.029   0.814  0.3969  0.1223 -0.4248
 6019TIP3    H139548   0.976   1.002   0.729 -0.4254 -1.3990 -0.3332
 6019TIP3    H239549   0.848   1.045   0.797  0.4007  0.6380  0.0256
 6020TIP3   OH239550   2.331   6.588  13.942  0.5023  0.6461  0.2417
 6020TIP3    H139551   2.295   6.600  13.854  1.8984  0.3567 -0.4067
 6020TIP3    H239552   2.261   6.544  13.991  0.5245 -1.4607 -1.4431
 6021TIP3   OH239553   1.536   2.527   1.126  0.7412 -0.2367 -0.1070
 6021TIP3    H139554   1.617   2.482   1.102 -0.0371 -2.0006  0.3689
 6021TIP3    H239555   1.560   2.584   1.199  1.6074 -0.5391 -0.1510
 6022TIP3   OH239556   0.356   4.635   3.539  0.0037 -0.1649  0.2629
 6022TIP3    H139557   0.297   4.603   3.608  0.6968 -1.3849  0.3191
 6022TIP3    H239558   0.441   4.645   3.583  0.6574 -1.7498 -0.5589
 6023TIP3   OH239559   3.286   6.075  14.168 -0.0568 -0.0777 -0.4432
 6023TIP3    H139560   3.201   6.077  14.210  0.6204 -0.0167  0.9724
 6023TIP3    H239561   3.341   6.023  14.226  1.3223  1.3247 -0.4256
 6024TIP3   OH239562   3.910   4.442   3.388 -0.4702  0.4938 -0.1698
 6024TIP3    H139563   4.003   4.455   3.411 -0.8949  1.0249  1.3884
 6024TIP3    H239564   3.879   4.529   3.364 -0.5155  0.2748 -0.9127
 6025TIP3   OH239565   0.511   1.001   3.186 -0.5389  0.5306  0.3128
 6025TIP3    H139566   0.434   0.956   3.150 -1.3640  1.7582  0.4819
 6025TIP3    H239567   0.557   0.933   3.235 -0.6938 -0.5957 -1.0173
 6026TIP3   OH239568   5.961   5.134   5.398 -0.5283  0.0259 -0.1139
 6026TIP3    H139569   5.962   5.216   5.447 -1.4743 -0.2247  0.3415
 6026TIP3    H239570   5.887   5.143   5.338 -0.3536 -0.3103 -0.3827
 6027TIP3   OH239571   5.758   2.180  16.467 -0.4972 -0.1740  0.2639
 6027TIP3    H139572   5.829   2.175  16.403  0.9034  1.3961  1.5951
 6027TIP3    H239573   5.678   2.161  16.416  0.8500 -2.5578 -1.1698
 6028TIP3   OH239574   5.457   1.901  12.466  0.0954 -0.1831 -0.0946
 6028TIP3    H139575   5.391   1.958  12.506  1.6172  0.5279  1.5169
 6028TIP3    H239576   5.474   1.942  12.381 -0.8415  0.1525 -0.1363
 6029TIP3   OH239577   4.580   2.773  11.734 -0.0592 -0.6233  0.0128
 6029TIP3    H139578   4.672   2.763  11.711 -0.0253  1.7723 -1.1630
 6029TIP3    H239579   4.534   2.716  11.672  0.5808 -1.4662  0.2917
 6030TIP3   OH239580   2.356   5.903  11.164 -0.3691  0.3627 -0.1272
 6030TIP3    H139581   2.306   5.922  11.243  0.4420  0.2633  0.4235
 6030TIP3    H239582   2.349   5.984  11.112  0.3038  0.9782  0.7105
 6031TIP3   OH239583   0.588   5.636  12.600 -0.9068 -0.1461  0.1225
 6031TIP3    H139584   0.503   5.625  12.557 -0.4176 -0.0977 -0.8650
 6031TIP3    H239585   0.651   5.599  12.539 -0.2813 -0.8866  1.1907
 6032TIP3   OH239586   3.592   2.201   3.130 -0.0829  0.7343  0.6247
 6032TIP3    H139587   3.528   2.139   3.165 -0.7432  2.0610  1.8454
 6032TIP3    H239588   3.540   2.268   3.085  0.6650 -0.0979 -1.6599
 6033TIP3   OH239589   0.573   5.783   1.969  0.4044  0.0163  0.2082
 6033TIP3    H139590   0.586   5.875   1.945 -0.7016 -0.3734 -2.0632
 6033TIP3    H239591   0.483   5.763   1.944  0.7588 -1.8212  0.2240
 6034TIP3   OH239592   3.815   1.072   5.692  0.6231 -0.3908  0.4028
 6034TIP3    H139593   3.891   1.124   5.716  0.4084  1.3472 -2.2813
 6034TIP3    H239594   3.846   0.981   5.696  2.2984  0.1689  0.9850
 6035TIP3   OH239595   4.993   1.280  15.315  0.3624  0.5542 -0.4970
 6035TIP3    H139596   4.948   1.349  15.266 -1.0963 -0.6091 -0.8551
 6035TIP3    H239597   5.084   1.310  15.320 -0.0720  2.1279 -1.2995
 6036TIP3   OH239598   4.045   4.934   1.293 -0.3502 -0.3012  0.5415
 6036TIP3    H139599   3.953   4.940   1.268  0.3261  1.9561 -1.7480
 6036TIP3    H239600   4.081   4.866   1.235  0.2338  1.7662 -1.6789
 6037TIP3   OH239601   4.750   6.670  10.158 -0.1511  0.1964  0.6405
 6037TIP3    H139602   4.690   6.650  10.230 -0.8645  3.1887  0.9973
 6037TIP3    H239603   4.823   6.609  10.170 -1.1638 -0.7136  2.6974
 6038TIP3   OH239604   4.393   3.090  12.181  0.3063 -0.7771 -0.2672
 6038TIP3    H139605   4.352   3.095  12.094 -0.5312  0.6611  0.1717
 6038TIP3    H239606   4.352   3.014  12.222  0.4765 -1.2802 -1.0063
 6039TIP3   OH239607   6.039   0.170  14.701 -0.5208 -0.1259 -0.6821
 6039TIP3    H139608   6.065   0.133  14.786  0.8275  1.0476 -0.5427
 6039TIP3    H239609   6.117   0.163  14.647 -0.0920  2.6162 -0.5728
 6040TIP3   OH239610   0.896   2.847   1.871 -0.2262 -0.0786 -0.3855
 6040TIP3    H139611   0.987   2.828   1.892  0.0061 -0.0339 -1.3193
 6040TIP3    H239612   0.849   2.835   1.954  0.6372  0.0037  0.1219
 6041TIP3   OH239613   3.784   4.811  11.118  0.6490 -0.0575  0.0804
 6041TIP3    H139614   3.818   4.776  11.201  0.8444  3.4536  1.6305
 6041TIP3    H239615   3.855   4.863  11.082 -0.7661  1.8421 -0.1317
 6042TIP3   OH239616   4.867   4.157   2.757  0.3793  0.0457 -0.1384
 6042TIP3    H139617   4.884   4.199   2.842 -0.7132 -0.0037  0.1220
 6042TIP3    H239618   4.790   4.103   2.773 -0.8104  1.2329 -1.5462
 6043TIP3   OH239619   4.248   3.957  13.111 -0.0623  0.2593  0.2392
 6043TIP3    H139620   4.183   3.886  13.114 -0.4604  0.6546  1.6868
 6043TIP3    H239621   4.264   3.970  13.017  0.3442 -2.0139 -0.0576
 6044TIP3   OH239622   3.896   2.178  10.834 -0.0707  0.6479  0.8101
 6044TIP3    H139623   3.906   2.270  10.808  0.0389  0.9879  1.9883
 6044TIP3    H239624   3.878   2.182  10.928 -0.9051 -0.4994  0.7221
 6045TIP3   OH239625   1.975   0.455   5.014 -0.1085 -0.4748  0.2325
 6045TIP3    H139626   1.938   0.424   5.097 -2.2668  0.2315 -0.3959
 6045TIP3    H239627   2.032   0.527   5.039 -0.9371 -0.1032  1.1045
 6046TIP3   OH239628   5.665   0.328   2.163 -0.0573  0.1343  0.1078
 6046TIP3    H139629   5.755   0.360   2.163  0.2493 -0.2659 -3.3021
 6046TIP3    H239630   5.665   0.258   2.097 -3.1083  1.1038 -1.0918
 6047TIP3   OH239631   4.590   0.029  16.570 -0.2219 -0.3742 -0.2262
 6047TIP3    H139632   4.618   0.052  16.659  0.1535 -0.1569 -0.3991
 6047TIP3    H239633   4.512   0.083  16.555  0.0722  0.0479 -0.2565
 6048TIP3   OH239634   3.914   1.233   2.196 -0.3122  0.1489  0.1546
 6048TIP3    H139635   3.871   1.237   2.281 -1.4597 -2.3701 -0.2418
 6048TIP3    H239636   3.849   1.267   2.135 -0.6954 -0.9804 -0.0837
 6049TIP3   OH239637   6.066   1.272  13.035  0.3001 -0.1506 -0.5720
 6049TIP3    H139638   6.059   1.332  13.109  0.7838  0.4856 -1.0264
 6049TIP3    H239639   6.158   1.247  13.032  0.2040 -0.4977 -0.7126
 6050TIP3   OH239640   4.197   3.809  14.811  0.5721  1.0300 -0.0096
 6050TIP3    H139641   4.238   3.762  14.883 -3.2723  0.0585  1.8220
 6050TIP3    H239642   4.238   3.774  14.732  2.6287 -0.3061  1.5815
 6051TIP3   OH239643   1.630   6.281   5.678  0.4175 -0.1071 -0.3170
 6051TIP3    H139644   1.561   6.299   5.615  0.2157  0.4178  0.0541
 6051TIP3    H239645   1.601   6.202   5.724  0.2897 -0.1524 -0.4755
 6052TIP3   OH239646   6.687   4.033   2.058 -0.3836  0.3921  0.0036
 6052TIP3    H139647   6.621   4.028   1.990 -0.8736  0.7532  0.4424
 6052TIP3    H239648   6.660   3.968   2.123  0.1353 -0.0234 -0.1873
 6053TIP3   OH239649   5.547   0.944  12.697  0.1126  0.4803 -0.1698
 6053TIP3    H139650   5.522   1.034  12.676 -0.4607  0.1621 -0.9316
 6053TIP3    H239651   5.468   0.906  12.736 -0.6128 -0.4680 -2.3728
 6054TIP3   OH239652   4.666   6.663   2.464 -0.4377 -0.7044  0.4074
 6054TIP3    H139653   4.711   6.684   2.546 -1.9957  2.1511  0.6220
 6054TIP3    H239654   4.736   6.661   2.398  0.3937  0.9163  1.1896
 6055TIP3   OH239655   3.652   6.080   0.633  0.0159 -0.1384  1.0885
 6055TIP3    H139656   3.664   6.031   0.552 -0.6983  0.4130  0.6290
 6055TIP3    H239657   3.596   6.024   0.687 -1.7546  0.5877  0.1156
 6056TIP3   OH239658   2.501   6.171   5.705  0.5689  0.0484  0.1805
 6056TIP3    H139659   2.571   6.112   5.734 -1.5400 -2.9308 -0.3490
 6056TIP3    H239660   2.476   6.139   5.618 -0.2154  2.2381 -0.4803
 6057TIP3   OH239661   3.184   5.649   4.071  0.4507  0.6666  0.3268
 6057TIP3    H139662   3.121   5.606   4.129  2.2629  0.3833  2.2190
 6057TIP3    H239663   3.230   5.711   4.128  1.1071  1.7114 -1.2537
 6058TIP3   OH239664   5.808   5.049  14.463 -0.0400  0.4697  0.2832
 6058TIP3    H139665   5.817   4.956  14.443 -0.3848  0.2885  0.9413
 6058TIP3    H239666   5.893   5.086  14.439 -0.0508  0.0698 -0.4066
 6059TIP3   OH239667   0.936   2.330   1.510  0.4707 -0.2531 -0.3862
 6059TIP3    H139668   0.844   2.349   1.532  0.3174  0.1453 -1.3391
 6059TIP3    H239669   0.936   2.320   1.415  1.7290  1.6941 -0.6503
 6060TIP3   OH239670   6.410   6.626  15.044  0.0775 -0.2109 -0.3282
 6060TIP3    H139671   6.379   6.689  14.979  1.9623 -0.6295 -1.7338
 6060TIP3    H239672   6.416   6.676  15.125 -0.5503  0.8371 -0.9113
 6061TIP3   OH239673   2.132   2.387  13.564  0.0851  0.6168 -0.0468
 6061TIP3    H139674   2.124   2.479  13.540  0.4493  0.8098  0.5446
 6061TIP3    H239675   2.220   2.379  13.600 -0.2921  0.2697  0.8431
 6062TIP3   OH239676   5.644   4.798   1.747  0.3393 -0.6004 -0.5484
 6062TIP3    H139677   5.703   4.863   1.708 -0.1158  0.3732  0.3367
 6062TIP3    H239678   5.567   4.849   1.773 -0.6479 -1.7531 -1.1564
 6063TIP3   OH239679   2.190   1.678  16.547 -0.0013 -0.2598 -0.8986
 6063TIP3    H139680   2.244   1.661  16.624  1.5634 -0.9198 -2.0894
 6063TIP3    H239681   2.237   1.744  16.497 -0.8731  0.0035 -1.4076
 6064TIP3   OH239682   5.010   4.794  11.296 -0.6145 -0.5320 -0.2862
 6064TIP3    H139683   4.940   4.769  11.236 -4.2104  0.1035  3.2305
 6064TIP3    H239684   5.003   4.889  11.303  0.0823 -0.5439  0.7282
 6065TIP3   OH239685   5.397   0.189  11.152  0.0172  0.6125  0.4585
 6065TIP3    H139686   5.401   0.164  11.060 -0.0611  1.4899  0.2080
 6065TIP3    H239687   5.466   0.137  11.194  1.6772  1.9395 -0.5106
 6066TIP3   OH239688   3.944   4.093  16.047  0.0476 -0.1445 -0.2381
 6066TIP3    H139689   3.929   4.057  16.135 -0.0408  1.2274  0.3371
 6066TIP3    H239690   3.908   4.027  15.988 -2.3032  0.0461  0.8606
 6067TIP3   OH239691   1.419   6.765  13.440 -0.2658 -0.1943  0.3444
 6067TIP3    H139692   1.471   6.789  13.517 -0.5796  0.2891  0.4076
 6067TIP3    H239693   1.379   6.682  13.463  0.1623 -0.3749  0.4491
 6068TIP3   OH239694   5.616   0.279  16.605  0.8180  0.4640  0.2446
 6068TIP3    H139695   5.578   0.311  16.686 -0.9975 -0.9436  0.0156
 6068TIP3    H239696   5.607   0.184  16.610 -0.6259  0.4073 -2.1708
 6069TIP3   OH239697   1.261   5.682  15.516 -0.3158  0.1130  0.6688
 6069TIP3    H139698   1.180   5.632  15.505 -1.3152  1.1278  2.7670
 6069TIP3    H239699   1.331   5.615  15.514 -1.2695 -0.8977 -0.1826
 6070TIP3   OH239700   5.034   3.443   1.194 -0.2311  0.0513  0.0824
 6070TIP3    H139701   5.110   3.394   1.226 -0.6109 -0.8856 -0.4118
 6070TIP3    H239702   5.041   3.439   1.098 -0.8776 -0.0065  0.0330
 6071TIP3   OH239703   1.841   2.267  13.415  0.3326  0.6310  0.5101
 6071TIP3    H139704   1.860   2.358  13.394 -0.0024  0.3959 -0.9107
 6071TIP3    H239705   1.763   2.246  13.365  1.8763 -1.1862 -1.3236
 6072TIP3   OH239706   2.958   4.196  14.958 -0.4328 -0.3127  0.0321
 6072TIP3    H139707   2.972   4.273  14.904 -0.5235  0.2290  0.7575
 6072TIP3    H239708   3.027   4.200  15.024 -1.3034 -0.0317  0.9604
 6073TIP3   OH239709   0.134   2.412   5.445 -0.2892 -0.7508 -0.5652
 6073TIP3    H139710   0.042   2.415   5.469 -0.5072 -0.4458 -1.3788
 6073TIP3    H239711   0.147   2.324   5.409 -1.0018  0.0634 -3.0734
 6074TIP3   OH239712   1.658   5.331   2.966 -0.1967 -0.2613  0.3459
 6074TIP3    H139713   1.725   5.264   2.957 -1.6576 -1.9889  1.5586
 6074TIP3    H239714   1.641   5.360   2.877  1.6005 -0.3068 -0.0457
 6075TIP3   OH239715   5.935   3.492   0.284 -0.3226  0.3617  0.3320
 6075TIP3    H139716   5.940   3.446   0.200 -1.5961  0.9759 -0.1131
 6075TIP3    H239717   6.026   3.505   0.310  0.0830 -0.8406 -0.3877
 6076TIP3   OH239718   1.676   4.265  14.521  0.2986 -0.2117  0.0510
 6076TIP3    H139719   1.593   4.294  14.482 -1.4373 -2.0735  2.1293
 6076TIP3    H239720   1.709   4.199  14.461  0.3384  0.5768 -0.8192
 6077TIP3   OH239721   1.708   0.845  14.816 -0.3658 -0.0692 -0.2403
 6077TIP3    H139722   1.691   0.797  14.735  0.4621 -1.5404  0.4284
 6077TIP3    H239723   1.744   0.780  14.876 -1.1855  0.9366  1.4172
 6078TIP3   OH239724   5.367   2.413   5.825 -0.0404  0.3574 -0.9163
 6078TIP3    H139725   5.299   2.448   5.767 -1.0454  1.6200  0.9376
 6078TIP3    H239726   5.436   2.479   5.824  0.0133  0.3041 -0.7818
 6079TIP3   OH239727   4.578   1.877   1.468  0.4564  0.4018  0.4619
 6079TIP3    H139728   4.663   1.898   1.430  0.7576 -1.5355 -0.0192
 6079TIP3    H239729   4.542   1.810   1.411 -0.9408  0.4312  1.2592
 6080TIP3   OH239730   6.693   5.420  14.081  0.0219 -0.0229 -0.0386
 6080TIP3    H139731   6.764   5.355  14.076 -1.8831 -2.1410 -2.7784
 6080TIP3    H239732   6.688   5.456  13.993 -1.0991  1.4793  0.6040
 6081TIP3   OH239733   0.374   4.817   0.774  0.0024  0.2211 -0.2107
 6081TIP3    H139734   0.281   4.837   0.760  0.4459  2.0151 -0.7621
 6081TIP3    H239735   0.412   4.817   0.687  0.9147  1.6892  0.1557
 6082TIP3   OH239736   4.615   0.987  14.251  0.0675  0.0049 -0.0572
 6082TIP3    H139737   4.550   0.929  14.212 -1.8080  2.0279 -0.1342
 6082TIP3    H239738   4.634   0.949  14.336  2.7396 -3.4157 -1.9079
 6083TIP3   OH239739   3.173   0.472   2.598  0.3830 -0.4294  0.0215
 6083TIP3    H139740   3.180   0.477   2.502 -0.1961 -0.7096 -0.0426
 6083TIP3    H239741   3.167   0.379   2.616 -1.9253 -0.3196  0.1189
 6084TIP3   OH239742   1.745   1.666   0.515 -0.1390  0.1357  0.4347
 6084TIP3    H139743   1.808   1.619   0.461  0.7933  2.0048 -0.2179
 6084TIP3    H239744   1.789   1.675   0.600 -0.0661  0.2957  0.3819
 6085TIP3   OH239745   6.541   1.114   2.513  0.0659  0.0420  0.5875
 6085TIP3    H139746   6.462   1.069   2.482 -1.8797  2.2236  1.9587
 6085TIP3    H239747   6.558   1.075   2.599  1.0352 -1.0074 -0.0626
 6086TIP3   OH239748   5.004   0.484   0.123 -0.4536 -0.3852  0.0336
 6086TIP3    H139749   4.924   0.446   0.087 -1.0649  1.6508 -0.9165
 6086TIP3    H239750   4.977   0.569   0.158  1.3319  0.5844 -0.7758
 6087TIP3   OH239751   5.874   4.638   2.187 -0.1074  0.2388  0.1292
 6087TIP3    H139752   5.835   4.657   2.102 -1.5726  1.3681  0.9830
 6087TIP3    H239753   5.870   4.543   2.196  2.8022 -0.2528 -2.2246
 6088TIP3   OH239754   4.936   4.664  12.781  0.2326  0.0581 -0.3771
 6088TIP3    H139755   5.008   4.701  12.730  1.7830 -0.2556  1.4789
 6088TIP3    H239756   4.928   4.574  12.750  2.4470 -0.7354  1.1308
 6089TIP3   OH239757   6.400   5.459   4.037  0.6646 -0.3608  0.4068
 6089TIP3    H139758   6.350   5.423   4.110  1.2192  0.4890  1.2223
 6089TIP3    H239759   6.460   5.389   4.012  0.6421 -0.5700  0.9269
 6090TIP3   OH239760   4.499   3.964   3.859  0.5508 -0.0018 -0.1979
 6090TIP3    H139761   4.561   3.914   3.912  1.7301 -0.8978 -2.3254
 6090TIP3    H239762   4.433   3.993   3.922  0.8246 -2.6218  1.4622
 6091TIP3   OH239763   3.536   3.837  13.274 -0.5829 -0.4806  0.4122
 6091TIP3    H139764   3.466   3.894  13.240 -0.9170 -1.0044  0.2178
 6091TIP3    H239765   3.610   3.854  13.215 -0.3516  0.4921  0.9509
 6092TIP3   OH239766   4.411   0.086   4.805 -0.8555 -0.2524 -0.2016
 6092TIP3    H139767   4.464   0.012   4.775  0.2841  1.1420 -1.7651
 6092TIP3    H239768   4.341   0.093   4.740 -0.7889  0.2240 -0.2212
 6093TIP3   OH239769   5.401   6.076   3.469  0.2350  0.4889 -0.7224
 6093TIP3    H139770   5.455   6.141   3.514  1.2955  0.4557 -1.8742
 6093TIP3    H239771   5.422   6.088   3.376 -0.5671 -0.5965 -1.0648
 6094TIP3   OH239772   6.149   1.117  16.938  0.8827 -0.4171 -0.2341
 6094TIP3    H139773   6.173   1.030  16.906 -0.7271 -1.0357  0.1561
 6094TIP3    H239774   6.226   1.172  16.919  2.2855 -2.1008  0.2889
 6095TIP3   OH239775   4.649   4.849  14.559 -0.0297  0.3501 -0.0541
 6095TIP3    H139776   4.711   4.898  14.613 -0.1551 -0.9041  1.2851
 6095TIP3    H239777   4.671   4.875  14.469  0.2480  2.4181  0.5514
 6096TIP3   OH239778   5.636   2.691  12.452  0.2794 -0.5025 -0.4756
 6096TIP3    H139779   5.723   2.662  12.478  0.9637  0.3279 -1.7135
 6096TIP3    H239780   5.636   2.785  12.468 -0.5726 -0.5711 -0.0225
 6097TIP3   OH239781   6.034   0.606   1.601  0.5678  0.5263 -0.2364
 6097TIP3    H139782   6.055   0.693   1.633  1.5589 -0.3653  1.7461
 6097TIP3    H239783   5.945   0.590   1.632  1.3306 -0.1236  1.8345
 6098TIP3   OH239784   0.175   3.285  12.301  0.2185 -0.2022 -0.2175
 6098TIP3    H139785   0.230   3.263  12.377  0.4500  1.9216  0.2935
 6098TIP3    H239786   0.222   3.356  12.258 -1.8535  1.3620 -0.0436
 6099TIP3   OH239787   1.539   6.226  17.224  0.1329  0.1000 -0.2075
 6099TIP3    H139788   1.520   6.160  17.291 -0.3782 -0.0339 -0.4796
 6099TIP3    H239789   1.557   6.175  17.145 -0.1001  0.2823 -0.3772
 6100TIP3   OH239790   0.108   4.306   3.831  0.3464 -0.8280 -0.3632
 6100TIP3    H139791   0.165   4.233   3.856  0.8840  0.0674  1.1998
 6100TIP3    H239792   0.170   4.376   3.808 -0.1074 -0.1384  0.4559
 6101TIP3   OH239793   3.068   1.024   2.067  0.5813  0.3813  0.0900
 6101TIP3    H139794   3.117   1.062   2.140 -0.9685  1.4391  0.6480
 6101TIP3    H239795   3.080   0.929   2.077 -0.7214  0.3803  2.6262
 6102TIP3   OH239796   5.806   6.529   2.981 -0.0415 -0.3404  0.5940
 6102TIP3    H139797   5.736   6.469   2.955  0.7580 -0.7853 -0.6377
 6102TIP3    H239798   5.775   6.615   2.953  0.9212 -0.8386 -2.3667
 6103TIP3   OH239799   4.995   1.436  11.709 -0.2286 -0.6341  0.0480
 6103TIP3    H139800   4.941   1.369  11.668 -2.1060  0.3038  0.8633
 6103TIP3    H239801   5.008   1.406  11.798 -2.4699  0.7509  0.9257
 6104TIP3   OH239802   2.585   1.427  17.068 -0.3575  0.1694 -0.2441
 6104TIP3    H139803   2.576   1.344  17.020  2.0361 -0.1231 -0.3021
 6104TIP3    H239804   2.628   1.403  17.149 -0.0393  1.2998 -0.0594
 6105TIP3   OH239805   3.563   5.444  17.180 -0.4462  0.2182 -0.4687
 6105TIP3    H139806   3.578   5.498  17.257  0.1697 -0.1990 -0.2857
 6105TIP3    H239807   3.637   5.383  17.179 -0.9088 -0.3478 -0.9000
 6106TIP3   OH239808   0.182   4.528   2.744 -0.3470  0.1231  0.0790
 6106TIP3    H139809   0.248   4.595   2.726 -0.9675  0.3906 -1.3887
 6106TIP3    H239810   0.174   4.479   2.662 -2.1784  0.3103  0.0999
 6107TIP3   OH239811   4.690   3.727  11.262  0.2981  0.8131  0.4879
 6107TIP3    H139812   4.625   3.786  11.302 -0.4916 -0.2898  0.8921
 6107TIP3    H239813   4.640   3.677  11.197  0.9009  0.4639  0.2890
 6108TIP3   OH239814   1.680   5.638  14.462 -0.4475  0.1380 -0.6159
 6108TIP3    H139815   1.608   5.691  14.496  0.3797 -1.1672  3.9696
 6108TIP3    H239816   1.639   5.555  14.437 -0.7924 -0.2970  1.1844
 6109TIP3   OH239817   4.651   5.280  14.765 -0.8080 -0.3786 -0.2364
 6109TIP3    H139818   4.634   5.331  14.844 -0.7383  0.0425 -0.4865
 6109TIP3    H239819   4.747   5.280  14.757 -0.8287 -0.1398 -0.4980
 6110TIP3   OH239820   4.553   4.087  14.892 -0.5146 -0.6083 -0.1007
 6110TIP3    H139821   4.616   4.015  14.899  1.0780  0.6874 -0.5053
 6110TIP3    H239822   4.604   4.166  14.911 -2.0479  0.4952 -0.3559
 6111TIP3   OH239823   0.158   5.348  16.639  0.1118  0.3485  0.3354
 6111TIP3    H139824   0.094   5.399  16.589 -0.1701  1.2879  1.6101
 6111TIP3    H239825   0.113   5.265  16.656 -0.4781  0.6951  0.5268
 6112TIP3   OH239826   3.148   5.726   2.095  0.3367  0.8359 -0.4983
 6112TIP3    H139827   3.052   5.733   2.097 -0.0376 -2.4349 -0.6825
 6112TIP3    H239828   3.175   5.788   2.027 -1.7583  1.1001 -1.1705
 6113TIP3   OH239829   2.004   0.854   5.156  0.5327 -0.6376  0.5330
 6113TIP3    H139830   2.086   0.869   5.111  0.4336 -0.2147  0.4853
 6113TIP3    H239831   1.956   0.936   5.146  1.0329 -0.0454  2.5109
 6114TIP3   OH239832   0.304   6.194   4.811 -0.0814  0.2459 -0.1815
 6114TIP3    H139833   0.233   6.169   4.870 -0.5596  2.2074  0.1500
 6114TIP3    H239834   0.383   6.187   4.864 -0.4663  1.6092  0.6118
 6115TIP3   OH239835   4.337   3.506  10.766  0.1935 -0.0292 -0.2170
 6115TIP3    H139836   4.373   3.595  10.770  0.4807 -0.1163 -0.8265
 6115TIP3    H239837   4.405   3.451  10.805 -0.1686  0.0669  0.5686
 6116TIP3   OH239838   5.282   4.272   6.430  0.0364  0.4742 -0.0044
 6116TIP3    H139839   5.363   4.257   6.382 -0.4478  2.0143 -1.4349
 6116TIP3    H239840   5.241   4.186   6.437  1.5326 -0.2434  0.3127
 6117TIP3   OH239841   2.579   5.171   0.893 -0.0581  0.4798  0.3143
 6117TIP3    H139842   2.529   5.201   0.818 -1.4744 -0.7702  0.7004
 6117TIP3    H239843   2.584   5.247   0.951 -0.5174  0.9433 -0.2466
 6118TIP3   OH239844   2.497   4.989   0.243  0.5207 -0.2033  0.3212
 6118TIP3    H139845   2.571   4.970   0.184 -1.4013 -0.5775 -2.1268
 6118TIP3    H239846   2.439   5.045   0.191 -0.2884  1.2937  2.6886
 6119TIP3   OH239847   0.387   6.445   2.704  0.2711  0.1485 -0.5005
 6119TIP3    H139848   0.399   6.368   2.647 -1.6655  1.1719 -2.4534
 6119TIP3    H239849   0.432   6.516   2.658  1.9561  0.2855  1.2370
 6120TIP3   OH239850   5.890   5.874   1.840 -0.1991 -0.1389 -0.7885
 6120TIP3    H139851   5.979   5.850   1.815  0.1099  0.3171 -0.1398
 6120TIP3    H239852   5.889   5.969   1.839 -0.9804 -0.1362 -1.8123
 6121TIP3   OH239853   3.820   4.903  16.625 -0.0413  0.2156  0.4010
 6121TIP3    H139854   3.752   4.952  16.579  1.0295  1.9816  0.6053
 6121TIP3    H239855   3.879   4.874  16.555  0.0645  0.4291  0.4002
 6122TIP3   OH239856   0.118   3.314   5.389 -0.5783 -0.3156  0.4239
 6122TIP3    H139857   0.164   3.387   5.348  0.7288 -0.1437  2.1063
 6122TIP3    H239858   0.172   3.290   5.464 -2.0733 -1.6261  1.1449
 6123TIP3   OH239859   1.722   5.313  13.980 -0.5082  0.0562  0.3020
 6123TIP3    H139860   1.700   5.256  13.906 -0.4277 -0.5806  0.7517
 6123TIP3    H239861   1.736   5.252  14.053  0.8597  0.5713  0.4947
 6124TIP3   OH239862   2.769   5.319   0.112  0.4525  0.3584 -0.2730
 6124TIP3    H139863   2.805   5.282   0.192  3.5944  3.4576 -0.0082
 6124TIP3    H239864   2.704   5.382   0.141  0.5649  0.4570 -0.2344
 6125TIP3   OH239865   6.547   0.365   0.666  0.2972 -0.0866 -0.2435
 6125TIP3    H139866   6.466   0.411   0.647  0.4844  0.1176 -0.5571
 6125TIP3    H239867   6.606   0.433   0.700  0.6549 -0.0392 -0.9400
 6126TIP3   OH239868   2.185   2.316   4.534  0.7726 -0.8185 -0.4161
 6126TIP3    H139869   2.110   2.366   4.501  1.8898  1.3632  0.1957
 6126TIP3    H239870   2.146   2.236   4.569 -1.5213  0.9366  1.3504
 6127TIP3   OH239871   5.945   5.361  12.796 -0.0989  0.2754  0.0217
 6127TIP3    H139872   5.903   5.387  12.713  0.2869 -2.5128 -1.1512
 6127TIP3    H239873   6.032   5.400  12.792  0.7347 -1.5938 -2.0165
 6128TIP3   OH239874   1.524   2.372   3.208 -0.3712 -0.2117 -0.2642
 6128TIP3    H139875   1.558   2.449   3.254  1.7945 -1.1632 -0.1459
 6128TIP3    H239876   1.483   2.319   3.276  1.3783 -0.8461  0.3421
 6129TIP3   OH239877   6.526   2.449   3.569 -0.1586  0.2315 -0.1401
 6129TIP3    H139878   6.567   2.435   3.483  0.8501  2.7650 -0.1442
 6129TIP3    H239879   6.595   2.424   3.632 -0.5371 -0.6304 -0.0516
 6130TIP3   OH239880   5.477   3.036   5.118  0.3690  0.2001  0.2624
 6130TIP3    H139881   5.437   2.975   5.179  0.5643  0.6706  0.8654
 6130TIP3    H239882   5.406   3.093   5.089  0.2402 -0.1370 -0.0992
 6131TIP3   OH239883   2.689   0.893   5.402  0.4612  0.7658  0.3302
 6131TIP3    H139884   2.743   0.908   5.480 -2.0820  0.7243  2.2068
 6131TIP3    H239885   2.704   0.800   5.381 -0.2719  0.2393  1.9901
 6132TIP3   OH239886   0.946   4.680   6.037  0.5233  0.2874 -0.0273
 6132TIP3    H139887   0.852   4.696   6.024  0.2350 -1.1044  0.2108
 6132TIP3    H239888   0.960   4.591   6.005  1.3161 -0.3548  1.9507
 6133TIP3   OH239889   1.640   6.193  14.058  0.7061  0.4710 -0.3270
 6133TIP3    H139890   1.630   6.226  13.968  0.9864 -0.8049 -0.8540
 6133TIP3    H239891   1.679   6.265  14.106 -1.4999  1.9897 -0.6771
 6134TIP3   OH239892   4.843   3.732   4.618 -0.0653  0.2325  0.7982
 6134TIP3    H139893   4.771   3.674   4.594  0.4699 -0.6417  1.2666
 6134TIP3    H239894   4.922   3.681   4.601  0.5869  1.8457 -1.6494
 6135TIP3   OH239895   3.031   3.385   2.875  0.3715 -0.5405  0.2764
 6135TIP3    H139896   2.956   3.405   2.819  1.4977 -0.7090 -1.3714
 6135TIP3    H239897   3.054   3.469   2.915  0.5265 -0.0427 -0.8144
 6136TIP3   OH239898   4.109   1.274   5.416 -0.4976 -0.0709 -0.4050
 6136TIP3    H139899   4.115   1.217   5.338  0.1818 -0.4802 -0.0645
 6136TIP3    H239900   4.050   1.344   5.389 -0.3991 -0.2893 -1.2464
 6137TIP3   OH239901   2.381   5.182  13.298  0.1857  0.8252  0.1295
 6137TIP3    H139902   2.319   5.242  13.258  0.1791  0.9612  0.3445
 6137TIP3    H239903   2.358   5.183  13.391  0.3451  0.6810  0.1699
 6138TIP3   OH239904   3.688   2.246  11.932 -0.3382  0.3097 -0.1217
 6138TIP3    H139905   3.636   2.308  11.982 -0.4054  0.5895 -0.5330
 6138TIP3    H239906   3.640   2.164  11.938 -0.0459  0.1946  0.7541
 6139TIP3   OH239907   2.108   4.354  11.866 -0.3232  0.3135 -0.2598
 6139TIP3    H139908   2.150   4.431  11.902 -1.0115  0.3348  0.5086
 6139TIP3    H239909   2.017   4.381  11.850 -0.0207  0.3586 -2.1632
 6140TIP3   OH239910   0.102   5.433   0.861 -0.2744  0.3392  0.5226
 6140TIP3    H139911   0.034   5.384   0.908 -0.5108 -0.4106 -0.5739
 6140TIP3    H239912   0.154   5.366   0.816  1.2473  0.8959  1.3692
 6141TIP3   OH239913   5.513   3.897  13.693  0.1146 -0.2172 -0.7880
 6141TIP3    H139914   5.494   3.915  13.785  1.2488  0.6597 -0.6967
 6141TIP3    H239915   5.429   3.906  13.648 -0.4613 -0.7492  0.1738
 6142TIP3   OH239916   4.332   4.242   5.700 -0.4527 -0.3588  0.3507
 6142TIP3    H139917   4.320   4.322   5.649 -0.3671 -1.0694 -0.8187
 6142TIP3    H239918   4.306   4.267   5.789 -0.3090  0.9927  0.0432
 6143TIP3   OH239919   5.047   6.278   2.458 -0.2616  0.4694 -0.6685
 6143TIP3    H139920   4.957   6.311   2.464  0.0783  1.2808  0.3946
 6143TIP3    H239921   5.056   6.221   2.534  0.6510  1.8252  0.2944
 6144TIP3   OH239922   5.643   0.685  16.097 -0.3751  0.1743 -0.0494
 6144TIP3    H139923   5.619   0.767  16.056 -0.8849  0.6818  1.2298
 6144TIP3    H239924   5.603   0.617  16.042  0.2243  0.7509 -1.2233
 6145TIP3   OH239925   6.204   2.204   2.182  0.0817 -0.5369  0.2388
 6145TIP3    H139926   6.280   2.230   2.233 -0.1046 -0.0945  0.2907
 6145TIP3    H239927   6.129   2.235   2.232 -0.1282 -0.7496  0.0628
 6146TIP3   OH239928   0.528   3.984  12.006 -0.2866  0.2970  0.3320
 6146TIP3    H139929   0.601   4.033  11.969 -0.7192 -0.1569 -1.1953
 6146TIP3    H239930   0.560   3.953  12.091  0.7346  1.3995  0.3771
 6147TIP3   OH239931   6.605   1.515  12.326  0.0441  0.2657 -0.3339
 6147TIP3    H139932   6.592   1.423  12.348 -0.9688  0.3882 -0.3743
 6147TIP3    H239933   6.517   1.549  12.309  0.4692  1.0505 -1.0854
 6148TIP3   OH239934   1.108   0.130  11.679 -0.3674  0.3457  0.3184
 6148TIP3    H139935   1.152   0.150  11.762 -0.2899  2.1688 -0.1244
 6148TIP3    H239936   1.057   0.209  11.659  0.8446  0.5972 -2.1341
 6149TIP3   OH239937   3.053   4.705  14.083 -0.0371 -0.0452  0.5611
 6149TIP3    H139938   3.046   4.754  14.165 -0.4922  0.8379  0.0071
 6149TIP3    H239939   3.079   4.771  14.018 -0.5414 -0.5597 -0.1707
 6150TIP3   OH239940   6.324   0.167  13.502  0.1860  0.0756  0.3196
 6150TIP3    H139941   6.397   0.191  13.443  0.6299 -0.7215  0.5353
 6150TIP3    H239942   6.337   0.222  13.579 -0.2355  0.9248 -0.2038
 6151TIP3   OH239943   2.120   6.441   4.127 -0.6583  0.1808  0.3750
 6151TIP3    H139944   2.194   6.484   4.169  0.8884 -0.7461 -1.2620
 6151TIP3    H239945   2.112   6.356   4.171 -1.1252  0.5035  0.9229
 6152TIP3   OH239946   4.116   2.658  12.398 -0.7112  0.4856  0.0934
 6152TIP3    H139947   4.138   2.565  12.399 -1.1632  0.2893  3.5076
 6152TIP3    H239948   4.188   2.700  12.351  0.0751 -1.4484 -0.4958
 6153TIP3   OH239949   0.980   4.839   5.666  0.0572  0.1894  0.0974
 6153TIP3    H139950   0.912   4.840   5.733  0.8733 -0.2811  0.9467
 6153TIP3    H239951   1.042   4.773   5.695  0.7341  0.3920 -0.8246
 6154TIP3   OH239952   6.346   6.220  10.818 -0.0282  0.4276 -0.9980
 6154TIP3    H139953   6.433   6.181  10.824  0.1386  0.7945 -0.9750
 6154TIP3    H239954   6.359   6.299  10.765 -0.3994  0.3374 -1.2326
 6155TIP3   OH239955   6.102   2.831   0.071 -0.3048  0.0015 -0.2781
 6155TIP3    H139956   6.011   2.859   0.080 -0.5015 -0.6677 -0.1442
 6155TIP3    H239957   6.101   2.767   0.001  0.2681  0.8343 -1.0782
 6156TIP3   OH239958   4.972   2.720  15.825 -0.1946  0.9602 -0.2870
 6156TIP3    H139959   4.924   2.702  15.745 -0.5443  0.2624  0.0707
 6156TIP3    H239960   5.039   2.651  15.829 -0.9871  0.2132  0.6515
 6157TIP3   OH239961   3.564   1.019  15.945  0.0632 -0.1153  0.1465
 6157TIP3    H139962   3.482   1.007  15.898  0.5124 -3.0728 -0.0575
 6157TIP3    H239963   3.574   1.114  15.951 -1.3221  0.4347 -3.4315
 6158TIP3   OH239964   5.974   5.132   3.431  0.2376  0.4571  0.3303
 6158TIP3    H139965   6.055   5.181   3.443  0.4987  0.1352 -0.1000
 6158TIP3    H239966   6.002   5.042   3.413 -0.2096  0.3554  0.1181
 6159TIP3   OH239967   2.078   6.138  12.214 -0.1396 -0.2927  0.5809
 6159TIP3    H139968   1.984   6.144  12.231 -0.1721  0.4204  0.1759
 6159TIP3    H239969   2.118   6.145  12.301 -0.4516 -0.4351  0.7374
 6160TIP3   OH239970   5.174   0.391  11.789 -0.0815  0.2539  0.0707
 6160TIP3    H139971   5.225   0.338  11.850 -1.0025 -0.8399 -0.0736
 6160TIP3    H239972   5.148   0.468  11.839 -0.7657 -0.5948  1.0534
 6161TIP3   OH239973   2.465   4.288  15.335  0.1967  0.3167 -0.0016
 6161TIP3    H139974   2.497   4.233  15.264  0.0119  0.3439 -0.1065
 6161TIP3    H239975   2.491   4.376  15.311  3.1885 -0.0039  1.6131
 6162TIP3   OH239976   2.983   4.719   0.479 -0.3931 -0.8298 -0.3112
 6162TIP3    H139977   2.941   4.700   0.395 -2.5515 -2.5141  1.0297
 6162TIP3    H239978   3.039   4.643   0.496  1.2721  0.2200 -0.8861
 6163TIP3   OH239979   1.862   2.433   3.484 -0.1631  0.3138 -0.2443
 6163TIP3    H139980   1.947   2.458   3.520 -0.3576  1.2290 -0.3942
 6163TIP3    H239981   1.877   2.347   3.445  0.8061  0.6549 -0.6598
 6164TIP3   OH239982   5.744   3.610  14.881 -0.5145 -0.3806  0.2284
 6164TIP3    H139983   5.804   3.570  14.818 -1.0910  0.8116 -1.1268
 6164TIP3    H239984   5.747   3.704  14.861 -0.6019  0.0677  2.0959
 6165TIP3   OH239985   5.853   3.742  11.591 -0.3661  0.6889 -0.3892
 6165TIP3    H139986   5.765   3.713  11.566  0.3442 -1.4230 -0.6730
 6165TIP3    H239987   5.857   3.833  11.563 -2.0997  0.5183 -1.3508
 6166TIP3   OH239988   5.537   1.533   4.745  0.4378  0.0682 -0.5702
 6166TIP3    H139989   5.607   1.492   4.694  1.3660  1.3436 -0.3651
 6166TIP3    H239990   5.559   1.626   4.747  0.1177  0.1551  1.6388
 6167TIP3   OH239991   1.676   5.085   3.738  0.3943  0.1670 -0.2033
 6167TIP3    H139992   1.741   5.154   3.732  0.8762 -0.3477 -1.1324
 6167TIP3    H239993   1.713   5.022   3.801  0.6673  0.0174 -0.5098
 6168TIP3   OH239994   1.378   0.776  15.702 -0.1389  0.1479 -0.2471
 6168TIP3    H139995   1.387   0.859  15.749  0.8510 -0.4266  0.5928
 6168TIP3    H239996   1.392   0.799  15.610 -0.6960  1.0368 -0.1272
 6169TIP3   OH239997   0.420   3.462  12.211  0.1688 -0.1366  0.4167
 6169TIP3    H139998   0.443   3.514  12.135  2.5312  0.8628  1.7194
 6169TIP3    H239999   0.424   3.523  12.285 -0.5566 -1.3932  1.5529
 6170TIP3   OH240000   3.386   5.581  11.106  0.3433  0.0108  0.1886
 6170TIP3    H140001   3.291   5.580  11.094  0.4515 -1.5433 -0.8043
 6170TIP3    H240002   3.417   5.654  11.053 -0.0301 -1.4541 -2.1644
 6171TIP3   OH240003   2.137   3.114  11.530 -0.0847 -0.3382 -0.0946
 6171TIP3    H140004   2.177   3.033  11.561  1.4056  0.0225 -1.0045
 6171TIP3    H240005   2.061   3.085  11.478 -0.3478 -1.0746  0.6791
 6172TIP3   OH240006   2.796   4.031  13.287  0.2383  0.4043 -0.2062
 6172TIP3    H140007   2.856   4.002  13.218  0.2079  0.9671 -0.4761
 6172TIP3    H240008   2.824   4.121  13.307  0.0147  0.3727  0.2570
 6173TIP3   OH240009   4.773   1.385   1.526  0.1260  0.1004  0.2330
 6173TIP3    H140010   4.761   1.465   1.577 -0.7320 -0.0463  0.2837
 6173TIP3    H240011   4.695   1.332   1.546  0.5397 -0.6183 -0.0250
 6174TIP3   OH240012   2.113   5.892   3.059 -0.1183 -0.1056  0.2258
 6174TIP3    H140013   2.037   5.945   3.034  0.9668  0.4812 -2.0684
 6174TIP3    H240014   2.084   5.802   3.046 -0.1386  0.1437 -1.6697
 6175TIP3   OH240015   2.491   5.490   4.936  0.1503 -0.3201 -0.1320
 6175TIP3    H140016   2.433   5.455   5.003 -0.6181 -3.5262 -2.2432
 6175TIP3    H240017   2.578   5.484   4.974 -0.3946 -0.6614  1.1105
 6176TIP3   OH240018   5.174   0.001   5.830  0.1673  0.5147  0.3688
 6176TIP3    H140019   5.237  -0.044   5.886  2.7614  1.3136 -1.6925
 6176TIP3    H240020   5.127  -0.069   5.786 -1.6177 -0.1184  3.0728
 6177TIP3   OH240021   0.523   4.134   3.618  0.8103 -0.5390  0.1038
 6177TIP3    H140022   0.503   4.219   3.578 -0.3853 -0.4562  0.8188
 6177TIP3    H240023   0.583   4.092   3.557 -4.3536 -2.4132 -4.4482
 6178TIP3   OH240024   4.714   0.227  15.209  0.2329  0.2047  0.1349
 6178TIP3    H140025   4.754   0.141  15.222  1.2852  0.6076 -0.3009
 6178TIP3    H240026   4.637   0.226  15.266  0.0478 -1.1316 -0.0951
 6179TIP3   OH240027   5.992   5.174   5.026 -0.6959 -0.1235 -0.1823
 6179TIP3    H140028   6.084   5.191   5.007 -0.5723  0.7458  1.0437
 6179TIP3    H240029   5.991   5.154   5.120 -1.7626 -0.1535 -0.1901
 6180TIP3   OH240030   3.502   2.443   5.935  0.4189  0.0588  0.3865
 6180TIP3    H140031   3.566   2.496   5.887  1.2550 -0.0351  1.3721
 6180TIP3    H240032   3.552   2.368   5.966 -0.0246  0.2851  1.6957
 6181TIP3   OH240033   0.484   1.875  11.276 -0.0479 -0.0746  0.3702
 6181TIP3    H140034   0.479   1.918  11.190 -0.5743  0.9742  0.9072
 6181TIP3    H240035   0.576   1.880  11.300  0.3761 -1.6772 -0.7578
 6182TIP3   OH240036   0.413   0.619   1.826  0.0753  0.1576  0.9457
 6182TIP3    H140037   0.506   0.603   1.816 -0.1082 -0.4088  0.0339
 6182TIP3    H240038   0.408   0.696   1.883  1.0740 -0.2123  1.5481
 6183TIP3   OH240039   0.420   6.248  11.623 -0.2961 -0.3715 -0.4782
 6183TIP3    H140040   0.509   6.216  11.639 -0.3554 -1.1877 -1.6955
 6183TIP3    H240041   0.427   6.299  11.543 -0.2977  2.4345  1.1629
 6184TIP3   OH240042   5.734   4.233   3.423  0.5861  0.2050 -0.3057
 6184TIP3    H140043   5.712   4.151   3.468 -0.2359  0.8168  0.4608
 6184TIP3    H240044   5.821   4.256   3.456 -0.1203  0.7914  1.2668
 6185TIP3   OH240045   5.666   1.026   2.363 -0.6449  0.2654 -0.2397
 6185TIP3    H140046   5.648   1.070   2.446 -0.4816 -0.0706 -0.0259
 6185TIP3    H240047   5.720   1.089   2.314  0.1356  0.0452  0.3240
 6186TIP3   OH240048   4.563   4.491  15.681  0.2004 -0.1175  0.7510
 6186TIP3    H140049   4.498   4.515  15.747 -1.8816 -0.2810 -1.1347
 6186TIP3    H240050   4.546   4.550  15.607  0.5523 -1.7756 -0.7210
 6187TIP3   OH240051   4.335   4.974   1.247 -0.0186 -0.3082  0.5199
 6187TIP3    H140052   4.399   4.992   1.316  1.2880 -0.6134 -0.5496
 6187TIP3    H240053   4.284   4.900   1.280 -0.9598  0.9733  2.0907
 6188TIP3   OH240054   0.531   3.987  12.930 -0.7660 -0.3462  0.2761
 6188TIP3    H140055   0.552   4.045  12.856 -2.3147 -0.7686 -0.5356
 6188TIP3    H240056   0.596   3.917  12.923  1.0526  1.1604  1.1952
 6189TIP3   OH240057   3.295   6.793  12.907 -0.0604  0.2067  0.5146
 6189TIP3    H140058   3.222   6.844  12.941 -0.2605  2.4473 -2.7878
 6189TIP3    H240059   3.373   6.842  12.933 -0.0756  0.5920 -0.1386
 6190TIP3   OH240060   2.928   0.985   3.175  0.1825 -0.6482  0.0995
 6190TIP3    H140061   2.940   1.070   3.133  0.6525 -0.6878  0.1462
 6190TIP3    H240062   2.907   0.925   3.104  0.3305 -0.5877  0.0051
 6191TIP3   OH240063   3.447   6.325  10.723 -0.3599  0.6786  0.6394
 6191TIP3    H140064   3.360   6.346  10.690  0.9542  0.6382 -3.3243
 6191TIP3    H240065   3.442   6.233  10.748 -0.7087 -0.4128 -2.9438
 6192TIP3   OH240066   5.978   1.173  15.553  0.3010  0.2260 -0.2570
 6192TIP3    H140067   5.957   1.224  15.475  0.7190 -0.2759 -0.7108
 6192TIP3    H240068   5.908   1.108  15.559  0.5920 -0.1238 -0.5730
 6193TIP3   OH240069   6.458   1.907  12.276 -0.6133 -0.1270 -0.2327
 6193TIP3    H140070   6.423   1.819  12.290  0.4649 -0.3771  1.0602
 6193TIP3    H240071   6.398   1.947  12.214  0.4910 -2.8010 -3.3438
 6194TIP3   OH240072   6.354   1.715   1.564 -0.7675 -0.0302 -1.0278
 6194TIP3    H140073   6.349   1.802   1.603  0.9992  0.0212 -0.8343
 6194TIP3    H240074   6.266   1.680   1.572 -1.4663  1.6579 -0.9306
 6195TIP3   OH240075   0.875   4.335  16.447  0.3032 -0.1307  0.3201
 6195TIP3    H140076   0.834   4.403  16.500 -1.2804 -1.4509  0.8831
 6195TIP3    H240077   0.948   4.304  16.500  0.2841  0.2967  0.6017
 6196TIP3   OH240078   2.423   2.896  13.713  0.6194 -0.4393 -0.2834
 6196TIP3    H140079   2.384   2.914  13.628 -1.2850 -3.7563 -0.2723
 6196TIP3    H240080   2.515   2.922  13.702 -0.0365  1.2862 -2.5746
 6197TIP3   OH240081   1.068   1.327   2.584  0.2903 -0.4840 -0.2229
 6197TIP3    H140082   1.015   1.374   2.649  1.4378  0.3447  0.1369
 6197TIP3    H240083   1.006   1.267   2.542 -0.9089  0.3859  0.2492
 6198TIP3   OH240084   0.155   5.303  17.045 -0.3587 -0.6808 -0.2614
 6198TIP3    H140085   0.111   5.377  17.087 -0.7948 -1.1505  0.1182
 6198TIP3    H240086   0.228   5.283  17.104 -0.5685 -0.9053 -0.0768
 6199TIP3   OH240087   3.046   5.640   3.047  0.0196 -0.0247  0.4433
 6199TIP3    H140088   3.046   5.544   3.053  0.9222  0.0236  1.4196
 6199TIP3    H240089   3.059   5.657   2.954 -0.3223 -0.8438  0.2294
 6200TIP3   OH240090   5.625   6.795  13.005 -0.3386  0.0572  0.1299
 6200TIP3    H140091   5.630   6.719  12.946 -1.5144  1.0561 -1.3509
 6200TIP3    H240092   5.580   6.762  13.083 -0.2575 -0.9252 -0.2253
 6201TIP3   OH240093   5.574   0.909   1.471  0.3783  0.2568 -0.1997
 6201TIP3    H140094   5.510   0.979   1.467  0.3969  0.3205  0.4913
 6201TIP3    H240095   5.639   0.940   1.534  0.6221 -0.1866 -0.2293
 6202TIP3   OH240096   6.762   1.619  15.250 -0.7138  0.6668  0.8377
 6202TIP3    H140097   6.768   1.714  15.266 -0.3727  0.4928  1.7935
 6202TIP3    H240098   6.759   1.580  15.337  0.3524 -0.2750  0.4831
 6203TIP3   OH240099   6.536   1.912  14.592  0.1156 -0.5064  0.0730
 6203TIP3    H140100   6.445   1.939  14.576  0.7106  1.0186 -1.0154
 6203TIP3    H240101   6.530   1.847  14.662 -1.9844 -1.8457 -1.2419
 6204TIP3   OH240102   3.283   2.740  15.558 -0.1959  0.1672 -0.1917
 6204TIP3    H140103   3.317   2.663  15.512 -0.8058  0.8177 -1.7982
 6204TIP3    H240104   3.246   2.795  15.489 -1.5332  1.0098  1.1437
 6205TIP3   OH240105   0.714   2.366  13.031  0.2108 -0.0716 -0.4799
 6205TIP3    H140106   0.709   2.394  13.123  0.6258  0.8781 -0.7412
 6205TIP3    H240107   0.653   2.424  12.985  0.7764  0.1438 -0.9652
 6206TIP3   OH240108   3.455   4.905  16.745 -0.3799  0.3319 -0.0435
 6206TIP3    H140109   3.397   4.942  16.811 -0.1644 -0.4650  0.6014
 6206TIP3    H240110   3.397   4.883  16.672 -0.7224  0.5424  0.1639
 6207TIP3   OH240111   4.269   0.955  15.800 -0.4577 -0.3098  0.3630
 6207TIP3    H140112   4.213   0.937  15.725 -1.1474 -2.2996  1.2719
 6207TIP3    H240113   4.268   0.873  15.851 -0.7308  1.1904  2.9583
 6208TIP3   OH240114   1.992   1.986   3.206  0.0573  0.1922  0.3717
 6208TIP3    H140115   2.073   1.936   3.190 -0.2562  0.0470 -0.8534
 6208TIP3    H240116   1.936   1.925   3.254  0.3521 -0.0178  0.4532
 6209TIP3   OH240117   5.416   1.764   5.382 -0.5082 -0.0471  0.2162
 6209TIP3    H140118   5.420   1.669   5.385 -1.9434 -0.1100  0.4540
 6209TIP3    H240119   5.380   1.784   5.295  0.9731  0.3515 -0.3519
 6210TIP3   OH240120   5.363   0.159   3.390 -0.4526  0.2511  0.4001
 6210TIP3    H140121   5.272   0.149   3.419 -0.2870  0.0993  0.8625
 6210TIP3    H240122   5.406   0.078   3.416 -0.1340  0.4087  0.3690
 6211TIP3   OH240123   2.008   5.510   5.478 -0.0223  0.5312 -0.0565
 6211TIP3    H140124   1.964   5.462   5.408  2.8908 -1.2407 -0.8514
 6211TIP3    H240125   1.990   5.458   5.557 -0.3204  0.5138 -0.1331
 6212TIP3   OH240126   4.369   3.485  13.480  0.0172  0.3254 -0.3804
 6212TIP3    H140127   4.384   3.511  13.571 -0.1269  0.1270 -0.2990
 6212TIP3    H240128   4.318   3.404  13.486 -0.7659  0.7896 -0.6403
 6213TIP3   OH240129   4.743   6.517   1.998  0.0422  0.0886  0.5619
 6213TIP3    H140130   4.782   6.563   2.072  1.9702 -0.3605 -0.1333
 6213TIP3    H240131   4.667   6.571   1.974 -0.0618  0.7369  2.2503
 6214TIP3   OH240132   0.563   0.512   3.721  0.0050  0.7950  0.1495
 6214TIP3    H140133   0.627   0.540   3.786  1.0074  0.2853 -0.5906
 6214TIP3    H240134   0.546   0.420   3.742 -1.3302  1.1907  0.9924
 6215TIP3   OH240135   2.597   3.879   0.075 -0.0981 -0.4387  0.2431
 6215TIP3    H140136   2.677   3.925   0.051 -0.0969  0.0990  1.2213
 6215TIP3    H240137   2.605   3.793   0.034 -0.2324  0.5039 -1.8895
 6216TIP3   OH240138   2.277   0.460  15.133  0.5280 -0.0895 -0.2496
 6216TIP3    H140139   2.244   0.393  15.192  2.1007  0.3063  1.1230
 6216TIP3    H240140   2.267   0.542  15.181  0.8702  0.3762 -0.9523
 6217TIP3   OH240141   5.302   3.512   2.296 -0.3371 -0.6472  0.5658
 6217TIP3    H140142   5.272   3.487   2.383  0.0011 -2.3420  0.2421
 6217TIP3    H240143   5.388   3.470   2.288  0.7749  1.5531  0.3333
 6218TIP3   OH240144   0.001   2.206  11.797 -0.2894 -0.6288 -0.4380
 6218TIP3    H140145  -0.088   2.189  11.828 -0.2427  2.3387  1.7707
 6218TIP3    H240146   0.057   2.170  11.865 -0.0474  1.8280  0.7769
 6219TIP3   OH240147   1.152   0.849  16.734  0.0829  0.3015 -0.4250
 6219TIP3    H140148   1.136   0.837  16.640  1.8681 -1.5358 -0.5635
 6219TIP3    H240149   1.247   0.852  16.742 -0.0300  0.2217  1.3457
 6220TIP3   OH240150   0.092   4.367  11.252  0.2821  0.1901 -0.1076
 6220TIP3    H140151   0.140   4.445  11.225 -0.4223  0.2989 -1.0891
 6220TIP3    H240152   0.082   4.316  11.171  1.0248 -1.0946  0.5660
 6221TIP3   OH240153   3.186   6.395   2.087 -0.0502  0.0510 -0.0426
 6221TIP3    H140154   3.178   6.482   2.126 -0.4967  0.6172 -1.3246
 6221TIP3    H240155   3.259   6.354   2.133  0.8105  1.4772 -0.0741
 6222TIP3   OH240156   1.043   2.765   6.207  0.0056 -0.3037  0.6055
 6222TIP3    H140157   1.047   2.672   6.227  2.6792 -0.5470 -0.5739
 6222TIP3    H240158   1.013   2.806   6.288  1.4542 -1.9719  2.0859
 6223TIP3   OH240159   1.232   2.071   2.985 -0.1730 -0.7121  0.6353
 6223TIP3    H140160   1.222   1.976   2.975  0.3467 -0.6641 -0.6347
 6223TIP3    H240161   1.145   2.107   2.967 -0.1969 -0.9180  0.3210
 6224TIP3   OH240162   0.762   3.817   3.309 -0.1184 -0.0892 -0.4391
 6224TIP3    H140163   0.789   3.895   3.259 -0.7297  0.5432  0.1860
 6224TIP3    H240164   0.820   3.748   3.278  0.7588  0.7220 -0.6773
 6225TIP3   OH240165   4.045   2.745   4.261  0.1368  0.0056 -0.0311
 6225TIP3    H140166   4.095   2.812   4.308  1.0886 -0.5931 -0.1532
 6225TIP3    H240167   3.965   2.790   4.233 -0.1896  0.5405  1.6174
 6226TIP3   OH240168   2.361   2.429  15.407  0.4735  0.1767 -0.2138
 6226TIP3    H140169   2.319   2.475  15.335  0.9601 -0.5998 -1.0069
 6226TIP3    H240170   2.292   2.418  15.473 -0.3284 -0.2874 -1.1149
 6227TIP3   OH240171   3.239   4.487  11.505 -0.1845  0.0184  0.0136
 6227TIP3    H140172   3.248   4.524  11.417  0.9138  0.3419  0.2521
 6227TIP3    H240173   3.324   4.502  11.546  0.9948 -4.2196 -0.4111
 6228TIP3   OH240174   2.843   2.557  12.650 -0.2296  0.1521 -0.6292
 6228TIP3    H140175   2.813   2.466  12.651  1.5303 -0.4790 -0.5324
 6228TIP3    H240176   2.766   2.608  12.625 -1.1350 -1.4083 -1.1591
 6229TIP3   OH240177   5.910   1.802   1.434 -0.0471  0.3263 -0.6608
 6229TIP3    H140178   5.962   1.863   1.382  1.9043 -1.1737 -0.5738
 6229TIP3    H240179   5.862   1.858   1.495  1.3681  1.8057 -0.8280
 6230TIP3   OH240180   4.896   4.359  12.738  1.0223 -0.1172 -0.1709
 6230TIP3    H140181   4.804   4.331  12.738  0.0883  2.5602  1.5605
 6230TIP3    H240182   4.944   4.283  12.772 -0.7358 -1.0879  0.2896
 6231TIP3   OH240183   5.877   4.149   2.713 -0.3722 -0.1607 -0.3671
 6231TIP3    H140184   5.888   4.238   2.745  1.2115 -0.5319  0.2499
 6231TIP3    H240185   5.889   4.094   2.791  1.2317 -0.9919 -1.1466
 6232TIP3   OH240186   3.320   6.021   4.377  0.4032 -0.1571  0.2817
 6232TIP3    H140187   3.282   6.080   4.311  0.1614  0.3286  0.8484
 6232TIP3    H240188   3.333   5.939   4.330  0.5278  0.2742 -0.4632
 6233TIP3   OH240189   2.351   2.896   1.765  0.1647  0.6199 -0.7142
 6233TIP3    H140190   2.304   2.841   1.828  1.6546 -0.4798 -0.4931
 6233TIP3    H240191   2.437   2.854   1.756  0.2763  1.1570 -2.9127
 6234TIP3   OH240192   0.009   0.387   5.946  0.4364 -0.0993 -0.0725
 6234TIP3    H140193  -0.025   0.466   5.988  0.9223 -0.2543  0.6211
 6234TIP3    H240194  -0.063   0.324   5.955  0.3050  0.0554 -0.0188
 6235TIP3   OH240195   5.310   4.387  16.408 -0.0175  0.1511  0.2525
 6235TIP3    H140196   5.275   4.319  16.465  0.6377 -0.0584  0.4171
 6235TIP3    H240197   5.297   4.353  16.319 -2.1754  1.0296  0.1939
 6236TIP3   OH240198   5.697   5.656   1.952  0.0384 -0.3845 -0.6203
 6236TIP3    H140199   5.692   5.624   2.042  0.0196 -0.3137 -0.5960
 6236TIP3    H240200   5.785   5.692   1.944  0.2039 -0.8170 -0.7740
 6237TIP3   OH240201   6.190   6.073   6.222 -0.9315 -0.4279 -0.1238
 6237TIP3    H140202   6.269   6.123   6.243 -0.2988 -1.1225 -0.7774
 6237TIP3    H240203   6.196   5.994   6.276 -1.7232  0.0052  0.6116
 6238TIP3   OH240204   5.794   1.349  14.100  0.0865  0.3286 -0.0206
 6238TIP3    H140205   5.770   1.261  14.129 -1.5141  0.6461 -0.2753
 6238TIP3    H240206   5.843   1.335  14.019 -1.4204 -0.3076 -0.8661
 6239TIP3   OH240207   4.976   5.831  12.999 -0.6312 -0.0692 -0.3925
 6239TIP3    H140208   4.962   5.830  13.093 -0.2872 -1.7657 -0.3312
 6239TIP3    H240209   5.055   5.779  12.986 -0.5068  0.3908 -1.6004
 6240TIP3   OH240210   3.377   4.095   3.706 -0.3196 -0.1114 -0.0222
 6240TIP3    H140211   3.450   4.133   3.753 -0.3007  0.4806 -0.5130
 6240TIP3    H240212   3.346   4.166   3.649  1.3944 -1.5264 -2.9578
 6241TIP3   OH240213   4.808   6.524  13.182 -0.0858 -0.0601  0.4325
 6241TIP3    H140214   4.733   6.564  13.226  1.1237  0.2172  2.3143
 6241TIP3    H240215   4.883   6.547  13.236  1.3475 -0.5570 -1.2694
 6242TIP3   OH240216   0.639   0.512   6.077  0.7036 -0.5189  0.6678
 6242TIP3    H140217   0.698   0.459   6.130 -0.1096 -1.0352  1.0657
 6242TIP3    H240218   0.552   0.476   6.094 -0.1545  2.1240  2.4308
 6243TIP3   OH240219   2.072   5.498   1.741 -0.2067  0.4005 -0.2082
 6243TIP3    H140220   1.981   5.478   1.720  0.6028 -1.1908 -2.6607
 6243TIP3    H240221   2.103   5.421   1.789 -0.0205  0.7308  0.2080
 6244TIP3   OH240222   6.642   0.980  10.449 -0.3884 -0.2201  0.4426
 6244TIP3    H140223   6.673   1.069  10.467  0.3525 -0.1147 -1.1294
 6244TIP3    H240224   6.639   0.976  10.353  0.0319 -2.0321  0.4821
 6245TIP3   OH240225   6.815   2.341   1.803  0.4227  0.1134 -0.0562
 6245TIP3    H140226   6.903   2.305   1.793  0.6843  1.1495 -1.7038
 6245TIP3    H240227   6.821   2.397   1.880  1.2556  0.3224 -0.2666
 6246TIP3   OH240228   4.704   6.091   4.325  0.0428  0.1298 -0.1706
 6246TIP3    H140229   4.646   6.097   4.400  1.5066  0.6695  0.9635
 6246TIP3    H240230   4.790   6.117   4.358  0.4746  1.7609 -2.3324
 6247TIP3   OH240231   1.306   2.341   4.262  0.1045 -0.4494 -0.2602
 6247TIP3    H140232   1.399   2.324   4.275  0.4457  0.9916 -0.6550
 6247TIP3    H240233   1.303   2.393   4.181 -1.0876 -0.8824 -0.5084
 6248TIP3   OH240234   5.879   3.793  16.100 -0.4991 -0.1315 -0.0094
 6248TIP3    H140235   5.877   3.776  16.194  0.0523  1.8077  0.3995
 6248TIP3    H240236   5.902   3.709  16.061 -0.9043 -1.0194  1.5631
 6249TIP3   OH240237   2.532   4.827   2.237 -0.3482  0.3266  0.7038
 6249TIP3    H140238   2.476   4.876   2.297 -0.1320  0.7181  0.5973
 6249TIP3    H240239   2.606   4.886   2.222 -0.6068  0.4103 -0.2812
 6250TIP3   OH240240   4.852   0.671   5.378  0.2315 -0.0483 -0.7367
 6250TIP3    H140241   4.887   0.583   5.391 -2.7798 -1.1796  0.7412
 6250TIP3    H240242   4.850   0.710   5.466  0.9119  1.2821 -1.2777
 6251TIP3   OH240243   5.740   5.949   0.986  0.0134  0.3518  0.1021
 6251TIP3    H140244   5.691   6.004   0.924 -3.2903  0.1784  2.3154
 6251TIP3    H240245   5.815   6.004   1.011 -0.9460  2.2003 -0.8164
 6252TIP3   OH240246   4.231   3.124  11.206  0.9611 -0.7590 -0.2548
 6252TIP3    H140247   4.243   3.219  11.209  0.0320 -0.6699  1.0228
 6252TIP3    H240248   4.228   3.103  11.112 -1.2130  0.7957 -0.6031
 6253TIP3   OH240249   6.215   3.370   3.137  0.0036  0.2587  0.3553
 6253TIP3    H140250   6.197   3.308   3.208  0.8874  0.9101  1.1680
 6253TIP3    H240251   6.255   3.316   3.068  1.6537  0.0405  1.4281
 6254TIP3   OH240252   5.422   2.363   5.303 -0.6829 -0.3987 -0.0704
 6254TIP3    H140253   5.400   2.278   5.343  0.3562 -0.1094  1.1860
 6254TIP3    H240254   5.513   2.354   5.275  0.2783  0.9930  2.2463
 6255TIP3   OH240255   3.046   5.255   4.839  0.2348 -0.1023 -0.0988
 6255TIP3    H140256   3.028   5.275   4.747 -2.1539  0.0142  0.3378
 6255TIP3    H240257   3.141   5.263   4.847  0.3744  1.1249 -2.2583
 6256TIP3   OH240258   1.196   1.366   0.210  0.4827  0.0500  0.4230
 6256TIP3    H140259   1.247   1.431   0.258  0.7374 -0.3219  0.6550
 6256TIP3    H240260   1.261   1.309   0.169  0.2829  0.5835 -0.6860
 6257TIP3   OH240261   6.281   6.788   5.962  0.2075  0.2120  0.0777
 6257TIP3    H140262   6.305   6.790   5.870  0.2783 -0.1482  0.0887
 6257TIP3    H240263   6.210   6.853   5.970  0.5989  0.6696 -0.1137
 6258TIP3   OH240264   4.918   6.613   3.766 -0.0716 -0.5669  0.0773
 6258TIP3    H140265   4.885   6.667   3.695  0.6332  0.8106  0.7573
 6258TIP3    H240266   4.970   6.546   3.723  2.0022  1.4036 -0.6854
 6259TIP3   OH240267   4.246   0.589  15.580 -0.2599 -0.2678 -0.2348
 6259TIP3    H140268   4.241   0.565  15.487 -3.3295 -1.8086  0.1976
 6259TIP3    H240269   4.176   0.653  15.591 -0.2289 -0.4466  1.1155
 6260TIP3   OH240270   1.567   3.147  15.670  0.7317  0.3137 -0.2280
 6260TIP3    H140271   1.503   3.174  15.736  0.3144  0.5582 -0.7269
 6260TIP3    H240272   1.567   3.217  15.605  2.2859  0.8175  0.2909
 6261TIP3   OH240273   6.466   0.985   1.819  0.6891  0.6884  0.0892
 6261TIP3    H140274   6.457   1.073   1.854 -0.3954  0.9356 -0.7582
 6261TIP3    H240275   6.480   0.930   1.896 -1.1386  1.2808  0.8804
 6262TIP3   OH240276   1.333   4.366  12.689 -0.0124  0.0043  0.3654
 6262TIP3    H140277   1.272   4.315  12.742  0.5144 -0.7542  0.2678
 6262TIP3    H240278   1.297   4.455  12.689 -0.4834 -0.1742  1.2626
 6263TIP3   OH240279   4.297   4.615   5.638  0.4087  0.2912 -0.1528
 6263TIP3    H140280   4.322   4.564   5.561  0.0430  0.0168 -0.0977
 6263TIP3    H240281   4.380   4.641   5.678  0.6088  0.7872 -0.8598
 6264TIP3   OH240282   4.161   0.585  11.102  0.1548 -0.0695  0.1764
 6264TIP3    H140283   4.222   0.557  11.033 -0.8107 -2.1216  0.0818
 6264TIP3    H240284   4.079   0.540  11.081 -1.3096  2.2150  0.5833
 6265TIP3   OH240285   5.587   1.376  13.502 -0.5691  0.4898  0.6022
 6265TIP3    H140286   5.609   1.462  13.537 -0.9074  0.5577  0.6539
 6265TIP3    H240287   5.671   1.335  13.482 -0.4157  0.9494  0.2981
 6266TIP3   OH240288   4.879   4.150   0.104 -0.0403  0.8366  0.1576
 6266TIP3    H140289   4.800   4.147   0.158  0.2642 -1.7310  0.5961
 6266TIP3    H240290   4.946   4.108   0.157  0.8429  0.2526 -1.3596
 6267TIP3   OH240291   1.161   2.876   4.216  0.0114  0.6892 -0.9838
 6267TIP3    H140292   1.104   2.847   4.287 -0.7580  0.9465 -1.4775
 6267TIP3    H240293   1.102   2.888   4.142  1.0113 -1.0890 -2.1339
 6268TIP3   OH240294   6.375   1.782   1.957  0.2788 -0.7714  0.5056
 6268TIP3    H140295   6.309   1.839   1.997  0.5301 -0.6982  0.8278
 6268TIP3    H240296   6.405   1.831   1.881 -0.5798 -1.1429 -0.0832
 6269TIP3   OH240297   1.008   4.474  12.808  0.2133  0.3379 -0.6222
 6269TIP3    H140298   1.041   4.563  12.797  1.5115  0.2168  1.7585
 6269TIP3    H240299   0.942   4.481  12.877  1.1878 -0.6921  0.4525
 6270TIP3   OH240300   4.486   2.082  17.231 -0.1396  0.1372 -0.1024
 6270TIP3    H140301   4.517   2.004  17.186  0.3283  0.4707 -0.3767
 6270TIP3    H240302   4.391   2.078  17.224 -0.3228 -1.8093  2.2556
 6271TIP3   OH240303   4.789   0.304  16.252  0.1702 -0.1252  0.6197
 6271TIP3    H140304   4.788   0.395  16.223 -0.4584 -0.2874  0.1084
 6271TIP3    H240305   4.796   0.308  16.347  1.3545  0.4365  0.5295
 6272TIP3   OH240306   6.183   2.103   0.838  0.1571  0.1119  0.2533
 6272TIP3    H140307   6.138   2.027   0.801  1.8451 -0.7435 -0.1041
 6272TIP3    H240308   6.258   2.067   0.884  1.0542  1.5686 -0.0036
 6273TIP3   OH240309   5.603   6.027   0.203  0.6167  0.5053 -0.4885
 6273TIP3    H140310   5.691   6.034   0.167  0.8911  1.0718  0.2569
 6273TIP3    H240311   5.590   6.110   0.250 -1.3612  1.6431 -2.8617
 6274TIP3   OH240312   2.539   5.390   1.679 -0.3394  0.3285  0.3913
 6274TIP3    H140313   2.489   5.309   1.694  1.6687 -1.2087 -0.6193
 6274TIP3    H240314   2.510   5.449   1.748 -1.6042 -1.4032  1.4362
 6275TIP3   OH240315   1.303   3.350  13.815 -0.3024 -0.2378  0.0608
 6275TIP3    H140316   1.301   3.256  13.796  1.1184 -0.4691  0.9303
 6275TIP3    H240317   1.331   3.355  13.906 -0.8108  1.0244  0.1572
 6276TIP3   OH240318   0.045   2.967   2.114 -0.0072  0.2055 -0.4551
 6276TIP3    H140319   0.013   2.999   2.199  0.5311 -0.0169 -0.1636
 6276TIP3    H240320   0.009   3.028   2.050  0.0213  0.6857 -0.0180
 6277TIP3   OH240321   4.819   0.326   6.682 -0.7314  0.9789 -0.1221
 6277TIP3    H140322   4.758   0.343   6.611 -0.2484  0.5148 -0.6584
 6277TIP3    H240323   4.901   0.367   6.653 -0.4987  0.6863  0.1093
 6278TIP3   OH240324   1.709   0.379   3.640 -0.6267 -0.2153  0.4458
 6278TIP3    H140325   1.692   0.288   3.616 -1.5962  0.5596 -2.0445
 6278TIP3    H240326   1.779   0.407   3.581  0.4329  0.3888  1.9171
 6279TIP3   OH240327   6.586   4.637  15.810  0.3720  0.2521  0.0675
 6279TIP3    H140328   6.560   4.631  15.902 -0.5336  1.4975 -0.0713
 6279TIP3    H240329   6.597   4.731  15.794  1.8545 -0.0324 -0.7574
 6280TIP3   OH240330   3.523   2.265  11.513 -0.2682  0.0356 -0.1267
 6280TIP3    H140331   3.499   2.209  11.588 -0.5095  0.2938 -0.0116
 6280TIP3    H240332   3.596   2.318  11.546 -0.2152 -0.0216 -0.1517
 6281TIP3   OH240333   3.926   6.555  10.699 -0.3801 -0.2387 -0.1640
 6281TIP3    H140334   3.913   6.495  10.626 -0.5644 -0.9079  0.4180
 6281TIP3    H240335   3.957   6.500  10.771 -1.5659  0.1747  0.6967
 6282TIP3   OH240336   5.354   6.605   2.471  0.2381 -0.1241  0.3708
 6282TIP3    H140337   5.358   6.701   2.477  0.6924  0.1496 -2.6630
 6282TIP3    H240338   5.406   6.575   2.545 -0.5129  1.9383  1.8366
 6283TIP3   OH240339   1.143   5.785  11.309 -0.4040 -0.3777  0.1673
 6283TIP3    H140340   1.208   5.749  11.248  0.1476 -0.6099  0.8844
 6283TIP3    H240341   1.153   5.732  11.388 -2.0238 -0.9480  0.0202
 6284TIP3   OH240342   0.930   0.768   4.651  0.1496 -1.0735 -0.4311
 6284TIP3    H140343   0.972   0.848   4.620 -0.6511 -0.7655 -0.7465
 6284TIP3    H240344   0.992   0.698   4.630  0.3089 -0.6840 -1.2837
 6285TIP3   OH240345   0.909   4.892   5.406 -0.1991  0.2165  0.2826
 6285TIP3    H140346   0.898   4.855   5.493  2.4478 -1.1745  0.1429
 6285TIP3    H240347   0.959   4.973   5.421 -1.5079  1.0628  0.1826
 6286TIP3   OH240348   4.081   5.128   4.968  0.4364  0.5584 -0.1061
 6286TIP3    H140349   4.105   5.039   4.943  0.4847  0.8190 -1.0068
 6286TIP3    H240350   4.057   5.121   5.060 -0.5100 -0.5764 -0.4175
 6287TIP3   OH240351   5.986   4.832   0.773 -0.0094 -0.1217 -0.3685
 6287TIP3    H140352   5.898   4.862   0.796 -0.6478 -1.3164 -1.1270
 6287TIP3    H240353   5.991   4.743   0.808  1.1821  0.1984  0.3201
 6288TIP3   OH240354   4.045   2.460  14.032 -0.3623  0.4042  0.1433
 6288TIP3    H140355   3.960   2.504  14.026 -0.5054  0.0122 -0.9500
 6288TIP3    H240356   4.033   2.379  13.982  0.9120  0.7581 -0.7628
 6289TIP3   OH240357   6.482   3.434  11.766  0.1485 -0.4700 -0.0176
 6289TIP3    H140358   6.543   3.449  11.838 -0.4978  0.1479  0.4086
 6289TIP3    H240359   6.398   3.418  11.809 -0.3254  0.2974 -0.6441
 6290TIP3   OH240360   2.639   2.617  15.869  0.3720 -0.1417  0.1265
 6290TIP3    H140361   2.619   2.536  15.822  0.5653  0.5362 -1.1571
 6290TIP3    H240362   2.718   2.651  15.828 -0.6548  1.5820 -0.5583
 6291TIP3   OH240363   5.211   2.205   2.660  0.5987  0.4665 -0.3505
 6291TIP3    H140364   5.179   2.126   2.616  4.6103 -0.5332 -1.9604
 6291TIP3    H240365   5.153   2.275   2.630 -2.3336 -1.5719  0.1492
 6292TIP3   OH240366   0.066   5.715  16.525 -0.0581  0.3532 -0.1304
 6292TIP3    H140367   0.012   5.743  16.599  0.0855  0.0465  0.0919
 6292TIP3    H240368   0.048   5.780  16.457  0.7019  1.3212  0.5686
 6293TIP3   OH240369   5.687   4.592   0.621  0.0183  0.3786 -0.0675
 6293TIP3    H140370   5.735   4.584   0.539 -1.4059 -0.8265 -0.8376
 6293TIP3    H240371   5.624   4.662   0.605 -1.1181 -0.7074 -0.4882
 6294TIP3   OH240372   0.360   2.659   6.067  0.4792  0.3707 -0.1893
 6294TIP3    H140373   0.312   2.671   6.149  2.6510  1.2025  1.0173
 6294TIP3    H240374   0.355   2.744   6.023 -0.7754 -0.1034 -1.0327
 6295TIP3   OH240375   2.125   5.697  15.243 -0.5829 -0.2134  0.1302
 6295TIP3    H140376   2.033   5.703  15.217 -0.1721 -1.3280 -1.7309
 6295TIP3    H240377   2.167   5.769  15.196 -0.2262 -0.7687 -0.4085
 6296TIP3   OH240378   2.582   6.782  14.632  0.8548 -0.7103 -0.0025
 6296TIP3    H140379   2.606   6.867  14.596  2.2313 -0.5002  1.3240
 6296TIP3    H240380   2.665   6.735  14.643  0.3834 -1.2553  1.5894
 6297TIP3   OH240381   5.261   3.640  11.513  0.0239  0.2130 -0.5471
 6297TIP3    H140382   5.216   3.566  11.554  2.1874 -0.8351  0.0596
 6297TIP3    H240383   5.308   3.682  11.585  0.9690  0.5537 -1.3536
 6298TIP3   OH240384   3.663   4.124   4.689  0.0614 -0.1125 -0.1701
 6298TIP3    H140385   3.751   4.151   4.663  0.3204 -0.0230  0.7521
 6298TIP3    H240386   3.608   4.201   4.674  0.1011 -0.2106 -0.8741
 6299TIP3   OH240387   2.345   0.395   2.602  0.7116  0.1273  0.0580
 6299TIP3    H140388   2.347   0.300   2.612 -1.0078  0.2286  2.2083
 6299TIP3    H240389   2.354   0.429   2.691  2.9446  2.1046 -0.7865
 6300TIP3   OH240390   1.373   4.763   2.479 -0.4702  0.2151  0.6694
 6300TIP3    H140391   1.416   4.785   2.397 -1.0065 -0.0535  0.3039
 6300TIP3    H240392   1.298   4.822   2.483 -1.2510 -0.7087  0.2546
 6301TIP3   OH240393   5.216   1.076   0.912  0.2529 -0.3220 -0.1212
 6301TIP3    H140394   5.230   1.162   0.873  0.2398 -0.3308 -0.1459
 6301TIP3    H240395   5.121   1.072   0.926  0.3570  0.0414  0.7528
 6302TIP3   OH240396   4.412   6.182  16.818 -0.5482 -0.3007 -0.3189
 6302TIP3    H140397   4.335   6.185  16.761 -0.5168  0.2505 -0.3297
 6302TIP3    H240398   4.381   6.216  16.902 -1.3089 -3.4907  0.8560
 6303TIP3   OH240399   3.262   2.712  11.536 -0.3184  0.5212 -0.6720
 6303TIP3    H140400   3.281   2.630  11.491  3.4316  0.8827 -0.0825
 6303TIP3    H240401   3.330   2.772  11.506 -1.6286  2.7555  0.5761
 6304TIP3   OH240402   4.339   3.440  14.649  0.5437 -0.7509 -0.7135
 6304TIP3    H140403   4.389   3.393  14.582  0.6055 -0.6762 -0.7190
 6304TIP3    H240404   4.250   3.408  14.638 -0.1107  1.4854 -2.8653
 6305TIP3   OH240405   3.812   4.320  14.075  0.3801 -0.1869  0.4176
 6305TIP3    H140406   3.901   4.284  14.080  0.3123 -0.3513  0.4587
 6305TIP3    H240407   3.825   4.414  14.068  0.7682 -0.3620 -4.5366
 6306TIP3   OH240408   4.888   2.739  12.503  0.2313 -0.0421  0.8566
 6306TIP3    H140409   4.880   2.723  12.409 -2.6860  0.4803  0.9402
 6306TIP3    H240410   4.885   2.652  12.542 -0.8888 -0.1566  0.5558
 6307TIP3   OH240411   4.088   3.934  17.056 -0.1319 -0.3079  0.3522
 6307TIP3    H140412   4.035   3.865  17.097  0.4669  0.7679  3.1511
 6307TIP3    H240413   4.178   3.910  17.076  0.3374 -0.5995 -1.8928
 6308TIP3   OH240414   3.792   3.009   2.373 -0.1269 -0.3016  0.0483
 6308TIP3    H140415   3.740   3.030   2.296 -0.5105  0.1197  0.4127
 6308TIP3    H240416   3.737   3.037   2.447  0.1037 -0.9616  0.4856
 6309TIP3   OH240417   1.275   1.165   2.487  1.0207  0.0504  0.2432
 6309TIP3    H140418   1.217   1.219   2.541  2.2035  0.9062  0.7027
 6309TIP3    H240419   1.216   1.118   2.428 -0.0839  1.5814  0.0722
 6310TIP3   OH240420   0.019   6.190   1.603  0.1973 -0.4067 -0.0368
 6310TIP3    H140421  -0.014   6.211   1.516 -2.1265 -2.1904  0.3321
 6310TIP3    H240422  -0.059   6.173   1.656  1.6019 -2.8891  1.4556
 6311TIP3   OH240423   6.125   4.997   5.990  0.3471  0.6204  0.3348
 6311TIP3    H140424   6.062   5.065   5.966 -0.9537 -0.4950  0.4476
 6311TIP3    H240425   6.097   4.969   6.077  0.3183 -0.6274 -0.0548
 6312TIP3   OH240426   5.839   2.887  11.444  0.1858  0.0493  0.2641
 6312TIP3    H140427   5.839   2.792  11.455 -1.9428 -0.3786 -2.4924
 6312TIP3    H240428   5.890   2.902  11.365 -0.3029  1.0914  0.1321
 6313TIP3   OH240429   1.228   4.170  11.659  0.2287  0.7050 -0.1768
 6313TIP3    H140430   1.242   4.127  11.575  0.2985 -0.0836  0.2306
 6313TIP3    H240431   1.165   4.239  11.640 -0.6555 -0.2096 -0.6562
 6314TIP3   OH240432   5.035   0.645   6.677  0.0895  0.1481  0.7335
 6314TIP3    H140433   5.027   0.594   6.757 -0.0437  0.7627  1.1201
 6314TIP3    H240434   5.019   0.736   6.705  1.1462  0.5117  0.2171
 6315TIP3   OH240435   3.358   0.860  15.445 -0.2920 -0.6112 -0.0612
 6315TIP3    H140436   3.271   0.899  15.436  0.1777  0.5370  0.1239
 6315TIP3    H240437   3.387   0.844  15.356 -0.4044 -0.3205 -0.1491
 6316TIP3   OH240438   1.013   2.795  16.640  0.1898 -0.5427  0.6383
 6316TIP3    H140439   0.920   2.793  16.616  0.1883 -0.3571  0.6250
 6316TIP3    H240440   1.034   2.705  16.664 -0.5475 -0.2076  2.7097
 6317TIP3   OH240441   2.542   0.430  15.698 -1.2683 -0.8013  0.4591
 6317TIP3    H140442   2.583   0.497  15.754 -0.7218 -0.9668  0.2611
 6317TIP3    H240443   2.489   0.481  15.636 -1.2704 -0.5785  0.6400
 6318TIP3   OH240444   5.793   4.283  12.017  0.2076  0.0217 -0.3805
 6318TIP3    H140445   5.799   4.372  11.984  1.3867  0.4334  0.9030
 6318TIP3    H240446   5.699   4.270  12.034  0.0651  1.0907 -0.3366
 6319TIP3   OH240447   4.748   0.910   4.326 -0.5391 -0.2448 -0.2241
 6319TIP3    H140448   4.735   0.898   4.420 -0.1841  1.4826  0.0721
 6319TIP3    H240449   4.838   0.939   4.317 -0.7939  0.3385 -1.0275
 6320TIP3   OH240450   2.899   5.743  11.559  0.1575  0.3665  0.4841
 6320TIP3    H140451   2.938   5.730  11.645 -2.7270  1.2096  2.0456
 6320TIP3    H240452   2.930   5.829  11.531  2.4620 -0.6175 -0.1826
 6321TIP3   OH240453   0.368   2.927  14.737  0.1115 -1.0019 -0.5754
 6321TIP3    H140454   0.427   2.960  14.669  0.5216  0.3524  0.3733
 6321TIP3    H240455   0.300   2.879  14.690 -0.2961  0.9064 -2.0456
 6322TIP3   OH240456   6.388   6.408   2.991  0.5142  0.3292  0.1028
 6322TIP3    H140457   6.478   6.405   3.022  0.3349  1.0543  0.7447
 6322TIP3    H240458   6.394   6.440   2.901  0.9127  0.0775  0.0376
 6323TIP3   OH240459   6.764   4.607  16.736 -0.3134  0.2536  0.1770
 6323TIP3    H140460   6.705   4.647  16.672 -1.4513  0.3189  1.2297
 6323TIP3    H240461   6.845   4.658  16.730 -0.4951  0.4371 -0.9887
 6324TIP3   OH240462   1.126   2.132  12.364  0.9986  0.4883 -0.4275
 6324TIP3    H140463   1.030   2.138  12.359  1.0914  2.0913 -0.8176
 6324TIP3    H240464   1.149   2.175  12.446  1.3102 -1.3860  0.5176
 6325TIP3   OH240465   2.640   0.386   3.554 -0.0248  0.1068  0.1547
 6325TIP3    H140466   2.646   0.293   3.576  0.2850  0.2401  0.6565
 6325TIP3    H240467   2.682   0.430   3.627  1.1023  0.5662 -0.7259
 6326TIP3   OH240468   3.180   2.581  12.059  0.2497  0.1695  0.2108
 6326TIP3    H140469   3.242   2.638  12.013 -1.9099  1.6943 -1.0164
 6326TIP3    H240470   3.160   2.512  11.997 -0.4983  0.6228 -0.0715
 6327TIP3   OH240471   4.467   5.698   4.770 -0.3874  0.4368 -0.4220
 6327TIP3    H140472   4.413   5.684   4.848  1.2777  2.3959  1.2053
 6327TIP3    H240473   4.522   5.620   4.764 -0.8013  0.1006  0.1027
 6328TIP3   OH240474   0.881   4.754   1.522  0.0627 -0.0882 -0.3044
 6328TIP3    H140475   0.804   4.811   1.518 -0.3934 -0.6389  0.4647
 6328TIP3    H240476   0.883   4.711   1.436 -1.6048 -1.4905  0.3084
 6329TIP3   OH240477   3.369   6.472   3.344  0.5441 -0.0817  0.6336
 6329TIP3    H140478   3.448   6.433   3.380  0.0140 -0.6410  1.2267
 6329TIP3    H240479   3.389   6.485   3.251  1.1413 -0.7159  0.6602
 6330TIP3   OH240480   6.278   1.414   3.752 -0.6326 -0.1956 -0.4254
 6330TIP3    H140481   6.328   1.334   3.737  1.5068  1.0632 -0.4975
 6330TIP3    H240482   6.256   1.412   3.845  2.0843  0.4658  0.3417
 6331TIP3   OH240483   0.971   3.816   0.249 -0.1546  0.4773  1.1970
 6331TIP3    H140484   0.882   3.837   0.220  0.3058  0.8184 -0.0191
 6331TIP3    H240485   1.005   3.899   0.281  0.5725  0.9709 -0.6948
 6332TIP3   OH240486   5.993   4.533  14.212  0.1839  0.1724  0.1710
 6332TIP3    H140487   6.014   4.581  14.291  0.1068 -2.0995  1.6669
 6332TIP3    H240488   5.998   4.598  14.142  1.2195  2.0463  1.8856
 6333TIP3   OH240489   1.097   4.535  13.993 -0.5774  0.9220 -0.0910
 6333TIP3    H140490   1.071   4.485  13.916 -2.3082  1.3506  0.1711
 6333TIP3    H240491   1.015   4.573  14.026  0.2646  1.5439  1.3925
 6334TIP3   OH240492   3.483   6.121   3.493 -0.6774 -0.2084 -0.2111
 6334TIP3    H140493   3.412   6.061   3.471  0.1824 -2.3339  2.3449
 6334TIP3    H240494   3.556   6.093   3.438 -0.6546 -0.6146  0.0308
 6335TIP3   OH240495   1.396   3.969  13.249  0.4108  0.3568  0.6258
 6335TIP3    H140496   1.385   3.903  13.317 -0.0920 -1.7452 -1.3923
 6335TIP3    H240497   1.469   3.937  13.196 -0.5787  0.7995 -1.0717
 6336TIP3   OH240498   5.270   2.391   2.354  0.0682  0.5162  0.4076
 6336TIP3    H140499   5.328   2.323   2.389  0.7178  0.9199  0.1211
 6336TIP3    H240500   5.195   2.342   2.319  1.2179 -0.2164 -1.2014
 6337TIP3   OH240501   1.171   6.127   4.021 -0.3435 -0.1161  0.1073
 6337TIP3    H140502   1.156   6.134   4.115 -1.0934 -0.7199  0.0425
 6337TIP3    H240503   1.198   6.036   4.008 -1.3608 -0.3616 -0.3932
 6338TIP3   OH240504   0.172   2.687  11.302 -0.0312  0.2424 -0.4255
 6338TIP3    H140505   0.083   2.690  11.267 -0.3369  1.0714  0.4020
 6338TIP3    H240506   0.228   2.675  11.225 -0.6669  2.2031 -1.2450
 6339TIP3   OH240507   5.758   1.979  15.145  0.2013 -0.3579  0.1228
 6339TIP3    H140508   5.728   1.975  15.054 -0.3192  0.0964  0.2709
 6339TIP3    H240509   5.844   1.938  15.143  0.3493 -0.0362 -0.6433
 6340TIP3   OH240510   0.576   6.677  13.437 -0.1500 -0.3995  0.3774
 6340TIP3    H140511   0.602   6.589  13.411 -0.7731 -0.2600 -0.7485
 6340TIP3    H240512   0.603   6.683  13.529 -2.4099 -2.6897  1.3093
 6341TIP3   OH240513   2.981   1.290   2.242 -0.3532 -0.1125  0.0478
 6341TIP3    H140514   2.932   1.373   2.237  1.1977  0.7857 -1.2701
 6341TIP3    H240515   2.939   1.234   2.177  0.9940  1.0558 -1.9340
 6342TIP3   OH240516   5.987   4.110  14.150  0.3534 -0.9750 -0.2337
 6342TIP3    H140517   5.904   4.120  14.196  0.9577  1.0559  0.5645
 6342TIP3    H240518   5.967   4.057  14.074 -1.8895  0.2255 -0.5654
 6343TIP3   OH240519   5.214   4.821  13.478  0.3767 -0.2252  0.7706
 6343TIP3    H140520   5.293   4.785  13.438  0.1467 -1.3956  1.3382
 6343TIP3    H240521   5.142   4.783  13.428  0.1553  0.7153  0.3542
 6344TIP3   OH240522   0.348   6.392   1.810  0.1249  0.2687 -0.0609
 6344TIP3    H140523   0.333   6.486   1.814  2.2388  0.6386  0.5063
 6344TIP3    H240524   0.335   6.361   1.900 -0.5146  0.0067 -0.2360
 6345TIP3   OH240525   5.349   4.864   5.452  0.6089  0.1754 -0.8161
 6345TIP3    H140526   5.319   4.825   5.534  2.3652  1.7465  0.6902
 6345TIP3    H240527   5.273   4.911   5.418  0.1291  0.4041  0.5312
 6346TIP3   OH240528   5.656   5.242  15.741 -0.1661 -0.2236 -0.0932
 6346TIP3    H140529   5.654   5.250  15.646 -1.8307 -0.8799 -0.1495
 6346TIP3    H240530   5.617   5.157  15.759  0.2137 -0.1553  1.1866
 6347TIP3   OH240531   0.361   5.110  15.928 -0.0156  0.3777  0.1199
 6347TIP3    H140532   0.380   5.043  15.862 -1.2221 -0.4888  0.6098
 6347TIP3    H240533   0.446   5.129  15.968  0.4238 -0.5436 -0.3429
 6348TIP3   OH240534   3.209   5.859   3.406  0.1984 -0.1099 -0.3206
 6348TIP3    H140535   3.272   5.791   3.430  0.9421  1.3759  2.2921
 6348TIP3    H240536   3.125   5.813   3.400  0.6062 -1.2323  1.7675
 6349TIP3   OH240537   1.168   4.151  16.193  0.1704  0.0351  0.0327
 6349TIP3    H140538   1.255   4.119  16.173  0.3472  0.4417  0.1337
 6349TIP3    H240539   1.109   4.083  16.162  0.5103 -0.0912 -0.3413
 6350TIP3   OH240540   1.226   6.694   3.260  0.2561  0.2553  0.0357
 6350TIP3    H140541   1.207   6.788   3.254  1.4846  0.4022 -2.5942
 6350TIP3    H240542   1.152   6.652   3.216  1.8796  0.3604 -3.0287
 6351TIP3   OH240543   3.073   2.336   5.246  0.3836 -0.4592  0.5781
 6351TIP3    H140544   3.137   2.273   5.279  0.8624 -0.0592  0.4428
 6351TIP3    H240545   3.119   2.382   5.176 -0.3755 -0.7876 -0.1368
 6352TIP3   OH240546   1.383   6.332   3.761 -0.2177 -0.6265 -0.1109
 6352TIP3    H140547   1.432   6.288   3.831 -0.0921 -0.3168  0.0016
 6352TIP3    H240548   1.343   6.408   3.804  1.9064  1.0295 -0.8448
 6353TIP3   OH240549   6.705   3.144   5.573 -0.2846  0.3637  0.0476
 6353TIP3    H140550   6.697   3.136   5.478 -1.4371  1.0359  0.0602
 6353TIP3    H240551   6.631   3.093   5.607 -1.3663  2.0994  0.4633
 6354TIP3   OH240552   1.809   5.548   5.780 -0.3663  0.0177 -0.0160
 6354TIP3    H140553   1.818   5.467   5.729 -0.8156  1.7345 -3.0695
 6354TIP3    H240554   1.732   5.534   5.835 -0.6182 -1.5050 -0.7062
 6355TIP3   OH240555   1.015   5.972   3.452 -0.1124  0.0191 -0.4053
 6355TIP3    H140556   1.096   5.952   3.405  1.4771  2.7852  0.8833
 6355TIP3    H240557   1.023   5.924   3.535 -0.0449 -0.1093 -0.4850
 6356TIP3   OH240558   4.829   1.012  15.401 -0.5593 -0.4235  0.4381
 6356TIP3    H140559   4.896   1.080  15.403 -0.2796 -0.6937  0.2372
 6356TIP3    H240560   4.759   1.046  15.457 -0.3516 -0.0418  0.4661
 6357TIP3   OH240561   5.690   3.961  11.807 -0.0332 -0.2579  0.2492
 6357TIP3    H140562   5.705   3.937  11.716  0.3721  0.7526  0.0303
 6357TIP3    H240563   5.778   3.966  11.845 -0.1313  0.3066  0.4210
 6358TIP3   OH240564   0.338   1.520   5.755 -0.2648  0.1271 -0.5423
 6358TIP3    H140565   0.351   1.603   5.802  0.0221 -0.3950  0.3366
 6358TIP3    H240566   0.353   1.542   5.663 -0.0319  1.0186 -0.3044
 6359TIP3   OH240567   5.522   4.945  14.493 -0.0346  0.1803  0.0543
 6359TIP3    H140568   5.586   4.976  14.557  1.1252  0.7451 -1.3356
 6359TIP3    H240569   5.442   4.995  14.512  0.5640  0.9899  0.4815
 6360TIP3   OH240570   1.098   3.563  11.957  0.0566  0.0124 -0.0280
 6360TIP3    H140571   1.074   3.594  12.044 -0.4483  1.0278 -0.5119
 6360TIP3    H240572   1.183   3.602  11.940 -0.3880  0.7968 -0.4685
 6361TIP3   OH240573   0.493   6.760  17.117 -0.7160  0.0040 -0.0772
 6361TIP3    H140574   0.450   6.677  17.139 -1.0276 -0.4030 -2.0404
 6361TIP3    H240575   0.573   6.760  17.170 -1.2830 -0.9848  0.8217
 6362TIP3   OH240576   6.246   0.534   1.107  0.9478  0.4599  0.2006
 6362TIP3    H140577   6.237   0.495   1.020  0.4630 -0.0102  0.4573
 6362TIP3    H240578   6.160   0.572   1.125  1.4066  1.6522 -0.0368
 6363TIP3   OH240579   1.627   5.593   1.277  0.1569  0.1983  0.0885
 6363TIP3    H140580   1.532   5.586   1.266  0.2931  0.0411 -1.0689
 6363TIP3    H240581   1.641   5.581   1.371 -0.9974  0.6074  0.3318
 6364TIP3   OH240582   2.597   3.956   2.839  0.1540 -0.3044 -0.1921
 6364TIP3    H140583   2.648   4.036   2.840 -0.0275 -0.1862 -0.3926
 6364TIP3    H240584   2.637   3.901   2.907 -0.8458  0.6471  1.2159
 6365TIP3   OH240585   5.892   6.331   0.795 -0.1942 -0.0231 -0.0048
 6365TIP3    H140586   5.886   6.305   0.888  2.7728 -1.5146 -0.1098
 6365TIP3    H240587   5.813   6.295   0.756 -1.1679 -0.0039  1.8099
 6366TIP3   OH240588   4.323   4.255   4.248 -1.0462  0.5373 -0.2417
 6366TIP3    H140589   4.340   4.254   4.342 -1.8811  0.1263 -0.0865
 6366TIP3    H240590   4.386   4.192   4.212 -2.5138 -1.3703  0.3884
 6367TIP3   OH240591   2.255   5.548  16.894 -0.2027  0.3620  0.1945
 6367TIP3    H140592   2.203   5.495  16.834 -3.4002  2.4995  0.8349
 6367TIP3    H240593   2.323   5.587  16.839 -0.4158 -1.0116 -1.0985
 6368TIP3   OH240594   0.176   2.735   2.076  0.3078 -0.2283 -0.5034
 6368TIP3    H140595   0.223   2.741   2.159  0.8146 -1.3977 -0.6882
 6368TIP3    H240596   0.122   2.814   2.073 -1.1909 -1.0801  1.8353
 6369TIP3   OH240597   1.255   0.226   0.758  0.3419  0.1252  0.3754
 6369TIP3    H140598   1.294   0.300   0.804  0.1721 -0.6909  1.9112
 6369TIP3    H240599   1.257   0.154   0.822  2.4571 -1.8426 -1.7068
 6370TIP3   OH240600   0.187   2.399  11.259  0.2759 -0.1640 -0.4376
 6370TIP3    H140601   0.134   2.469  11.296  0.0230 -1.0353  0.9466
 6370TIP3    H240602   0.156   2.389  11.169 -0.5016  0.6806 -0.2741
 6371TIP3   OH240603   3.609   0.563  15.689  0.3102  0.2733 -0.0431
 6371TIP3    H140604   3.522   0.540  15.655 -1.0092 -0.3585  3.3410
 6371TIP3    H240605   3.644   0.624  15.625 -2.1338 -0.3253 -2.1414
 6372TIP3   OH240606   0.134   2.434   1.356 -0.4445  0.5925  0.1782
 6372TIP3    H140607   0.161   2.370   1.422 -0.9909 -1.0319 -1.0959
 6372TIP3    H240608   0.104   2.509   1.407  1.1587  0.2782  1.7201
 6373TIP3   OH240609   0.087   4.827  13.933 -0.2644  0.1144  0.1183
 6373TIP3    H140610   0.058   4.814  13.842 -1.7199  0.1501  0.5498
 6373TIP3    H240611   0.071   4.920  13.949  1.4258  0.4640 -0.0452
 6374TIP3   OH240612   0.685   1.526  15.167 -0.2321 -0.7311 -0.5376
 6374TIP3    H140613   0.636   1.529  15.249  1.4303  0.8100  0.4710
 6374TIP3    H240614   0.655   1.603  15.119 -0.0797 -0.7677 -0.6898
 6375TIP3   OH240615   1.127   2.442   5.981 -0.2378 -0.0644 -0.3964
 6375TIP3    H140616   1.132   2.459   5.887  1.2243  0.3487 -0.2614
 6375TIP3    H240617   1.213   2.408   6.004 -0.3389  0.4987  0.9160
 6376TIP3   OH240618   0.431   0.902   0.922 -0.0391 -0.3781 -0.2295
 6376TIP3    H140619   0.357   0.922   0.865 -1.0530  0.0527  1.1876
 6376TIP3    H240620   0.465   0.819   0.888 -2.0053 -1.2907 -0.1185
 6377TIP3   OH240621   6.034   3.196  12.634  0.7380  0.1373  0.6904
 6377TIP3    H140622   5.984   3.254  12.576  0.9288 -0.8594 -0.4932
 6377TIP3    H240623   6.022   3.234  12.721 -2.4083 -0.2559  0.5398
 6378TIP3   OH240624   5.909   3.180  10.552 -0.0366  0.9788  0.5419
 6378TIP3    H140625   6.002   3.170  10.529 -0.4855 -0.6913 -0.6991
 6378TIP3    H240626   5.908   3.251  10.616  1.7086  3.6718 -2.1411
 6379TIP3   OH240627   6.813   3.548  15.483  0.0624  0.6073  0.4952
 6379TIP3    H140628   6.778   3.540  15.572 -0.0182  0.2101  0.4298
 6379TIP3    H240629   6.753   3.496  15.430 -0.1832  1.2582  0.1252
 6380TIP3   OH240630   6.466   4.840   5.603  0.4058 -0.5728  0.5167
 6380TIP3    H140631   6.479   4.934   5.620  2.0975 -0.8197  0.8342
 6380TIP3    H240632   6.376   4.833   5.573 -0.4184  0.9100  2.3789
 6381TIP3   OH240633   4.631   5.803   2.247 -0.3299 -0.3730  0.1255
 6381TIP3    H140634   4.642   5.721   2.295 -0.8952 -0.0115  0.8816
 6381TIP3    H240635   4.546   5.794   2.204 -1.3770  0.6479  1.9045
 6382TIP3   OH240636   0.208   4.182   1.770 -0.0216  0.0997  0.1702
 6382TIP3    H140637   0.203   4.236   1.691  1.4792  2.5620  1.6117
 6382TIP3    H240638   0.271   4.228   1.826 -1.1000 -1.4614  2.8439
 6383TIP3   OH240639   1.688   1.689   2.799  0.1509 -0.1310  0.1696
 6383TIP3    H140640   1.761   1.684   2.738 -0.4234  0.1617 -0.5530
 6383TIP3    H240641   1.633   1.613   2.778  0.6244 -0.7848  1.2209
 6384TIP3   OH240642   4.629   5.043   5.217 -0.6128  0.1844 -0.4164
 6384TIP3    H140643   4.697   5.081   5.272 -0.7203 -0.1618 -0.0365
 6384TIP3    H240644   4.577   4.989   5.277 -1.3666  0.6303 -0.6490
 6385TIP3   OH240645   1.316   0.344   1.204  0.0700 -0.2365 -0.2605
 6385TIP3    H140646   1.373   0.409   1.163  0.2096  0.1821  0.5532
 6385TIP3    H240647   1.297   0.281   1.135  2.4708 -1.0619 -0.2632
 6386TIP3   OH240648   2.072   4.855   3.599  0.4669  0.0825 -0.4932
 6386TIP3    H140649   2.125   4.847   3.520  2.2854 -0.1919  0.6830
 6386TIP3    H240650   2.117   4.801   3.664  0.2521  1.9246  1.3067
 6387TIP3   OH240651   0.038   6.048  17.220  0.1668 -0.6187 -0.1694
 6387TIP3    H140652  -0.056   6.065  17.227  0.3992  0.5114  0.4889
 6387TIP3    H240653   0.044   5.960  17.184 -1.1550 -1.1471  0.8280
 6388TIP3   OH240654   6.570   5.694   5.409  0.3232 -0.3206  0.5937
 6388TIP3    H140655   6.574   5.758   5.481  1.8224 -0.4691  0.6771
 6388TIP3    H240656   6.660   5.687   5.379  0.3883 -3.0545  1.1590
 6389TIP3   OH240657   0.083   6.223   0.892 -0.4535  0.1065  0.0717
 6389TIP3    H140658   0.118   6.169   0.821  0.4062 -1.0515  1.3165
 6389TIP3    H240659   0.159   6.271   0.925 -0.5272 -0.4685  1.1262
 6390TIP3   OH240660   1.041   1.706   3.359  0.1836  0.5191 -0.2473
 6390TIP3    H140661   0.948   1.703   3.336  0.0341 -0.9140  0.4210
 6390TIP3    H240662   1.080   1.763   3.293 -0.8322 -0.4783 -1.7960
 6391TIP3   OH240663   2.201   4.669   5.111 -0.5334  0.1045  0.5696
 6391TIP3    H140664   2.217   4.613   5.187  1.4874 -2.9453 -1.8570
 6391TIP3    H240665   2.276   4.728   5.109  0.3769 -1.0117  0.0669
 6392TIP3   OH240666   2.907   5.625   1.472 -0.4149 -0.0734  0.4011
 6392TIP3    H140667   2.852   5.575   1.532 -0.7611 -1.0744 -0.7081
 6392TIP3    H240668   2.934   5.702   1.523 -2.9402  0.5597  0.9389
 6393TIP3   OH240669   0.362   6.244   0.212 -0.0007 -0.0512 -0.2124
 6393TIP3    H140670   0.450   6.282   0.203  0.8573 -1.7284  0.6175
 6393TIP3    H240671   0.375   6.167   0.268 -1.9295 -0.6233 -0.4848
 6394TIP3   OH240672   2.110   2.074  15.584  0.6999  0.7692 -0.4549
 6394TIP3    H140673   2.139   2.151  15.633 -0.0406 -0.0540  1.3944
 6394TIP3    H240674   2.139   2.000  15.638 -1.5250 -0.1468 -0.4352
 6395TIP3   OH240675   1.178   5.117   3.626 -0.8468  0.9454  0.2455
 6395TIP3    H140676   1.209   5.175   3.556 -1.4625 -1.5051 -2.2381
 6395TIP3    H240677   1.089   5.094   3.600 -2.4728  2.5225  3.6999
 6396TIP3   OH240678   3.281   2.466  11.443 -0.5447  0.0797  0.7597
 6396TIP3    H140679   3.275   2.440  11.351 -0.4012  1.1425  0.4425
 6396TIP3    H240680   3.339   2.401  11.483  1.7051  1.2165 -0.5189
 6397TIP3   OH240681   2.130   5.168   3.637 -0.5069  0.3861 -0.2304
 6397TIP3    H140682   2.219   5.202   3.639 -0.2774  0.1036 -2.7062
 6397TIP3    H240683   2.138   5.075   3.660 -0.6167  0.9459  2.4404
 6398TIP3   OH240684   1.667   2.905  12.483  0.5852 -0.2023  0.1138
 6398TIP3    H140685   1.737   2.901  12.418 -0.0832 -0.0185 -0.6328
 6398TIP3    H240686   1.660   2.816  12.516 -0.4410 -0.7979 -1.5676
 6399TIP3   OH240687   1.875   3.216   0.759  0.1486  0.1611  0.2083
 6399TIP3    H140688   1.848   3.289   0.703 -3.5466 -0.6988  0.6125
 6399TIP3    H240689   1.837   3.139   0.716  1.0566 -1.0876  1.5777
 6400TIP3   OH240690   1.357   1.381  12.504 -0.1312 -0.5973  0.7457
 6400TIP3    H140691   1.425   1.321  12.533 -1.0917 -1.2583  1.6818
 6400TIP3    H240692   1.335   1.352  12.415 -0.3448 -1.4119  1.0610
 6401TIP3   OH240693   2.728   1.789  16.413  0.2595 -0.4075 -0.0013
 6401TIP3    H140694   2.707   1.748  16.497  0.1371  1.7890  1.1214
 6401TIP3    H240695   2.655   1.767  16.356 -1.2048  0.5071  1.4204
 6402TIP3   OH240696   6.116   2.595  13.413  0.6662 -0.3820  0.2688
 6402TIP3    H140697   6.074   2.656  13.474  0.7794  0.2182 -0.2483
 6402TIP3    H240698   6.046   2.567  13.354  0.7219 -0.3628  0.1933
 6403TIP3   OH240699   6.102   5.964   0.059 -0.3237 -0.1038 -0.0860
 6403TIP3    H140700   6.036   5.985   0.124 -0.7408 -1.0444 -0.1894
 6403TIP3    H240701   6.142   5.883   0.089  1.6853  1.0692  0.6344
 6404TIP3   OH240702   4.009   0.184  11.764 -0.3394 -0.0493  0.3114
 6404TIP3    H140703   3.968   0.113  11.813  0.8841  0.2241  1.8028
 6404TIP3    H240704   4.040   0.245  11.831 -0.6278  1.4910 -0.9067
 6405TIP3   OH240705   5.605   2.575   0.551  0.0056 -0.5133 -0.2583
 6405TIP3    H140706   5.672   2.521   0.509 -1.2769 -1.1565 -1.5632
 6405TIP3    H240707   5.556   2.614   0.479 -1.4852 -0.6364  0.6357
 6406TIP3   OH240708   0.867   2.841   0.706  0.1273  0.7467  0.1310
 6406TIP3    H140709   0.946   2.809   0.749  0.7621  2.0254 -0.0413
 6406TIP3    H240710   0.870   2.936   0.716 -1.5830  0.8107  0.4313
 6407TIP3   OH240711   3.694   2.107  13.628 -0.3844 -0.4128  0.4118
 6407TIP3    H140712   3.738   2.092  13.712  0.3845 -0.1730  0.0598
 6407TIP3    H240713   3.604   2.128  13.652 -0.2023 -0.4665  1.1750
 6408TIP3   OH240714   0.445   1.054  16.048 -0.2969 -0.1582  0.1069
 6408TIP3    H140715   0.408   1.054  15.960  0.2294 -0.0439 -0.1212
 6408TIP3    H240716   0.374   1.083  16.105 -0.8604 -0.9408 -0.1871
 6409TIP3   OH240717   5.666   3.497  11.230 -0.2162  0.7343 -0.2457
 6409TIP3    H140718   5.622   3.539  11.156  0.2723  1.3021 -0.2200
 6409TIP3    H240719   5.597   3.482  11.294 -0.7487 -0.2563 -1.0258
 6410TIP3   OH240720   3.661   1.209   4.663 -0.5019  0.4255 -0.4210
 6410TIP3    H140721   3.711   1.128   4.674 -0.5305  0.3833 -0.5983
 6410TIP3    H240722   3.621   1.224   4.748  0.0948  0.6473 -0.1791
 6411TIP3   OH240723   0.712   4.832   2.678  0.1512  0.3590  0.1207
 6411TIP3    H140724   0.650   4.794   2.616 -1.5748  0.6346  1.6120
 6411TIP3    H240725   0.692   4.926   2.678 -1.4550  0.1191  2.6610
 6412TIP3   OH240726   3.061   6.263  11.433 -0.2288  0.0024  0.1318
 6412TIP3    H140727   3.152   6.290  11.427 -0.4043  0.2946 -1.9250
 6412TIP3    H240728   3.013   6.345  11.445 -0.2791 -0.0681  0.4122
 6413TIP3   OH240729   6.660   0.087   5.090 -0.0076  0.7536  0.2299
 6413TIP3    H140730   6.700   0.001   5.102  1.5831  1.2865 -0.9551
 6413TIP3    H240731   6.574   0.079   5.131  0.0829 -1.3969  0.1075
 6414TIP3   OH240732   4.004   3.981  14.125 -0.2765 -0.2065  0.5547
 6414TIP3    H140733   4.100   3.981  14.118 -0.3721 -0.9116 -1.2830
 6414TIP3    H240734   3.986   4.025  14.208  1.6001  0.9053  0.4236
 6415TIP3   OH240735   2.356   2.834  12.101 -0.5837  0.2334 -0.5050
 6415TIP3    H140736   2.385   2.760  12.155 -0.1039  0.9252  0.2009
 6415TIP3    H240737   2.433   2.859  12.051 -0.7132  0.3255 -0.6584
 6416TIP3   OH240738   5.139   5.364   4.769 -0.5861 -0.7972 -0.0593
 6416TIP3    H140739   5.105   5.432   4.827  0.6948 -0.6062  0.5179
 6416TIP3    H240740   5.096   5.379   4.685  0.4404  1.4019 -0.2543
 6417TIP3   OH240741   5.398   0.350   5.989  0.4689  0.7363  0.8975
 6417TIP3    H140742   5.307   0.328   5.967  0.6942 -0.4313  1.0850
 6417TIP3    H240743   5.446   0.268   5.977  1.8914  1.8161 -1.1619
 6418TIP3   OH240744   1.455   0.713  12.659 -0.2809  0.2944 -0.0779
 6418TIP3    H140745   1.362   0.689  12.656 -0.4709  0.9240  0.4911
 6418TIP3    H240746   1.490   0.666  12.734 -0.5357  1.3273  0.7213
 6419TIP3   OH240747   6.426   6.457   2.714  0.1508 -0.0381 -0.4566
 6419TIP3    H140748   6.492   6.396   2.681 -1.7670 -2.1694 -0.5799
 6419TIP3    H240749   6.345   6.432   2.669 -1.1417  1.3007  0.9875
 6420TIP3   OH240750   6.410   0.288  15.124  0.2349 -0.3228 -0.3102
 6420TIP3    H140751   6.374   0.375  15.143  1.1273  0.1279 -0.6120
 6420TIP3    H240752   6.421   0.247  15.209  1.8145  0.7039  0.0314
 6421TIP3   OH240753   5.300   4.735  13.749 -0.0064 -0.2869 -0.0339
 6421TIP3    H140754   5.274   4.732  13.657  0.6091 -2.0080 -0.1906
 6421TIP3    H240755   5.364   4.806  13.753 -2.4202  2.0522 -0.2089
 6422TIP3   OH240756   2.798   5.849  13.179 -0.4859  0.0119 -0.4065
 6422TIP3    H140757   2.724   5.794  13.153 -0.6755  0.1736 -0.2018
 6422TIP3    H240758   2.824   5.893  13.097  0.6023 -1.4817 -0.9065
 6423TIP3   OH240759   6.172   6.636  12.579  0.2727  0.1890 -0.4214
 6423TIP3    H140760   6.113   6.648  12.652 -0.3572  0.5047 -0.9755
 6423TIP3    H240761   6.249   6.689  12.600  0.1178  0.2301  0.0303
 6424TIP3   OH240762   0.956   5.490  17.031 -0.0651 -0.3103 -0.3618
 6424TIP3    H140763   0.936   5.417  16.973  0.3485  0.2094 -1.1818
 6424TIP3    H240764   0.948   5.568  16.976 -0.8711  0.3020  0.5948
 6425TIP3   OH240765   2.205   2.068  14.283 -0.9519  0.1146 -0.2622
 6425TIP3    H140766   2.151   2.073  14.362  0.2463  2.4109  0.4896
 6425TIP3    H240767   2.174   2.140  14.229  0.0749  0.2870 -0.6419
 6426TIP3   OH240768   4.078   6.585  11.902  1.1285  0.3981  0.2538
 6426TIP3    H140769   4.070   6.591  11.997 -0.1480 -0.8161  0.2556
 6426TIP3    H240770   4.171   6.600  11.885  1.9409 -2.0517  1.9621
 6427TIP3   OH240771   2.534   6.231  15.676  0.2230 -0.2547  0.2599
 6427TIP3    H140772   2.594   6.195  15.611 -0.2316  1.1650 -1.0073
 6427TIP3    H240773   2.579   6.308  15.711 -1.4198  1.8147 -1.8988
 6428TIP3   OH240774   0.482   3.250   4.623  0.0579  0.1477 -0.3285
 6428TIP3    H140775   0.534   3.296   4.689  0.5884  1.4515 -1.6041
 6428TIP3    H240776   0.460   3.166   4.664  1.1334  0.5493  1.1474
 6429TIP3   OH240777   2.117   4.710  11.589 -0.0648 -0.0790  0.5343
 6429TIP3    H140778   2.100   4.616  11.584 -0.7231  0.0520  0.2805
 6429TIP3    H240779   2.212   4.716  11.599  0.0482 -0.7505 -0.0648
 6430TIP3   OH240780   3.354   0.383  13.763 -0.1571  0.4987  0.7522
 6430TIP3    H140781   3.274   0.421  13.725  0.9616  2.0583 -0.1730
 6430TIP3    H240782   3.323   0.307  13.811 -2.2482  1.2076  0.6607
 6431TIP3   OH240783   3.277   0.185   3.599  0.0628 -0.8411  0.7058
 6431TIP3    H140784   3.266   0.228   3.514 -0.8784  0.7618  1.5774
 6431TIP3    H240785   3.354   0.130   3.589 -0.0856 -0.7598 -1.2063
 6432TIP3   OH240786   1.834   5.952  15.758 -0.3758  0.1731  0.4621
 6432TIP3    H140787   1.775   5.892  15.715 -0.4158  0.9785 -0.6446
 6432TIP3    H240788   1.875   5.901  15.828 -0.6802 -1.0143 -0.2156
 6433TIP3   OH240789   3.963   1.630  14.490  0.3947  0.3561  0.1371
 6433TIP3    H140790   4.057   1.634  14.506  0.4474  1.2175 -0.3737
 6433TIP3    H240791   3.923   1.667  14.569  0.4994  0.5385  0.1031
 6434TIP3   OH240792   4.054   3.094  12.295 -0.8535  0.1210 -0.5713
 6434TIP3    H140793   4.072   3.136  12.211 -0.9946  0.1441 -0.5901
 6434TIP3    H240794   3.988   3.028  12.274  0.8318 -1.5462 -0.9480
 6435TIP3   OH240795   6.454   1.045  15.331  0.0289 -0.4408 -0.1853
 6435TIP3    H140796   6.432   1.138  15.326  0.1679 -0.3486  0.7355
 6435TIP3    H240797   6.370   1.000  15.325  0.0963 -0.3664 -2.5485
 6436TIP3   OH240798   4.306   2.803  11.102 -0.1361  0.1462  0.2421
 6436TIP3    H140799   4.320   2.843  11.188  0.9725  1.4987 -0.5238
 6436TIP3    H240800   4.386   2.824  11.053  1.2783 -4.3409  0.2066
 6437TIP3   OH240801   4.510   5.935  16.849  0.1723 -0.5971 -0.0453
 6437TIP3    H140802   4.441   5.873  16.825 -1.2097  0.5035  0.9794
 6437TIP3    H240803   4.466   6.019  16.856  1.9919  0.5504 -1.3277
 6438TIP3   OH240804   4.841   0.438  14.232  0.1831 -0.0582 -0.1342
 6438TIP3    H140805   4.902   0.512  14.231 -0.9217  0.8572 -0.4967
 6438TIP3    H240806   4.885   0.371  14.180  1.7201 -0.1212  1.1349
 6439TIP3   OH240807   2.104   6.586  12.157 -0.2196 -0.1648  0.3034
 6439TIP3    H140808   2.080   6.616  12.245  1.0807 -0.6062  0.8320
 6439TIP3    H240809   2.160   6.655  12.123 -0.9927  0.1657 -0.3349
 6440TIP3   OH240810   3.963   3.982   4.887 -0.3644 -0.1550 -0.4003
 6440TIP3    H140811   3.951   4.042   4.814 -0.3878 -0.0017 -0.2689
 6440TIP3    H240812   4.058   3.967   4.890  0.2964  3.2863  2.2760
 6441TIP3   OH240813   1.481   5.901   0.404 -0.0774  0.0783 -0.2423
 6441TIP3    H140814   1.548   5.912   0.337  0.5981 -0.5453  0.3123
 6441TIP3    H240815   1.519   5.838   0.466 -0.4934  0.9661  0.9553
 6442TIP3   OH240816   3.400   4.681   2.245 -0.2046  0.1459  0.5046
 6442TIP3    H140817   3.448   4.751   2.289 -0.0922 -0.2561  1.0273
 6442TIP3    H240818   3.432   4.684   2.155 -1.9050  2.3132 -0.1139
 6443TIP3   OH240819   5.666   4.106  10.644 -0.2637 -0.4919  0.5589
 6443TIP3    H140820   5.612   4.145  10.712  0.8201  2.2946 -0.0306
 6443TIP3    H240821   5.732   4.055  10.692 -0.9316 -0.5371  1.4531
 6444TIP3   OH240822   2.905   6.671   5.776 -0.7198 -0.5560 -0.8195
 6444TIP3    H140823   2.905   6.755   5.823 -1.1117 -0.0569 -1.6697
 6444TIP3    H240824   2.832   6.622   5.814  0.6963 -1.3400  1.0391
 6445TIP3   OH240825   1.763   3.887  11.878 -0.4051 -0.0641 -0.2540
 6445TIP3    H140826   1.733   3.978  11.885  0.4683  0.1514  1.0467
 6445TIP3    H240827   1.741   3.862  11.789  3.6191  3.0682 -2.5254
 6446TIP3   OH240828   6.346   0.914   5.666 -0.1349  0.3158  0.2538
 6446TIP3    H140829   6.436   0.885   5.650  0.5344  2.6405 -0.5850
 6446TIP3    H240830   6.291   0.844   5.630  1.3453  0.0562 -1.6598
 6447TIP3   OH240831   4.114   6.608   3.789  0.2683 -0.2571  0.0587
 6447TIP3    H140832   4.083   6.675   3.850 -0.3266 -0.8417  0.4131
 6447TIP3    H240833   4.074   6.526   3.820  1.3023 -0.8576 -0.1225
 6448TIP3   OH240834   6.498   0.568  16.252  0.4436  0.2786 -0.4276
 6448TIP3    H140835   6.569   0.555  16.190  0.1933 -1.2499 -0.4311
 6448TIP3    H240836   6.537   0.617  16.324  0.8287  1.7529 -1.5895
 6449TIP3   OH240837   2.169   2.348  11.215 -1.0546 -0.2764  0.2573
 6449TIP3    H140838   2.088   2.350  11.266  0.0059  2.3235  2.0350
 6449TIP3    H240839   2.153   2.409  11.143 -2.1637 -3.1504 -2.1381
 6450TIP3   OH240840   5.342   2.222  16.994  0.4982 -0.1429 -0.8213
 6450TIP3    H140841   5.391   2.154  17.038 -1.1330 -1.6326 -1.1819
 6450TIP3    H240842   5.311   2.279  17.064  0.3640 -0.8172 -0.3260
 6451TIP3   OH240843   3.468   5.346  10.952 -0.1217  0.8223 -0.1140
 6451TIP3    H140844   3.513   5.404  10.891 -2.1681  1.6964 -0.8943
 6451TIP3    H240845   3.375   5.365  10.938 -0.8168 -1.7816  0.4946
 6452TIP3   OH240846   3.211   4.166   3.295 -0.8905  0.3314 -0.5036
 6452TIP3    H140847   3.275   4.229   3.328 -1.3199  1.6870 -2.0858
 6452TIP3    H240848   3.258   4.119   3.225 -1.2661  0.5528 -0.9118
 6453TIP3   OH240849   3.141   6.643  11.173 -0.2947 -0.1582 -0.0328
 6453TIP3    H140850   3.223   6.645  11.123  0.6496  0.6315  1.4819
 6453TIP3    H240851   3.099   6.726  11.152  1.1383  1.1816  2.0613
 6454TIP3   OH240852   3.507   0.905  16.823 -0.2737  0.0927 -0.2800
 6454TIP3    H140853   3.416   0.881  16.803 -0.1143 -1.6677  0.8898
 6454TIP3    H240854   3.501   0.953  16.906 -0.0077 -1.6084  0.7613
 6455TIP3   OH240855   5.314   4.452  15.987  0.3925 -0.3569  0.1829
 6455TIP3    H140856   5.347   4.363  15.995 -0.0612 -0.5426 -0.0235
 6455TIP3    H240857   5.325   4.474  15.895 -1.1797 -0.8641 -0.1552
 6456TIP3   OH240858   0.281   5.247   3.611 -0.6858  0.2130  0.3281
 6456TIP3    H140859   0.360   5.197   3.593 -1.0411 -0.0872 -0.4768
 6456TIP3    H240860   0.312   5.328   3.651  0.2090  0.8916 -1.6153
 6457TIP3   OH240861   4.540   6.485  15.553 -0.0430 -0.1301 -0.5259
 6457TIP3    H140862   4.469   6.463  15.614 -1.0360  0.4709 -1.4220
 6457TIP3    H240863   4.612   6.427  15.577 -1.0187 -1.1213  0.0805
 6458TIP3   OH240864   1.657   4.561   0.976 -0.6175 -0.4328 -0.1852
 6458TIP3    H140865   1.563   4.549   0.962 -0.8673  0.2306  0.8035
 6458TIP3    H240866   1.696   4.480   0.944 -1.4547 -0.4225 -1.2847
 6459TIP3   OH240867   6.590   4.518  12.634  0.2964 -0.0846 -0.2387
 6459TIP3    H140868   6.627   4.430  12.632 -1.9245 -1.0779 -0.3096
 6459TIP3    H240869   6.495   4.504  12.634 -0.2052  2.3328 -3.3894
 6460TIP3   OH240870   1.469   2.132   1.774 -0.2070  0.4125  0.6290
 6460TIP3    H140871   1.546   2.189   1.773  0.1635 -0.0827  0.5435
 6460TIP3    H240872   1.430   2.143   1.687  0.1391  0.1733  0.4391
 6461TIP3   OH240873   5.747   0.954  16.938 -0.4085 -0.2173 -0.3044
 6461TIP3    H140874   5.656   0.929  16.923 -0.2093 -1.4836  0.4440
 6461TIP3    H240875   5.749   0.987  17.028  0.0571 -1.2725  0.0910
 6462TIP3   OH240876   3.286   4.264  11.112 -0.7500 -0.4553 -0.0096
 6462TIP3    H140877   3.352   4.330  11.132  1.0155 -1.7588 -1.2281
 6462TIP3    H240878   3.245   4.245  11.197  0.8837 -0.0600  0.9167
 6463TIP3   OH240879   2.351   3.088   5.750 -0.1096  0.3044 -0.0479
 6463TIP3    H140880   2.422   3.052   5.698 -1.9922  0.2822 -2.8232
 6463TIP3    H240881   2.351   3.036   5.830  0.7655 -2.1458 -1.5273
 6464TIP3   OH240882   3.242   5.433  16.782  0.2447  0.5333  0.3256
 6464TIP3    H140883   3.247   5.500  16.715 -0.9237  1.4379  1.1092
 6464TIP3    H240884   3.308   5.458  16.846  0.3068  0.5348  0.2609
 6465TIP3   OH240885   6.241   5.228  14.196 -0.1389 -0.2638  0.0553
 6465TIP3    H140886   6.150   5.219  14.171 -0.2387  0.9528 -0.0842
 6465TIP3    H240887   6.289   5.226  14.113 -0.1684  0.4294  0.0158
 6466TIP3   OH240888   4.450   2.307   1.738  0.0638  0.0164  0.0690
 6466TIP3    H140889   4.538   2.286   1.706  0.1648  1.0481 -0.3845
 6466TIP3    H240890   4.401   2.331   1.659 -0.9699 -1.6271  0.1666
 6467TIP3   OH240891   5.023   3.630   1.632 -0.0975 -0.0963 -0.2333
 6467TIP3    H140892   5.058   3.542   1.637  2.2307  0.6002 -2.1608
 6467TIP3    H240893   5.060   3.676   1.707  3.1523  0.5178 -2.0155
 6468TIP3   OH240894   6.791   1.857  15.888 -0.3276  0.0143  0.4797
 6468TIP3    H140895   6.816   1.945  15.915  0.2302 -0.0292  0.1231
 6468TIP3    H240896   6.733   1.870  15.813 -1.5795  0.1226  1.4288
 6469TIP3   OH240897   5.446   0.644   1.707  0.1710 -0.4333 -0.0060
 6469TIP3    H140898   5.351   0.629   1.707  0.1386 -0.2650  0.6621
 6469TIP3    H240899   5.457   0.726   1.754  0.5800  0.0541 -0.9339
 6470TIP3   OH240900   1.835   4.354   0.901 -0.1008 -0.0300 -0.0217
 6470TIP3    H140901   1.893   4.296   0.952 -0.6873 -0.3990  0.2296
 6470TIP3    H240902   1.880   4.363   0.817  1.4919  1.5555  0.9232
 6471TIP3   OH240903   6.218   3.422  16.644  0.4986 -0.3078 -0.7732
 6471TIP3    H140904   6.158   3.350  16.632 -0.5807  0.6642 -1.3694
 6471TIP3    H240905   6.278   3.417  16.569 -1.1780  0.9088 -2.2740
 6472TIP3   OH240906   1.316   2.933   1.963 -0.3649 -0.1407  0.3281
 6472TIP3    H140907   1.340   2.943   2.055 -0.2253  0.1152  0.2664
 6472TIP3    H240908   1.233   2.886   1.964 -1.3828  1.5670  0.6647
 6473TIP3   OH240909   1.478   1.724   4.647 -0.2837  0.2507 -0.2417
 6473TIP3    H140910   1.425   1.648   4.672 -1.4501  0.6864 -1.2893
 6473TIP3    H240911   1.418   1.799   4.655  0.2144  0.7815 -1.2889
 6474TIP3   OH240912   1.218   3.922  15.483  0.1593 -0.2888  0.4311
 6474TIP3    H140913   1.308   3.898  15.506  0.8364  1.7427  0.1228
 6474TIP3    H240914   1.199   3.873  15.403  1.2659 -0.1988  0.1016
 6475TIP3   OH240915   0.249   1.564  12.207  0.2179 -0.3161 -0.1893
 6475TIP3    H140916   0.323   1.598  12.257 -0.5563  0.3799  0.5176
 6475TIP3    H240917   0.278   1.566  12.116  0.9175  0.3261  0.0378
 6476TIP3   OH240918   2.300   4.088   2.615 -0.2014  0.1322 -0.3805
 6476TIP3    H140919   2.381   4.120   2.575 -0.8908 -0.3834 -2.3349
 6476TIP3    H240920   2.326   4.006   2.658  0.9760  1.7217  2.1661
 6477TIP3   OH240921   5.969   4.331  15.270  0.5328  0.0834  0.3764
 6477TIP3    H140922   5.946   4.319  15.178  0.6185 -1.7234  0.5651
 6477TIP3    H240923   5.887   4.360  15.311 -0.1310 -1.3466  0.1264
 6478TIP3   OH240924   3.135   0.146  14.664  0.3750  0.0316  0.0315
 6478TIP3    H140925   3.217   0.115  14.626  0.0212 -0.9939  0.0757
 6478TIP3    H240926   3.160   0.182  14.749  0.9118  0.6706 -0.3826
 6479TIP3   OH240927   2.714   0.014  13.713 -0.1789 -0.4599  0.0107
 6479TIP3    H140928   2.795   0.024  13.764  0.8022 -0.3410 -1.4942
 6479TIP3    H240929   2.734   0.056  13.629 -1.5605 -1.0831 -0.6530
 6480TIP3   OH240930   4.778   0.351   3.913  0.1741 -0.2645 -0.3222
 6480TIP3    H140931   4.850   0.410   3.893  0.0762  0.1638  0.5517
 6480TIP3    H240932   4.816   0.263   3.905  0.1392 -0.1246 -2.3071
 6481TIP3   OH240933   2.052   2.089   4.661 -0.2184 -0.4732  0.2414
 6481TIP3    H140934   1.960   2.099   4.636 -0.2767 -0.6581  0.3757
 6481TIP3    H240935   2.052   2.016   4.724 -0.0937  0.0376  0.8474
 6482TIP3   OH240936   2.555   3.308  15.670  0.4969 -0.0827  0.1167
 6482TIP3    H140937   2.485   3.318  15.734  1.6533 -1.2560  1.6228
 6482TIP3    H240938   2.571   3.214  15.666  0.2691 -0.0788 -2.1461
 6483TIP3   OH240939   5.040   1.569  15.028  0.0946 -0.3597 -0.3120
 6483TIP3    H140940   5.114   1.580  15.088 -1.2762 -0.0234  1.4146
 6483TIP3    H240941   5.073   1.512  14.959  2.0848  0.1386  0.1497
 6484TIP3   OH240942   6.613   6.328  13.507 -0.7496 -0.1017  0.1696
 6484TIP3    H140943   6.614   6.412  13.463 -1.6868  0.0126  0.3393
 6484TIP3    H240944   6.614   6.263  13.436  0.4145  0.0315  0.0479
 6485TIP3   OH240945   5.573   2.900  10.395  0.4024  0.2897  0.6338
 6485TIP3    H140946   5.492   2.849  10.399  0.2372  0.5755  0.9857
 6485TIP3    H240947   5.564   2.955  10.318  0.6417 -0.3083  0.1688
 6486TIP3   OH240948   4.515   1.472  13.781 -0.4467 -0.5702  0.0401
 6486TIP3    H140949   4.484   1.398  13.728 -1.0790 -0.7997  0.7129
 6486TIP3    H240950   4.563   1.527  13.719 -3.1644  0.4009 -1.3763
 6487TIP3   OH240951   2.786   3.418   2.749 -0.3680  0.0654 -0.0950
 6487TIP3    H140952   2.699   3.382   2.733  0.3916 -1.4777 -0.9570
 6487TIP3    H240953   2.802   3.477   2.674  0.0636 -1.1357 -0.9803
 6488TIP3   OH240954   1.077   1.477   6.482  0.2233 -0.6740 -0.5633
 6488TIP3    H140955   1.148   1.414   6.475  1.3941 -0.1324  3.5570
 6488TIP3    H240956   1.010   1.432   6.533  0.2784  0.7311  0.8225
 6489TIP3   OH240957   3.229   6.601   3.955  0.3728  0.4139 -0.0427
 6489TIP3    H140958   3.239   6.690   3.986 -0.8672  1.1431 -1.5882
 6489TIP3    H240959   3.312   6.558   3.976  0.8840  1.8408  0.9484
 6490TIP3   OH240960   2.954   6.224   5.611  0.8514 -0.3394  0.1817
 6490TIP3    H140961   2.979   6.173   5.534 -0.0896  1.8483 -1.6967
 6490TIP3    H240962   2.916   6.304   5.576 -0.1123  0.5582  2.9557
 6491TIP3   OH240963   2.429   3.430   2.544 -0.6068  0.3653  0.1786
 6491TIP3    H140964   2.395   3.517   2.524 -2.6916 -0.5458 -0.6114
 6491TIP3    H240965   2.422   3.382   2.461 -1.0710 -1.0025  0.9691
 6492TIP3   OH240966   3.195   3.536   5.303 -0.1453  0.5279  0.3528
 6492TIP3    H140967   3.237   3.591   5.237  0.7006 -0.1734  0.2855
 6492TIP3    H240968   3.102   3.535   5.277  0.3667 -0.8908 -1.6963
 6493TIP3   OH240969   0.395   1.157  12.065  0.0006 -0.1129 -0.1404
 6493TIP3    H140970   0.376   1.188  12.154 -1.1327  0.1990 -0.4755
 6493TIP3    H240971   0.446   1.227  12.026 -2.3239  1.3392 -0.8044
 6494TIP3   OH240972   0.146   6.106   2.704 -0.0693  0.3956  0.5247
 6494TIP3    H140973   0.098   6.187   2.718  1.0519  1.0537  0.6945
 6494TIP3    H240974   0.210   6.128   2.636  0.0591 -0.4366  0.3606
 6495TIP3   OH240975   1.725   5.091   1.726 -0.1711  0.1328 -0.0624
 6495TIP3    H140976   1.747   5.085   1.819  0.7745 -0.7892 -0.3256
 6495TIP3    H240977   1.717   5.000   1.697 -1.5585  0.4195 -0.6511
 6496TIP3   OH240978   2.871   4.094   1.314 -0.3171 -0.0292 -0.7552
 6496TIP3    H140979   2.933   4.142   1.259 -0.5607  0.0247 -0.9809
 6496TIP3    H240980   2.833   4.162   1.371  0.2121 -0.1437 -0.2588
 6497TIP3   OH240981   4.298   0.536   0.276  0.1725  0.0023  0.0044
 6497TIP3    H140982   4.283   0.623   0.239  1.3056  0.3980  0.4355
 6497TIP3    H240983   4.295   0.477   0.201 -2.5702  0.1136 -0.0817
 6498TIP3   OH240984   1.580   0.185   0.776  0.5731 -0.0769 -0.0652
 6498TIP3    H140985   1.671   0.192   0.803  0.0180 -0.0906  1.9908
 6498TIP3    H240986   1.559   0.092   0.783 -0.0198  0.1252  1.0640
 6499TIP3   OH240987   5.472   6.077   3.212  0.8222 -0.0330  0.5819
 6499TIP3    H140988   5.414   6.100   3.140 -0.0495  0.4962  1.4392
 6499TIP3    H240989   5.556   6.118   3.189  1.4575 -2.2361 -1.5226
 6500TIP3   OH240990   5.941   3.305   4.028 -0.1353  0.3455 -0.4063
 6500TIP3    H140991   5.848   3.313   4.009 -0.5088  0.6739  1.3832
 6500TIP3    H240992   5.945   3.259   4.112  1.2731  1.0914 -0.0238
 6501TIP3   OH240993   0.955   1.673  11.692  0.1956 -0.1058 -0.6354
 6501TIP3    H140994   0.970   1.679  11.598 -3.4142  1.1608 -1.2918
 6501TIP3    H240995   1.005   1.745  11.730 -0.1525  0.8387 -1.9165
 6502TIP3   OH240996   6.153   6.316  15.158  0.1049 -0.4173  0.3411
 6502TIP3    H140997   6.211   6.260  15.105 -0.7238  0.2934 -1.3902
 6502TIP3    H240998   6.065   6.300  15.123 -0.1718  1.9094 -0.1937
 6503TIP3   OH240999   6.656   3.404  12.522  0.3492 -0.0337  0.4118
 6503TIP3    H141000   6.718   3.402  12.594 -0.6691  0.1504  1.3195
 6503TIP3    H241001   6.651   3.497  12.497  1.3063 -0.2038 -0.4473
 6504TIP3   OH241002   1.390   5.298  11.006 -1.0728 -0.0608 -0.0046
 6504TIP3    H141003   1.397   5.255  10.920  0.7642 -0.3782  0.2768
 6504TIP3    H241004   1.474   5.281  11.048 -1.2936  1.6130  1.1708
 6505TIP3   OH241005   0.631   5.197  12.905 -0.4944  0.0557 -0.4693
 6505TIP3    H141006   0.644   5.210  12.811  0.4283 -1.4232 -0.5716
 6505TIP3    H241007   0.712   5.229  12.945 -0.0825 -1.0685 -0.3607
 6506TIP3   OH241008   5.439   6.685   3.871  0.3574 -0.6732  0.3915
 6506TIP3    H141009   5.376   6.651   3.935 -0.4085 -0.2004 -0.0904
 6506TIP3    H241010   5.387   6.744   3.815  1.3965  0.3707  0.4839
 6507TIP3   OH241011   3.899   1.935  17.065 -0.2772 -0.3365  0.5135
 6507TIP3    H141012   3.918   1.862  17.006 -0.3911 -1.0737  1.3607
 6507TIP3    H241013   3.976   1.991  17.059  0.4226 -1.2219  0.8617
 6508TIP3   OH241014   2.784   0.413   0.256 -0.0030 -0.1228 -0.5610
 6508TIP3    H141015   2.858   0.423   0.316 -0.6419  1.5242  0.0162
 6508TIP3    H241016   2.787   0.491   0.201 -0.9497 -0.3238 -0.9172
 6509TIP3   OH241017   4.164   5.872  16.511  0.1994 -0.4169  0.4355
 6509TIP3    H141018   4.232   5.810  16.483  1.4754  2.4171 -3.7979
 6509TIP3    H241019   4.089   5.852  16.453 -0.3036  0.3805  0.7997
 6510TIP3   OH241020   3.690   1.615   2.729  0.5047  0.7510  0.1530
 6510TIP3    H141021   3.771   1.633   2.682 -0.8096  0.3615 -2.4886
 6510TIP3    H241022   3.648   1.546   2.677 -0.0859 -1.4240  3.2316
 6511TIP3   OH241023   0.335   6.004  12.428 -0.5886  0.0787  0.7666
 6511TIP3    H141024   0.294   5.969  12.349 -2.7302 -0.1690  1.9230
 6511TIP3    H241025   0.297   6.091  12.438  0.6538  0.6394  0.8588
 6512TIP3   OH241026   4.350   2.105  15.875  0.3988  0.1652 -0.5279
 6512TIP3    H141027   4.419   2.039  15.884  1.3203  1.1256 -0.3924
 6512TIP3    H241028   4.270   2.060  15.902  0.6893 -1.4329 -2.1564
 6513TIP3   OH241029   1.553   4.815   1.925 -0.3690  0.4902 -0.2286
 6513TIP3    H141030   1.470   4.774   1.949 -0.7284  1.3761  0.0823
 6513TIP3    H241031   1.615   4.742   1.916 -0.3256  0.0347  2.8901
 6514TIP3   OH241032   4.168   2.068   0.638 -0.4419  0.4764  0.2938
 6514TIP3    H141033   4.175   2.040   0.547  1.0658 -0.4508  0.6544
 6514TIP3    H241034   4.160   1.986   0.687 -3.1788  1.0234  0.8946
 6515TIP3   OH241035   5.804   4.189   1.918  0.6014  0.3019  0.1010
 6515TIP3    H141036   5.877   4.127   1.913  1.4378  1.3478 -1.4741
 6515TIP3    H241037   5.786   4.212   1.827  0.9845  3.0726  0.6211
 6516TIP3   OH241038   1.450   5.828  14.554  0.1370  0.9367 -0.2183
 6516TIP3    H141039   1.408   5.742  14.566  0.3908  0.8975  0.4595
 6516TIP3    H241040   1.428   5.853  14.465 -0.1853  0.2939 -0.3289
 6517TIP3   OH241041   5.972   4.644   4.250  0.4674 -0.0583 -0.5623
 6517TIP3    H141042   6.044   4.639   4.188  0.6286 -1.2546 -0.2959
 6517TIP3    H241043   6.012   4.632   4.336  0.2414  1.5580 -0.1836
 6518TIP3   OH241044   1.213   4.194   3.697 -0.3119 -0.0049  0.0903
 6518TIP3    H141045   1.149   4.244   3.647  0.9947  0.6061 -1.0540
 6518TIP3    H241046   1.228   4.115   3.644  0.4984  0.2704 -0.1121
 6519TIP3   OH241047   0.168   3.269  15.555 -0.2221 -0.1032 -0.1272
 6519TIP3    H141048   0.236   3.318  15.602 -1.7483  2.2607 -0.2256
 6519TIP3    H241049   0.181   3.178  15.583  0.4411  0.8222  3.0263
 6520TIP3   OH241050   4.643   5.732  16.291 -0.6714 -0.5484  0.5782
 6520TIP3    H141051   4.686   5.814  16.265  0.0930 -0.4332  2.1142
 6520TIP3    H241052   4.552   5.745  16.266  0.1622 -1.1800 -3.6920
 6521TIP3   OH241053   5.929   2.122   5.049  0.5025  0.2876  0.2826
 6521TIP3    H141054   6.023   2.116   5.068  0.9369 -1.7707 -1.9503
 6521TIP3    H241055   5.919   2.207   5.006  1.4578  0.3027  0.0645
 6522TIP3   OH241056   5.310   0.170  13.453 -0.2891  0.6773 -0.3906
 6522TIP3    H141057   5.242   0.228  13.488  0.5472  1.5522 -0.1789
 6522TIP3    H241058   5.364   0.226  13.399  2.3958  0.9101  2.2670
 6523TIP3   OH241059   3.061   4.404   4.437 -0.0671 -0.5291  0.1770
 6523TIP3    H141060   3.122   4.334   4.413  0.5274 -1.1618  3.1500
 6523TIP3    H241061   3.109   4.485   4.419  0.6483 -0.9579  0.1042
 6524TIP3   OH241062   3.715   2.337  14.332 -0.2611 -0.0575  0.4004
 6524TIP3    H141063   3.685   2.426  14.314 -0.3833 -0.3976 -1.1577
 6524TIP3    H241064   3.811   2.343  14.330 -0.2623  0.0919  0.6535
 6525TIP3   OH241065   0.479   4.460   2.490 -0.4949  0.0961 -0.2425
 6525TIP3    H141066   0.540   4.412   2.434  0.6835  1.2705 -0.0168
 6525TIP3    H241067   0.395   4.416   2.477  0.6765 -2.5832  0.6437
 6526TIP3   OH241068   1.423   3.739  15.525 -0.4225  0.2256 -0.3583
 6526TIP3    H141069   1.494   3.675  15.528  0.4957  1.2616  1.2499
 6526TIP3    H241070   1.344   3.686  15.516  0.2025 -1.2966  1.9986
 6527TIP3   OH241071   0.555   6.534  13.066 -0.2550 -0.4337  0.0543
 6527TIP3    H141072   0.475   6.522  13.117  1.3793 -1.4770  2.5442
 6527TIP3    H241073   0.596   6.448  13.064  0.9269  0.1134 -1.0493
 6528TIP3   OH241074   5.346   1.253  16.808 -0.1123  0.0361  0.4892
 6528TIP3    H141075   5.261   1.285  16.777  0.1245 -1.0746 -1.5061
 6528TIP3    H241076   5.326   1.208  16.890 -1.9364 -2.3067 -1.1118
 6529TIP3   OH241077   5.845   5.396   2.116 -0.1696 -0.6311 -0.0281
 6529TIP3    H141078   5.885   5.446   2.188  1.2937  1.4495 -2.1125
 6529TIP3    H241079   5.752   5.396   2.136 -0.2430  2.8381  0.3171
 6530TIP3   OH241080   2.076   4.491  16.297 -0.5956 -0.5109 -0.5703
 6530TIP3    H141081   2.046   4.552  16.230  0.3999 -0.1040 -0.6648
 6530TIP3    H241082   2.057   4.536  16.380  3.5265  1.8257 -0.5881
 6531TIP3   OH241083   6.726   3.570  11.151  0.3187  0.2744 -0.4412
 6531TIP3    H141084   6.707   3.638  11.086 -0.0193  1.2472  0.6375
 6531TIP3    H241085   6.660   3.502  11.135  0.2487  0.4907 -1.1146
 6532TIP3   OH241086   4.902   3.131  16.770 -0.1534 -0.0164  0.6698
 6532TIP3    H141087   4.868   3.220  16.781  0.7837  0.1856  2.3295
 6532TIP3    H241088   4.978   3.141  16.713  0.1221  0.3098  1.0858
 6533TIP3   OH241089   2.757   6.662   5.252  0.3754 -0.3827  0.5461
 6533TIP3    H141090   2.806   6.653   5.171 -0.8151 -0.1785 -0.2270
 6533TIP3    H241091   2.744   6.573   5.283 -0.9770 -0.6367 -0.6401
 6534TIP3   OH241092   1.526   3.603  11.123  0.1081 -0.4298  0.0185
 6534TIP3    H141093   1.621   3.593  11.126  0.5401  2.5947 -0.4472
 6534TIP3    H241094   1.504   3.602  11.030 -0.3889 -1.3266  0.1305
 6535TIP3   OH241095   4.704   6.386   3.142 -0.3569  0.4690 -0.6468
 6535TIP3    H141096   4.770   6.358   3.078  1.0063  0.6030  0.6562
 6535TIP3    H241097   4.677   6.305   3.185 -1.5882  0.3208 -1.6242
 6536TIP3   OH241098   2.709   3.941  15.019  0.4571  0.3382 -0.0299
 6536TIP3    H141099   2.692   3.989  14.938  1.7908  1.2805  0.2079
 6536TIP3    H241100   2.780   3.881  14.997 -0.4276 -0.7249 -0.0249
 6537TIP3   OH241101   5.559   5.559  11.014  0.2220 -0.3899 -0.0017
 6537TIP3    H141102   5.632   5.581  11.072  0.3145  0.2438 -0.3599
 6537TIP3    H241103   5.515   5.642  10.997 -0.3243 -0.7005 -0.1472
 6538TIP3   OH241104   6.632   3.945  16.778 -0.2459  0.3588 -0.0888
 6538TIP3    H141105   6.634   4.005  16.853 -0.9765  0.7287 -0.3649
 6538TIP3    H241106   6.621   4.001  16.702  1.3470  0.0593 -0.5901
 6539TIP3   OH241107   3.419   0.515   0.316  0.2525  0.0909  0.5509
 6539TIP3    H141108   3.373   0.591   0.352 -1.1335 -0.5668  0.2549
 6539TIP3    H241109   3.403   0.520   0.222  4.1632  2.0085 -0.2264
 6540TIP3   OH241110   5.720   5.276   2.494  0.2711 -0.0035 -0.0813
 6540TIP3    H141111   5.733   5.193   2.540  1.9537  0.4779  0.3782
 6540TIP3    H241112   5.626   5.278   2.474  0.3249 -2.3961 -0.8555
 6541TIP3   OH241113   1.842   1.046   2.052 -0.4380 -0.3949  0.2990
 6541TIP3    H141114   1.848   1.130   2.098  3.0335 -1.0011  1.2404
 6541TIP3    H241115   1.814   1.069   1.963  1.5193  1.9795  0.1794
 6542TIP3   OH241116   2.856   4.304  16.153 -0.5202 -0.2349  0.1871
 6542TIP3    H141117   2.907   4.344  16.083  0.2750  2.6361  2.1976
 6542TIP3    H241118   2.900   4.221  16.172  0.8384  0.1927 -0.9539
 6543TIP3   OH241119   3.219   6.050  15.215  0.1577  0.5721 -0.8263
 6543TIP3    H141120   3.282   5.986  15.182 -0.1172  0.9742 -2.2201
 6543TIP3    H241121   3.270   6.130  15.227  0.0465  0.7381 -1.4040
 6544TIP3   OH241122   1.455   5.297  16.837  0.8841 -0.2606  0.0857
 6544TIP3    H141123   1.399   5.219  16.832 -1.1995  1.1324  0.6469
 6544TIP3    H241124   1.538   5.263  16.870  0.8109 -2.5760 -1.8091
 6545TIP3   OH241125   2.535   1.169   1.258  0.6750  0.3016 -0.4449
 6545TIP3    H141126   2.573   1.084   1.235 -0.1851 -0.2785  0.2246
 6545TIP3    H241127   2.602   1.232   1.234  2.4452 -0.7373  1.4460
 6546TIP3   OH241128   3.490   1.683   3.158  0.1815  0.4923 -0.4703
 6546TIP3    H141129   3.573   1.666   3.203  0.2183  2.8184  0.5225
 6546TIP3    H241130   3.496   1.775   3.131 -0.8145 -0.1712 -3.2557
 6547TIP3   OH241131   3.814   6.399   2.675 -0.4181 -0.4866  0.3271
 6547TIP3    H141132   3.799   6.380   2.582  0.6417 -1.2071  0.2803
 6547TIP3    H241133   3.867   6.479   2.675 -0.1850 -0.6387  0.2899
 6548TIP3   OH241134   5.124   0.732  14.798 -0.0321  0.5050  0.7517
 6548TIP3    H141135   5.161   0.683  14.871  0.8473 -1.3754 -0.8383
 6548TIP3    H241136   5.031   0.707  14.797  0.2638 -0.6476  0.3772
 6549TIP3   OH241137   1.023   2.991  14.018  0.8330  0.0583 -0.1321
 6549TIP3    H141138   1.004   2.935  13.943  2.3830  0.8057 -1.1364
 6549TIP3    H241139   0.939   3.001  14.063 -0.1384 -0.3856 -1.7927
 6550TIP3   OH241140   0.894   1.889   1.580  0.5252  0.5127 -0.1877
 6550TIP3    H141141   0.952   1.909   1.654 -1.0791  0.8271  1.0225
 6550TIP3    H241142   0.825   1.835   1.617 -0.4011  0.8020 -1.4295
 6551TIP3   OH241143   6.824   1.905   3.994  0.0982  0.6299 -0.1331
 6551TIP3    H141144   6.766   1.925   4.068 -2.3793  0.0542 -1.7712
 6551TIP3    H241145   6.856   1.817   4.013 -0.8675  0.3077  0.0981
 6552TIP3   OH241146   1.078   3.877   1.134  0.0499 -0.5707  0.4963
 6552TIP3    H141147   1.094   3.823   1.211  1.9351 -0.2425  0.3924
 6552TIP3    H241148   1.166   3.903   1.105 -0.5083 -1.6240 -2.4413
 6553TIP3   OH241149   2.926   0.450  13.024 -0.0494 -0.4698 -0.2643
 6553TIP3    H141150   2.875   0.369  13.022 -0.8212 -0.0226  0.4607
 6553TIP3    H241151   2.864   0.516  13.053  0.1370  0.7262 -2.3953
 6554TIP3   OH241152   1.490   4.386   5.531 -0.0676  0.3031  0.1413
 6554TIP3    H141153   1.489   4.462   5.589  0.4904 -0.2364  0.8700
 6554TIP3    H241154   1.545   4.412   5.458  1.4520  0.0653  1.1524
 6555TIP3   OH241155   2.305   1.460  12.969 -0.7418 -0.2544  0.2263
 6555TIP3    H141156   2.322   1.430  12.879 -1.4779  0.8927 -0.3252
 6555TIP3    H241157   2.246   1.393  13.005  0.0889 -1.0777  0.1045
 6556TIP3   OH241158   5.619   1.257  16.832  0.4020 -0.2510 -0.1358
 6556TIP3    H141159   5.525   1.276  16.836  0.4172 -0.4347  1.5461
 6556TIP3    H241160   5.624   1.181  16.774 -0.4240  0.0920 -0.6871
 6557TIP3   OH241161   3.174   0.914   5.342 -0.2452  0.2655 -0.2726
 6557TIP3    H141162   3.105   0.851   5.362 -0.1466 -0.4817 -2.1437
 6557TIP3    H241163   3.159   0.986   5.403 -1.6987 -0.5924  0.4231
 6558TIP3   OH241164   5.795   2.873  15.263 -0.4767  0.0844  0.1995
 6558TIP3    H141165   5.801   2.964  15.233 -0.5704  0.5817  1.5942
 6558TIP3    H241166   5.836   2.874  15.350  0.0790 -1.3473 -0.0237
 6559TIP3   OH241167   2.253   0.358  16.306  0.3908 -0.4383  0.3991
 6559TIP3    H141168   2.292   0.402  16.231  2.0347 -3.6075 -0.8167
 6559TIP3    H241169   2.254   0.423  16.376 -0.9521  2.5517 -2.1646
 6560TIP3   OH241170   5.589   0.013   6.388  0.0103  0.3649 -0.3464
 6560TIP3    H141171   5.498  -0.011   6.374  0.1851 -0.0920 -0.7205
 6560TIP3    H241172   5.601   0.007   6.483 -0.0689 -0.6097 -0.3893
 6561TIP3   OH241173   5.188   5.314  16.008  0.3791 -0.2062 -0.2106
 6561TIP3    H141174   5.267   5.307  16.061  0.1539 -1.8587 -0.0447
 6561TIP3    H241175   5.124   5.355  16.066  0.0035 -2.3865  1.0376
 6562TIP3   OH241176   3.657   5.522   4.953 -0.3330 -0.6928 -0.4457
 6562TIP3    H141177   3.649   5.527   4.858  1.2741 -1.2817 -0.6441
 6562TIP3    H241178   3.577   5.561   4.986 -1.4101 -1.4492 -2.0473
 6563TIP3   OH241179   0.752   3.002   5.329 -0.1701 -0.1339 -0.6242
 6563TIP3    H141180   0.686   2.946   5.288 -1.2421 -0.4968  1.4581
 6563TIP3    H241181   0.813   2.941   5.372  0.3681  0.2461 -0.8280
 6564TIP3   OH241182   0.494   3.086  16.278 -0.4787 -1.0015 -0.2660
 6564TIP3    H141183   0.516   3.027  16.350 -1.5638 -1.8080 -0.5703
 6564TIP3    H241184   0.575   3.093  16.227  1.0692  1.4679  2.2447
 6565TIP3   OH241185   0.079   6.643   1.322  0.3567 -0.1404  0.3088
 6565TIP3    H141186   0.098   6.663   1.230  0.9148 -1.0300  0.2208
 6565TIP3    H241187   0.112   6.555   1.335  1.2122  0.3430  1.6479
 6566TIP3   OH241188   0.181   4.350  13.157 -0.4039  0.1690  0.0211
 6566TIP3    H141189   0.133   4.303  13.225 -1.2820 -1.2422 -1.5008
 6566TIP3    H241190   0.204   4.283  13.093  1.6076  1.2173 -0.4419
 6567TIP3   OH241191   6.625   1.620  13.374  0.3059 -0.5778  0.1973
 6567TIP3    H141192   6.583   1.656  13.452  0.3723  2.4046 -0.9880
 6567TIP3    H241193   6.718   1.622  13.393  0.7248  3.8508 -1.0543
 6568TIP3   OH241194   5.745   6.803  15.210  0.4279  0.0103 -0.6589
 6568TIP3    H141195   5.822   6.816  15.266 -1.5009  1.1678  1.9289
 6568TIP3    H241196   5.703   6.724  15.243 -0.7360  0.6928 -0.4298
 6569TIP3   OH241197   0.959   2.427   0.059  0.0151  0.5658  0.3151
 6569TIP3    H141198   0.962   2.374  -0.020 -0.6447  1.4019 -0.2762
 6569TIP3    H241199   1.044   2.472   0.061  0.6314 -0.5642  0.8900
 6570TIP3   OH241200   3.794   4.559   4.901  0.0918 -0.5872 -0.1075
 6570TIP3    H141201   3.833   4.557   4.813  0.0933 -1.3045 -0.0913
 6570TIP3    H241202   3.701   4.579   4.885  0.4375  1.2370 -0.1391
 6571TIP3   OH241203   2.960   6.013  15.347  0.1012 -0.4586  0.4857
 6571TIP3    H141204   2.964   6.072  15.422  0.4519  0.3217 -0.1325
 6571TIP3    H241205   3.036   6.035  15.294 -1.1942  0.4089 -1.1110
 6572TIP3   OH241206   2.266   2.093   2.670  0.4679 -0.4863  0.4165
 6572TIP3    H141207   2.213   2.073   2.746  0.5158  0.6591  0.7655
 6572TIP3    H241208   2.356   2.077   2.698  0.4646 -0.3435  0.5075
 6573TIP3   OH241209   4.634   6.559   6.852  0.5996  0.6495 -0.2705
 6573TIP3    H141210   4.595   6.576   6.937  2.1681  1.6453  0.2848
 6573TIP3    H241211   4.570   6.593   6.789 -0.6844 -0.3183  0.4522
 6574TIP3   OH241212   1.606   4.185  11.190  0.4205  0.0588  0.4323
 6574TIP3    H141213   1.645   4.124  11.253  1.0141 -0.8198 -0.7443
 6574TIP3    H241214   1.650   4.268  11.208  3.0948 -0.9221 -0.9448
 6575TIP3   OH241215   0.774   4.195  10.611  0.4530  0.2467 -0.1315
 6575TIP3    H141216   0.723   4.210  10.691 -0.0660 -0.4204 -0.3208
 6575TIP3    H241217   0.834   4.124  10.634  0.2287 -0.0203 -0.3500
 6576TIP3   OH241218   3.892   3.768   3.516 -0.0670 -0.2921  0.3652
 6576TIP3    H141219   3.943   3.842   3.485 -1.0580  1.0684  1.8259
 6576TIP3    H241220   3.827   3.806   3.576  0.0466 -2.4208  1.9874
 6577TIP3   OH241221   3.358   5.692   0.259  0.2430  0.1316 -0.1862
 6577TIP3    H141222   3.347   5.757   0.190  0.7750 -1.2615 -1.6372
 6577TIP3    H241223   3.292   5.626   0.241 -0.1620  0.1433  1.1525
 6578TIP3   OH241224   6.009   1.523   4.024 -0.5893 -0.0371 -0.4139
 6578TIP3    H141225   6.055   1.563   4.098 -0.8063  0.7674 -0.7083
 6578TIP3    H241226   6.022   1.429   4.037  0.7784  0.1454 -0.2510
 6579TIP3   OH241227   0.782   2.668   2.404 -0.1891 -0.0316 -0.0635
 6579TIP3    H141228   0.832   2.587   2.418  0.2065  0.2820  0.3833
 6579TIP3    H241229   0.818   2.729   2.468  0.2380  0.8187 -1.0870
 6580TIP3   OH241230   4.809   4.683  16.634 -0.2987 -0.6347 -0.3537
 6580TIP3    H141231   4.780   4.663  16.723 -1.6700  0.3258 -0.5417
 6580TIP3    H241232   4.903   4.667  16.634 -0.6064 -2.7369  0.6645
 6581TIP3   OH241233   4.848   1.919  14.307 -0.0934 -0.1852 -0.2583
 6581TIP3    H141234   4.910   1.992  14.298  1.0339 -1.0216  0.5143
 6581TIP3    H241235   4.833   1.912  14.402  0.3906 -1.4142 -0.2567
 6582TIP3   OH241236   1.199   0.269  10.816  0.1790 -0.0339  0.1625
 6582TIP3    H141237   1.288   0.236  10.810  1.0837  2.0972  0.8783
 6582TIP3    H241238   1.144   0.191  10.817  2.0024 -1.3822 -0.6474
 6583TIP3   OH241239   1.564   0.661  11.314  0.5623  0.4886 -0.2453
 6583TIP3    H141240   1.534   0.642  11.403 -0.5804 -1.1439 -0.9209
 6583TIP3    H241241   1.502   0.614  11.257  0.8511  2.0393 -1.9398
 6584TIP3   OH241242   5.692   3.836   5.867  0.1060  0.4187  0.2708
 6584TIP3    H141243   5.676   3.794   5.951  0.7509 -0.2956  0.0493
 6584TIP3    H241244   5.766   3.788   5.830 -0.1058  0.7899 -0.6602
 6585TIP3   OH241245   1.360   6.582  14.021  0.7875 -0.3123 -0.5143
 6585TIP3    H141246   1.394   6.493  14.027  0.6073 -0.3591 -0.2020
 6585TIP3    H241247   1.310   6.583  13.940 -0.9389 -1.0869  0.4937
 6586TIP3   OH241248   1.929   4.451   2.408  0.7774 -0.5584 -0.5002
 6586TIP3    H141249   1.893   4.432   2.321  0.4398 -2.2709 -0.0262
 6586TIP3    H241250   1.983   4.375   2.428  0.3675 -0.4679  1.0479
 6587TIP3   OH241251   6.236   5.517  13.288  0.0178 -0.1115 -0.6127
 6587TIP3    H141252   6.307   5.581  13.278 -2.4179  2.9561  0.1845
 6587TIP3    H241253   6.229   5.505  13.383 -0.7814 -0.0185 -0.6574
 6588TIP3   OH241254   3.047   5.145  14.451 -0.5720 -0.0068  0.3360
 6588TIP3    H141255   3.129   5.132  14.498 -1.1607  0.5114  1.5345
 6588TIP3    H241256   2.979   5.130  14.516 -1.4379 -0.2117 -0.5844
 6589TIP3   OH241257   0.167   1.280  15.373 -0.9260  0.4591 -0.4594
 6589TIP3    H141258   0.246   1.242  15.413  0.3190  0.5547 -2.6917
 6589TIP3    H241259   0.198   1.354  15.322 -2.4351  0.4350 -1.4995
 6590TIP3   OH241260   4.519   6.464   5.818  0.0011 -0.2091  0.3864
 6590TIP3    H141261   4.569   6.535   5.858 -0.5591 -0.0716  0.8536
 6590TIP3    H241262   4.552   6.459   5.728 -0.0044  0.6869  0.3248
 6591TIP3   OH241263   0.887   1.606  14.423  0.1909 -0.0456  0.9824
 6591TIP3    H141264   0.794   1.583  14.421  0.5081 -1.3604  0.4329
 6591TIP3    H241265   0.916   1.584  14.512  0.4699 -1.7735  0.4905
 6592TIP3   OH241266   0.210   0.769   5.087  0.1250 -0.4090 -0.7117
 6592TIP3    H141267   0.299   0.736   5.076 -0.1833 -0.8894 -1.8890
 6592TIP3    H241268   0.210   0.808   5.175  1.4596 -0.4844 -0.6540
 6593TIP3   OH241269   6.244   4.066   3.973  0.6821  0.1273  0.3658
 6593TIP3    H141270   6.313   4.050   4.037 -0.1867 -0.3408  1.2033
 6593TIP3    H241271   6.289   4.064   3.889  2.2186  2.7523  1.0088
 6594TIP3   OH241272   6.660   5.671  12.608  0.4476 -0.1199 -0.1755
 6594TIP3    H141273   6.603   5.747  12.624  1.0515  0.0536  1.3026
 6594TIP3    H241274   6.744   5.709  12.584  0.4419 -0.3457 -0.5587
 6595TIP3   OH241275   4.627   6.161  10.602  0.0325 -0.2868 -0.3983
 6595TIP3    H141276   4.668   6.245  10.584 -1.7007  0.5287 -0.7469
 6595TIP3    H241277   4.533   6.178  10.597 -0.3931 -1.9799  0.7387
 6596TIP3   OH241278   4.317   0.492   2.453 -0.6823 -0.0632  0.4612
 6596TIP3    H141279   4.282   0.564   2.400  0.2746 -0.0631 -0.1900
 6596TIP3    H241280   4.391   0.531   2.500  0.4755 -0.8424 -0.6584
 6597TIP3   OH241281   6.696   2.001  11.616 -0.4664 -0.1002 -0.2560
 6597TIP3    H141282   6.787   2.025  11.636 -0.4623 -0.4263  0.1203
 6597TIP3    H241283   6.702   1.914  11.576 -0.5409  0.2412 -1.0434
 6598TIP3   OH241284   3.716   1.407  13.449 -0.4161  0.2808 -0.4949
 6598TIP3    H141285   3.787   1.378  13.391  0.5022  0.0772  0.7075
 6598TIP3    H241286   3.656   1.454  13.391  0.5367  0.1832 -1.5931
 6599TIP3   OH241287   0.706   6.396   5.804  0.5598  0.2271  0.4551
 6599TIP3    H141288   0.773   6.336   5.773 -1.0652 -1.2885 -0.2602
 6599TIP3    H241289   0.745   6.438   5.881  3.1208  1.0434 -1.1821
 6600TIP3   OH241290   1.277   3.838   3.039  0.4979 -0.1172 -0.4485
 6600TIP3    H141291   1.289   3.923   3.081  1.5023 -0.7369  0.5577
 6600TIP3    H241292   1.232   3.784   3.104  2.6848 -1.2991  0.1776
 6601TIP3   OH241293   2.226   6.721   1.216  0.1238 -0.5754  0.6598
 6601TIP3    H141294   2.315   6.701   1.246  0.5632  0.4308  0.0675
 6601TIP3    H241295   2.170   6.699   1.291  1.0191  0.0909  1.5500
 6602TIP3   OH241296   2.629   4.315  14.735  0.4055  0.2715  0.2811
 6602TIP3    H141297   2.581   4.305  14.817 -1.9445 -0.3951 -1.0877
 6602TIP3    H241298   2.573   4.370  14.681  0.5486 -1.5407 -1.8419
 6603TIP3   OH241299   6.735   5.613   3.020 -0.0744 -0.2485 -0.4507
 6603TIP3    H141300   6.695   5.533   3.052 -0.0525  0.6791  2.1307
 6603TIP3    H241301   6.727   5.608   2.925 -2.2467 -2.1630 -0.2412
 6604TIP3   OH241302   4.905   3.798  10.494 -0.3698  0.7779  0.2120
 6604TIP3    H141303   4.917   3.876  10.549  1.2548 -0.0865  1.1212
 6604TIP3    H241304   4.924   3.724  10.551 -2.6565 -0.3902 -0.4120
 6605TIP3   OH241305   1.049   1.929   3.168  0.3698 -0.2678 -0.0276
 6605TIP3    H141306   1.000   2.003   3.205 -0.6069 -1.6204  1.5719
 6605TIP3    H241307   1.001   1.906   3.088 -0.7761 -0.6279  0.7308
 6606TIP3   OH241308   2.873   1.320   0.269  0.2930 -0.1635  0.6793
 6606TIP3    H141309   2.952   1.373   0.280  1.3579 -1.8640  1.6588
 6606TIP3    H241310   2.851   1.292   0.358  0.3513 -2.1295  0.1124
 6607TIP3   OH241311   0.497   2.816  10.672  0.2455 -0.5000  0.2757
 6607TIP3    H141312   0.545   2.814  10.589 -0.5131  1.3292 -0.2483
 6607TIP3    H241313   0.462   2.728  10.681  2.4812 -1.4944 -0.0209
 6608TIP3   OH241314   5.632   5.019   2.318 -0.2593  0.1713 -0.0315
 6608TIP3    H141315   5.632   4.930   2.285  0.0499  0.2158 -0.1564
 6608TIP3    H241316   5.717   5.054   2.292 -0.2734  0.4147  0.2491
 6609TIP3   OH241317   0.417   2.288  15.299 -0.0949 -0.1273  0.2002
 6609TIP3    H141318   0.388   2.253  15.383 -0.2068  0.5806  0.4631
 6609TIP3    H241319   0.469   2.366  15.322 -1.5726  1.0988 -0.4289
 6610TIP3   OH241320   3.502   5.046   0.075  0.0867  0.1781 -0.0866
 6610TIP3    H141321   3.469   5.104   0.144  0.1667  0.3423 -0.1854
 6610TIP3    H241322   3.543   5.105   0.011  0.3412 -0.0007 -0.0928
 6611TIP3   OH241323   6.199   6.082  14.968  0.1507  0.2242  0.1697
 6611TIP3    H141324   6.219   6.086  14.875  0.8995  2.3905  0.3646
 6611TIP3    H241325   6.256   6.014  15.002  0.4619 -0.0243 -0.8187
 6612TIP3   OH241326   1.071   2.493   5.495  0.6047 -0.1170  0.4584
 6612TIP3    H141327   1.092   2.443   5.416  1.6348 -1.9698  1.8292
 6612TIP3    H241328   0.976   2.489   5.501  0.6726 -3.7855  1.5480
 6613TIP3   OH241329   3.657   4.526  13.374 -0.0988  0.4560  0.0475
 6613TIP3    H141330   3.728   4.465  13.352 -1.0320  0.0491 -2.1805
 6613TIP3    H241331   3.588   4.505  13.311 -1.8707  1.4303  1.5740
 6614TIP3   OH241332   5.242   4.400   6.009 -0.5808 -0.0761  0.2765
 6614TIP3    H141333   5.253   4.324   5.952 -0.6504 -0.2820  0.5326
 6614TIP3    H241334   5.298   4.467   5.971 -1.6149  0.2184 -0.7748
 6615TIP3   OH241335   3.883   1.165  16.355  0.6373 -0.2279  0.4695
 6615TIP3    H141336   3.902   1.183  16.447 -0.4460 -0.5295  0.7567
 6615TIP3    H241337   3.791   1.188  16.344  0.1503 -2.2532 -0.0012
 6616TIP3   OH241338   1.958   0.488  11.578  0.1368  0.0171 -0.0868
 6616TIP3    H141339   2.028   0.505  11.642 -1.2289  1.2547  1.1454
 6616TIP3    H241340   2.004   0.453  11.502  1.8123 -1.9353  1.6687
 6617TIP3   OH241341   6.475   2.894  14.738  0.8814 -0.2280 -0.0989
 6617TIP3    H141342   6.479   2.840  14.658  0.6476  0.1770 -0.3839
 6617TIP3    H241343   6.406   2.854  14.790 -0.1359  0.5216 -0.8472
 6618TIP3   OH241344   0.252   0.566  11.286 -0.1772 -0.0007 -0.7883
 6618TIP3    H141345   0.301   0.646  11.304  1.3662 -1.1507  0.4715
 6618TIP3    H241346   0.166   0.596  11.259  0.5766  2.0847 -1.0607
 6619TIP3   OH241347   6.299   6.056  14.689  0.3172 -0.0756  0.6360
 6619TIP3    H141348   6.237   6.119  14.652 -0.7877 -1.6823 -0.4093
 6619TIP3    H241349   6.359   6.036  14.617  1.2286  0.4494  1.2359
 6620TIP3   OH241350   6.456   5.117   3.519 -0.1514 -0.1661 -0.6637
 6620TIP3    H141351   6.410   5.121   3.602 -2.5619 -0.8599 -1.8546
 6620TIP3    H241352   6.533   5.062   3.536  0.7461  1.6556  1.5896
 6621TIP3   OH241353   4.648   2.196  12.249 -0.1440  0.3928  0.1762
 6621TIP3    H141354   4.681   2.189  12.160  1.0939 -3.4970  0.7427
 6621TIP3    H241355   4.559   2.160  12.245  0.3288 -0.9192  0.5860
 6622TIP3   OH241356   6.327   4.728  14.880 -0.1144  0.7310 -0.2471
 6622TIP3    H141357   6.246   4.773  14.901 -0.7141 -0.9090  1.2259
 6622TIP3    H241358   6.392   4.766  14.938 -0.3743  0.4661  0.2245
 6623TIP3   OH241359   0.705   6.092   5.124  0.0973 -0.3680  0.0926
 6623TIP3    H141360   0.626   6.105   5.071 -0.1269 -1.9596 -0.0083
 6623TIP3    H241361   0.755   6.026   5.077  1.0923 -0.0167  0.6164
 6624TIP3   OH241362   0.243   1.898  11.426  0.5765 -0.5561 -0.1078
 6624TIP3    H141363   0.193   1.977  11.404  0.3204  0.2159  2.7575
 6624TIP3    H241364   0.328   1.911  11.383  1.3166  2.4183  1.8841
 6625TIP3   OH241365   5.736   5.591  15.599 -0.0468 -0.6765 -0.4187
 6625TIP3    H141366   5.816   5.636  15.628 -0.0060 -1.5831  0.9571
 6625TIP3    H241367   5.665   5.634  15.647 -0.3872 -0.0327 -1.4567
 6626TIP3   OH241368   1.058   5.188  15.016 -0.9288 -0.2252  0.4478
 6626TIP3    H141369   0.966   5.216  15.022 -1.8133 -2.6006 -0.7029
 6626TIP3    H241370   1.054   5.103  14.970  1.9699  0.2649 -0.9248
 6627TIP3   OH241371   2.118   4.179  16.849 -0.2304  0.3539  0.0591
 6627TIP3    H141372   2.212   4.197  16.845 -0.0538 -0.1300  1.3903
 6627TIP3    H241373   2.087   4.191  16.760  0.9101  1.5340 -0.1994
 6628TIP3   OH241374   0.039   1.889  12.259 -0.0657  0.3577 -0.0275
 6628TIP3    H141375   0.034   1.814  12.318  0.5205  0.1115 -0.2732
 6628TIP3    H241376   0.104   1.863  12.193 -0.1312  0.9325 -0.3291
 6629TIP3   OH241377   0.575   6.797   4.744  0.1628  0.8690 -0.2402
 6629TIP3    H141378   0.536   6.800   4.831 -0.3537 -0.9556 -0.3549
 6629TIP3    H241379   0.670   6.794   4.760  0.1254  1.7283  0.1922
 6630TIP3   OH241380   5.559   3.160   0.975 -0.3001 -0.4885 -0.3790
 6630TIP3    H141381   5.632   3.098   0.977  1.7383  1.7163  2.6879
 6630TIP3    H241382   5.583   3.223   0.906  0.9785  0.4130  0.8324
 6631TIP3   OH241383   1.483   0.338  13.597  0.0559 -0.0373  0.0809
 6631TIP3    H141384   1.501   0.293  13.515 -1.0364 -0.4938  0.0792
 6631TIP3    H241385   1.407   0.292  13.634 -0.2413  0.9440  0.7366
 6632TIP3   OH241386   0.135   5.888   3.854 -0.7656 -0.0723 -0.1213
 6632TIP3    H141387   0.135   5.860   3.945 -4.5130 -0.6930 -0.1574
 6632TIP3    H241388   0.208   5.842   3.814  0.1205 -0.8433  2.2602
 6633TIP3   OH241389   5.652   1.750   2.589 -0.0283  0.4780  0.5332
 6633TIP3    H141390   5.557   1.760   2.597 -0.1584  0.6164 -0.9799
 6633TIP3    H241391   5.677   1.816   2.525  0.7715 -1.0040 -0.7424
 6634TIP3   OH241392   3.012   0.824  13.957  0.0643  0.4289  1.0887
 6634TIP3    H141393   2.925   0.784  13.953  0.4375 -0.3280 -0.3574
 6634TIP3    H241394   3.043   0.806  14.046 -0.1806 -1.7601  0.8021
 6635TIP3   OH241395   0.860   2.559  15.156 -0.3926 -0.2202 -0.5383
 6635TIP3    H141396   0.784   2.552  15.213 -0.5039  0.2724 -0.6243
 6635TIP3    H241397   0.830   2.610  15.081  0.3937  1.2549  0.1052
 6636TIP3   OH241398   2.466   1.094  10.820  0.4286  0.1997  0.4861
 6636TIP3    H141399   2.388   1.132  10.779  1.4722  1.2759 -0.5392
 6636TIP3    H241400   2.510   1.047  10.750  1.5478  0.9459  0.6700
 6637TIP3   OH241401   4.778   1.618   3.341 -0.5970  0.1997  0.1126
 6637TIP3    H141402   4.685   1.630   3.359 -1.3782 -0.2783 -3.0067
 6637TIP3    H241403   4.819   1.698   3.375 -2.2398  0.7912  0.8267
 6638TIP3   OH241404   6.278   0.612  15.903 -0.1276 -0.4781 -0.1419
 6638TIP3    H141405   6.191   0.653  15.897 -0.0207 -0.4397 -2.5030
 6638TIP3    H241406   6.337   0.684  15.924 -0.5198 -0.2904  0.3312
 6639TIP3   OH241407   2.867   6.750  11.283 -0.0993 -0.2927 -0.2626
 6639TIP3    H141408   2.867   6.839  11.247 -3.3981  1.2764  2.9320
 6639TIP3    H241409   2.842   6.694  11.210  0.1726  1.6624 -1.9307
 6640TIP3   OH241410   2.682   6.688  14.090 -0.4735  0.6535 -0.1664
 6640TIP3    H141411   2.719   6.693  14.178  0.1919  1.5699 -0.4871
 6640TIP3    H241412   2.612   6.754  14.090 -0.0359  1.1272 -0.5150
 6641TIP3   OH241413   5.052   5.424  15.491 -0.0611 -0.0747 -0.0636
 6641TIP3    H141414   5.094   5.414  15.406  0.4746  0.6384  0.1053
 6641TIP3    H241415   5.125   5.431  15.553 -0.1451  5.1750 -0.1713
 6642TIP3   OH241416   5.346   1.105   2.555 -0.0926 -0.2584  0.1526
 6642TIP3    H141417   5.431   1.063   2.568 -0.1793  0.0127  1.8837
 6642TIP3    H241418   5.361   1.196   2.579 -0.7685 -0.1206  0.0677
 6643TIP3   OH241419   4.221   4.038   2.981 -0.0491  0.4432  0.3425
 6643TIP3    H141420   4.293   3.979   2.959  0.4588  0.3944  1.9617
 6643TIP3    H241421   4.265   4.120   3.004 -0.4876  0.3853  1.4330
 6644TIP3   OH241422   1.844   1.918   4.015 -0.0474 -0.0602 -0.4599
 6644TIP3    H141423   1.836   1.959   3.929 -0.0695 -1.3439 -1.1019
 6644TIP3    H241424   1.845   1.824   3.996  0.6261 -0.3466  0.8958
 6645TIP3   OH241425   6.214   5.799   2.585  0.3292 -0.2945 -0.4653
 6645TIP3    H141426   6.201   5.870   2.648 -0.4873  0.4461 -1.4243
 6645TIP3    H241427   6.305   5.809   2.557  0.9528 -1.1240  1.1342
 6646TIP3   OH241428   3.127   4.630   2.330  0.8662 -0.1096  0.3873
 6646TIP3    H141429   3.049   4.605   2.281  0.6327 -1.2718  1.3152
 6646TIP3    H241430   3.195   4.643   2.263  0.5642 -1.6751 -0.2566
 6647TIP3   OH241431   3.247   3.950   0.239  0.7552 -0.5369  0.9021
 6647TIP3    H141432   3.189   3.991   0.303 -0.7979 -1.2872  0.0350
 6647TIP3    H241433   3.309   4.019   0.215  1.5140 -0.3049  3.3264
 6648TIP3   OH241434   0.016   2.859   0.756 -0.3534  0.3451 -0.3493
 6648TIP3    H141435  -0.066   2.846   0.709  0.0673 -0.6818 -0.8115
 6648TIP3    H241436   0.078   2.800   0.715  0.4772  0.6784  0.3813
 6649TIP3   OH241437   2.498   3.951  13.946 -0.2468 -0.2647 -0.4542
 6649TIP3    H141438   2.491   4.017  13.877 -0.7668  0.1123 -0.0520
 6649TIP3    H241439   2.447   3.987  14.019 -0.7597 -1.2366 -0.3207
 6650TIP3   OH241440   2.718   2.346  11.299 -0.1879 -0.6011 -0.1119
 6650TIP3    H141441   2.769   2.266  11.305  0.8723  0.1180  0.9430
 6650TIP3    H241442   2.633   2.323  11.337  0.7912 -0.7209  2.1799
 6651TIP3   OH241443   1.641   4.744  11.227 -0.3054  0.0628  0.2042
 6651TIP3    H141444   1.624   4.828  11.186  0.3831 -1.0525 -2.6033
 6651TIP3    H241445   1.716   4.760  11.286  0.6224  1.1845 -1.2165
 6652TIP3   OH241446   3.387   1.701   1.006  0.0877 -0.1093 -0.6624
 6652TIP3    H141447   3.338   1.783   1.022 -0.8806 -0.6805 -0.5963
 6652TIP3    H241448   3.406   1.703   0.912 -0.6751 -0.1947 -0.8269
 6653TIP3   OH241449   0.504   4.752   4.949 -0.0132 -0.0434  0.1573
 6653TIP3    H141450   0.429   4.731   4.893 -0.3787  2.3771 -0.3886
 6653TIP3    H241451   0.473   4.735   5.038 -0.1635 -1.8578 -0.2079
 6654TIP3   OH241452   5.693   2.271  11.477  0.1152  0.0495  0.5248
 6654TIP3    H141453   5.632   2.315  11.418  1.2555 -0.0661 -0.7906
 6654TIP3    H241454   5.777   2.313  11.461  1.0622 -1.9338 -0.1233
 6655TIP3   OH241455   2.555   4.209  14.391 -0.4009 -0.0660  0.1349
 6655TIP3    H141456   2.496   4.250  14.328  2.5452 -0.1970 -2.9942
 6655TIP3    H241457   2.608   4.281  14.424  0.5832 -0.4638 -0.5225
 6656TIP3   OH241458   2.596   4.680  12.090  0.2287  0.2792  0.2797
 6656TIP3    H141459   2.631   4.754  12.140  0.0243  0.3986  0.2475
 6656TIP3    H241460   2.501   4.688  12.099  0.2160 -0.6810  1.2951
 6657TIP3   OH241461   5.493   5.325  11.372 -0.0293  0.2361 -0.4940
 6657TIP3    H141462   5.515   5.409  11.413  0.5315 -0.4057  0.5512
 6657TIP3    H241463   5.570   5.305  11.318 -0.1363  0.3561 -0.6932
 6658TIP3   OH241464   5.668   5.170  11.051  0.3469  0.6551  0.4055
 6658TIP3    H141465   5.582   5.209  11.035 -0.2245 -0.8998 -0.4905
 6658TIP3    H241466   5.703   5.220  11.125 -1.3905  1.2011  0.9170
 6659TIP3   OH241467   3.523   4.703  11.323 -0.3883  0.2185  0.3692
 6659TIP3    H141468   3.557   4.761  11.391 -0.6220  0.2581  0.4531
 6659TIP3    H241469   3.428   4.717  11.324 -0.6327 -1.3147  1.4468
 6660TIP3   OH241470   5.696   6.046  13.444 -0.0081  0.3768 -0.6666
 6660TIP3    H141471   5.615   6.041  13.393 -1.0888  3.6993  0.4452
 6660TIP3    H241472   5.758   5.993  13.395 -2.5681 -1.5973 -2.0543
 6661TIP3   OH241473   1.996   0.454  14.743  0.3813 -0.3725  0.5857
 6661TIP3    H141474   1.940   0.393  14.695  1.8405  0.4439 -2.3909
 6661TIP3    H241475   1.971   0.540  14.710  0.8505  0.3268  2.0022
 6662TIP3   OH241476   3.358   3.785   4.006 -0.0660 -0.2347  0.7756
 6662TIP3    H141477   3.450   3.807   3.993 -0.3405  1.8053  1.8791
 6662TIP3    H241478   3.311   3.850   3.953 -0.8897 -1.3460  0.1068
 6663TIP3   OH241479   0.050   5.043  14.177 -0.1376 -0.2911 -0.5593
 6663TIP3    H141480   0.086   5.123  14.139  0.8620 -0.2897  0.3616
 6663TIP3    H241481   0.016   5.070  14.262 -1.5540 -0.4796 -1.0233
 6664TIP3   OH241482   1.497   2.348  15.801  0.3898  0.3427 -0.1689
 6664TIP3    H141483   1.406   2.364  15.827  0.1659  1.0357 -1.3264
 6664TIP3    H241484   1.549   2.377  15.877 -0.1891  3.3206 -0.7970
 6665TIP3   OH241485   5.341   5.811   0.940  0.0136  0.0034  0.8554
 6665TIP3    H141486   5.273   5.759   0.898  2.6201 -1.2800 -2.2150
 6665TIP3    H241487   5.320   5.902   0.918 -1.0620 -0.3078  0.5602
 6666TIP3   OH241488   4.285   0.935   6.273  0.2331  0.3120 -0.1867
 6666TIP3    H141489   4.252   1.020   6.301 -0.3000 -0.7143  2.6909
 6666TIP3    H241490   4.380   0.944   6.275  0.1787  1.0449 -0.6654
 6667TIP3   OH241491   6.449   0.189  14.089  0.1602  0.2913 -0.3555
 6667TIP3    H141492   6.530   0.175  14.138  0.4782  1.1140 -0.6279
 6667TIP3    H241493   6.472   0.168  13.999 -0.1632 -0.2872 -0.3066
 6668TIP3   OH241494   0.900   1.975  15.659 -0.0329  0.0677  0.2253
 6668TIP3    H141495   0.954   2.042  15.616 -1.2955 -0.2377 -1.9689
 6668TIP3    H241496   0.956   1.897  15.661  0.0592  0.0746 -0.9874
 6669TIP3   OH241497   0.634   0.082  12.769  0.4934  0.1433  0.0908
 6669TIP3    H141498   0.657  -0.005  12.802 -0.1412  0.4996  1.5872
 6669TIP3    H241499   0.666   0.083  12.679 -0.4815 -2.0436 -0.3620
 6670TIP3   OH241500   4.324   5.530   5.045  0.2192 -0.3938 -0.0613
 6670TIP3    H141501   4.353   5.580   5.122 -0.8304  2.5325 -1.4079
 6670TIP3    H241502   4.229   5.542   5.043  0.4197  1.8837 -3.1039
 6671TIP3   OH241503   3.905   5.473   3.884 -0.1338  0.2070 -0.6825
 6671TIP3    H141504   3.833   5.460   3.823 -0.9764  1.0729  0.0919
 6671TIP3    H241505   3.906   5.393   3.937 -0.9833  0.4652 -0.2524
 6672TIP3   OH241506   5.960   0.292   1.176  0.0294  0.3761  0.3142
 6672TIP3    H141507   6.032   0.286   1.239 -1.8254 -2.3219  2.4105
 6672TIP3    H241508   5.996   0.257   1.095  0.7313 -2.6782  1.8028
 6673TIP3   OH241509   1.383   3.501   5.387 -0.5627  0.2996 -0.3115
 6673TIP3    H141510   1.322   3.437   5.425  0.3783 -0.0164  0.7024
 6673TIP3    H241511   1.439   3.527   5.460  1.3336 -0.3613 -1.4621
 6674TIP3   OH241512   5.643   6.823   4.074 -1.0038  0.5747  0.2190
 6674TIP3    H141513   5.703   6.751   4.093  0.6424  1.6945 -0.5220
 6674TIP3    H241514   5.557   6.789   4.098 -0.1705 -1.3068  0.7446
 6675TIP3   OH241515   1.151   1.278  11.849  0.1308  0.5402 -0.8927
 6675TIP3    H141516   1.061   1.276  11.882  0.8337 -0.4972  1.0785
 6675TIP3    H241517   1.151   1.217  11.776 -0.7455  0.4835 -0.8522
 6676TIP3   OH241518   5.981   4.533   5.891 -0.2958 -0.0564  0.0452
 6676TIP3    H141519   5.953   4.625   5.889  0.8415  0.3082  0.0878
 6676TIP3    H241520   6.013   4.517   5.802  1.5578  0.2737  0.6188
 6677TIP3   OH241521   1.459   0.615  13.530  0.2027 -0.1769 -0.0409
 6677TIP3    H141522   1.522   0.609  13.458  2.5186  0.4304  1.8052
 6677TIP3    H241523   1.421   0.527  13.536  0.5659 -0.4551 -1.4554
 6678TIP3   OH241524   4.210   4.568  16.427 -0.6187 -0.2116  0.5170
 6678TIP3    H141525   4.270   4.615  16.486 -0.0564  0.2334 -0.3924
 6678TIP3    H241526   4.202   4.481  16.466 -0.4798  0.1651  1.4057
 6679TIP3   OH241527   6.778   3.216  14.258  0.4565  0.1742 -0.0238
 6679TIP3    H141528   6.730   3.167  14.324 -1.2405  2.9606  0.9763
 6679TIP3    H241529   6.759   3.170  14.176  1.1411 -2.3039  1.1155
 6680TIP3   OH241530   3.093   3.697  15.913  0.5411 -0.3982 -0.2135
 6680TIP3    H141531   3.057   3.611  15.936  2.3274 -1.1472 -0.0363
 6680TIP3    H241532   3.183   3.679  15.888  1.1773  1.5330  0.5324
 6681TIP3   OH241533   0.192   0.351  12.979 -0.1012  0.4416 -0.4687
 6681TIP3    H141534   0.185   0.407  12.902 -0.6229  1.1292  0.0531
 6681TIP3    H241535   0.285   0.330  12.986 -0.2958 -1.3930 -2.4834
 6682TIP3   OH241536   3.978   3.039  16.396 -0.5697 -0.0358 -0.0475
 6682TIP3    H141537   3.997   3.008  16.484  0.7630  1.4807  0.2433
 6682TIP3    H241538   4.050   3.006  16.343 -2.5870 -3.0278 -1.1705
 6683TIP3   OH241539   4.484   6.178   2.688  0.8432  0.1375 -0.7432
 6683TIP3    H141540   4.420   6.215   2.749  1.7706  0.7066 -0.0769
 6683TIP3    H241541   4.478   6.083   2.702 -0.7520  0.0745 -1.6405
 6684TIP3   OH241542   6.738   2.274   1.556  0.0599 -0.1889 -0.1771
 6684TIP3    H141543   6.792   2.319   1.621 -1.8264  0.5164  0.9874
 6684TIP3    H241544   6.656   2.323   1.555 -0.3006 -0.7045 -2.4968
 6685TIP3   OH241545   1.837   2.438  16.264 -0.4137 -0.1952 -0.2867
 6685TIP3    H141546   1.762   2.450  16.206 -1.2255  1.8981  1.1121
 6685TIP3    H241547   1.800   2.404  16.345  0.2930 -0.1490  0.0655
 6686TIP3   OH241548   2.096   2.344   5.594 -0.5507 -0.1590 -0.0493
 6686TIP3    H141549   2.145   2.425   5.608 -1.5020  0.6348 -1.1587
 6686TIP3    H241550   2.068   2.318   5.682  0.1091  0.4983  0.3651
 6687TIP3   OH241551   3.434   4.153  12.974  0.5974  0.2334 -0.1904
 6687TIP3    H141552   3.468   4.153  12.885 -0.3351  0.1982 -0.5625
 6687TIP3    H241553   3.358   4.212  12.970 -0.0470 -0.5387  0.3385
 6688TIP3   OH241554   5.902   5.194   0.424  0.2200 -0.0204 -0.0193
 6688TIP3    H141555   5.853   5.277   0.425 -1.4985 -0.9772  0.0829
 6688TIP3    H241556   5.841   5.131   0.385  0.6907 -1.6890  1.7779
 6689TIP3   OH241557   1.923   4.195  14.647  0.1315  0.1459 -0.2217
 6689TIP3    H141558   1.920   4.110  14.602  1.9025 -0.5625  0.8672
 6689TIP3    H241559   1.832   4.224  14.651 -0.6474 -2.1504  0.1705
 6690TIP3   OH241560   4.938   3.822  13.793 -0.3984 -0.3653  0.5456
 6690TIP3    H141561   4.860   3.798  13.743  0.1955 -0.2300 -0.4632
 6690TIP3    H241562   5.010   3.818  13.730  0.5080 -1.0179  1.5788
 6691TIP3   OH241563   2.574   3.508  12.063 -1.1295 -0.0361  0.4675
 6691TIP3    H141564   2.585   3.554  11.980  0.1730 -0.4032  0.4070
 6691TIP3    H241565   2.531   3.426  12.040 -1.4883  0.2097  0.2636
 6692TIP3   OH241566   1.449   5.717  11.646  0.0078  0.2428 -0.0751
 6692TIP3    H141567   1.487   5.803  11.628 -1.3934  0.7586 -0.7175
 6692TIP3    H241568   1.462   5.668  11.564 -2.2960  1.0551 -1.0007
 6693TIP3   OH241569   0.846   6.186   0.763  0.3225  0.4565  0.3829
 6693TIP3    H141570   0.825   6.097   0.736  0.3732  1.1807 -2.2373
 6693TIP3    H241571   0.941   6.188   0.768  0.2892  0.0694  1.7352
 6694TIP3   OH241572   5.890   0.494  16.161  0.2151  0.0558 -0.6255
 6694TIP3    H141573   5.888   0.399  16.161  0.3593  0.0377  0.5955
 6694TIP3    H241574   5.801   0.521  16.139 -0.0121 -0.3592 -0.2001
 6695TIP3   OH241575   5.872   6.271  16.570 -0.8475 -0.2113  0.0744
 6695TIP3    H141576   5.807   6.319  16.519 -0.3894 -0.2002 -0.5151
 6695TIP3    H241577   5.838   6.182  16.574  0.3634 -0.9053 -2.5986
 6696TIP3   OH241578   6.034   1.419   2.165  0.0597 -0.3953  0.2887
 6696TIP3    H141579   6.099   1.380   2.106  0.0987  1.0537 -0.6664
 6696TIP3    H241580   6.086   1.474   2.224 -0.2484  0.3648 -0.1462
 6697TIP3   OH241581   1.028   1.185   1.015 -0.0543  0.1828  0.2684
 6697TIP3    H141582   1.110   1.136   1.026  0.0916  0.5685  0.9186
 6697TIP3    H241583   0.985   1.142   0.941 -0.1619 -1.2552  1.1384
 6698TIP3   OH241584   3.698   5.857   1.356 -0.2100  0.0344 -0.3706
 6698TIP3    H141585   3.703   5.919   1.429  0.5413  0.7166 -0.9847
 6698TIP3    H241586   3.689   5.771   1.398  1.4878  0.2750  0.5797
 6699TIP3   OH241587   6.744   3.542   3.236  0.1907  0.0679 -0.3618
 6699TIP3    H141588   6.800   3.547   3.314 -0.5754 -0.4276  0.2409
 6699TIP3    H241589   6.680   3.612   3.249 -1.0657 -1.1532  0.4027
 6700TIP3   OH241590   3.936   3.106  13.948 -0.1738  0.3690  0.1002
 6700TIP3    H141591   3.970   3.136  13.863  0.2847  0.4744  0.3201
 6700TIP3    H241592   3.901   3.019  13.929  0.5270  0.1131 -0.0639
 6701TIP3   OH241593   6.435   4.033  16.153 -0.2615  0.3645 -0.2106
 6701TIP3    H141594   6.341   4.016  16.165 -0.0772 -0.4828  0.1027
 6701TIP3    H241595   6.440   4.126  16.129 -1.2208  0.2755 -0.7900
 6702TIP3   OH241596   0.366   1.943  14.336  0.3002  0.5303  0.3264
 6702TIP3    H141597   0.380   1.938  14.431 -0.9049  0.7110  0.5216
 6702TIP3    H241598   0.441   1.993  14.304  0.5500  0.7465  1.2184
 6703TIP3   OH241599   0.086   5.631   2.361  0.7280 -0.0709  0.3190
 6703TIP3    H141600   0.000   5.634   2.317 -0.9769  0.4388  3.3886
 6703TIP3    H241601   0.134   5.706   2.326 -1.0874  1.1801  0.3648
 6704TIP3   OH241602   5.347   2.826   4.284 -0.4349 -0.1780 -0.3093
 6704TIP3    H141603   5.438   2.850   4.303 -0.7472  0.3543  0.5530
 6704TIP3    H241604   5.330   2.751   4.340 -0.8133  0.3007  0.2253
 6705TIP3   OH241605   4.695   3.674  12.484  0.0945 -0.1751 -0.0618
 6705TIP3    H141606   4.687   3.584  12.515  0.8000 -0.1402  0.2487
 6705TIP3    H241607   4.772   3.673  12.427  1.1076  0.5581  1.2369
 6706TIP3   OH241608   2.259   2.958  12.940  0.2302 -0.4995  0.3961
 6706TIP3    H141609   2.195   2.950  13.012 -0.5754  0.2514 -0.2019
 6706TIP3    H241610   2.209   3.000  12.869  1.5166  0.5703  0.0758
 6707TIP3   OH241611   2.755   2.827   1.711  0.4341 -0.0045  0.0282
 6707TIP3    H141612   2.735   2.917   1.689  1.2469  0.2274  0.2048
 6707TIP3    H241613   2.780   2.787   1.628 -1.2818 -0.4646 -0.3105
 6708TIP3   OH241614   2.167   4.956   1.551  0.1591 -0.2197  0.3237
 6708TIP3    H141615   2.095   4.940   1.490  0.8947 -2.3885 -0.0478
 6708TIP3    H241616   2.172   5.052   1.557 -1.7867  0.0100 -0.7566
 6709TIP3   OH241617   2.575   5.852   0.204 -0.2894  0.3992  0.3205
 6709TIP3    H141618   2.563   5.779   0.265 -0.0104  1.2020  1.3711
 6709TIP3    H241619   2.670   5.859   0.194 -0.2178  1.6635  1.5785
 6710TIP3   OH241620   6.277   1.564  13.834  0.0932  0.6000 -0.3061
 6710TIP3    H141621   6.318   1.649  13.815  0.3968  0.8097  1.1253
 6710TIP3    H241622   6.253   1.529  13.748 -0.4643  2.3387 -0.8968
 6711TIP3   OH241623   5.150   1.424   1.720 -0.7406 -0.3433 -0.3476
 6711TIP3    H141624   5.105   1.363   1.662 -0.3384  0.5114 -1.6011
 6711TIP3    H241625   5.082   1.487   1.746 -1.2359 -1.4683  1.2173
 6712TIP3   OH241626   4.889   5.598   4.402 -0.2663 -0.2194  0.3619
 6712TIP3    H141627   4.862   5.688   4.389 -1.4172 -0.5623  0.2865
 6712TIP3    H241628   4.868   5.554   4.319 -0.2208 -0.6707  0.5846
 6713TIP3   OH241629   6.476   5.275  11.374 -0.6465 -0.2851 -0.1421
 6713TIP3    H141630   6.418   5.216  11.421 -0.1198  0.0157  0.9277
 6713TIP3    H241631   6.453   5.362  11.406  0.7286 -0.2078  0.7105
 6714TIP3   OH241632   4.039   5.733   1.865 -0.2696  0.1142  0.3033
 6714TIP3    H141633   4.040   5.663   1.799 -1.3741  0.0966  0.2888
 6714TIP3    H241634   4.061   5.812   1.817 -3.5076  0.5521 -0.6800
 6715TIP3   OH241635   6.090   0.571   2.824  0.1651 -0.0201 -0.4241
 6715TIP3    H141636   6.177   0.570   2.785  0.2393 -0.2944 -0.2567
 6715TIP3    H241637   6.068   0.478   2.838 -0.1238  0.0486 -0.4005
 6716TIP3   OH241638   3.335   1.931   4.506 -0.6082 -0.3811  0.2251
 6716TIP3    H141639   3.386   1.855   4.480 -0.3292  0.1947 -0.9535
 6716TIP3    H241640   3.350   1.939   4.601  1.8636  0.0378 -0.1545
 6717TIP3   OH241641   2.135   5.038   0.704  0.5002 -0.0393 -0.3922
 6717TIP3    H141642   2.060   5.021   0.761  0.0558 -0.3776 -1.0671
 6717TIP3    H241643   2.175   4.952   0.689 -1.8779 -0.7188 -3.9838
 6718TIP3   OH241644   0.270   4.679  14.135 -0.4490  0.3659  0.2654
 6718TIP3    H141645   0.227   4.717  14.059  0.0592  0.7559  0.1684
 6718TIP3    H241646   0.275   4.751  14.199  0.4547  0.4606  0.1063
 6719TIP3   OH241647   4.117   3.814   5.503  0.3174  0.7027 -0.1019
 6719TIP3    H141648   4.084   3.789   5.417  2.1796 -1.6801 -0.2039
 6719TIP3    H241649   4.041   3.806   5.561  0.0651 -2.2752 -0.7226
 6720TIP3   OH241650   6.144   1.815   3.516 -0.1351  0.0005  0.3835
 6720TIP3    H141651   6.218   1.762   3.547  0.7326  1.3156  0.6384
 6720TIP3    H241652   6.124   1.780   3.429 -0.8565 -1.9811  1.2928
 6721TIP3   OH241653   5.921   0.076  16.700 -0.5479 -0.2888  0.1330
 6721TIP3    H141654   5.968   0.097  16.620  0.3695  1.3278  1.0477
 6721TIP3    H241655   5.984   0.092  16.771 -1.7373 -0.3733  1.2562
 6722TIP3   OH241656   5.426   2.454  14.120  0.5140 -0.1656  1.0494
 6722TIP3    H141657   5.418   2.538  14.075 -0.5846 -0.9151 -0.2345
 6722TIP3    H241658   5.512   2.420  14.093  1.0568  0.6159  1.7453
 6723TIP3   OH241659   5.442   3.176  15.467 -0.7732 -0.4112  0.0864
 6723TIP3    H141660   5.427   3.210  15.556  0.2605  0.3177 -0.0046
 6723TIP3    H241661   5.536   3.157  15.464 -0.2783  1.8762 -1.5899
 6724TIP3   OH241662   0.228   0.034   0.505 -0.0295 -0.1958 -0.2834
 6724TIP3    H141663   0.207  -0.049   0.548  1.6241 -1.3311 -1.5645
 6724TIP3    H241664   0.254   0.092   0.577 -2.3520 -0.3225  0.7627
 6725TIP3   OH241665   0.959   6.342  11.185  0.2734  0.6338 -0.0029
 6725TIP3    H141666   0.933   6.275  11.122  2.3798  1.0002 -1.3643
 6725TIP3    H241667   0.926   6.424  11.148  0.3220  0.6921  0.0823
 6726TIP3   OH241668   4.961   5.590  11.117 -0.0962 -0.4126 -0.5447
 6726TIP3    H141669   5.038   5.536  11.106 -1.3378 -2.1016 -1.3911
 6726TIP3    H241670   4.889   5.537  11.083 -1.2603  2.1644 -2.5154
 6727TIP3   OH241671   3.844   1.180  13.539 -0.4676  0.3855 -0.0083
 6727TIP3    H141672   3.787   1.105  13.558  0.9294 -0.3250  1.5389
 6727TIP3    H241673   3.784   1.254  13.536 -1.5286 -0.3647  1.3681
 6728TIP3   OH241674   1.304   2.927  13.305  0.2275  0.2489  0.1256
 6728TIP3    H141675   1.288   2.998  13.243 -0.4668  0.7660  0.8829
 6728TIP3    H241676   1.305   2.848  13.251  1.9302  0.8966 -0.8603
 6729TIP3   OH241677   6.194   6.636   5.326  0.2133  0.1686  0.5512
 6729TIP3    H141678   6.205   6.600   5.414 -0.4252 -0.1250  0.5156
 6729TIP3    H241679   6.100   6.652   5.318  0.1702 -0.4160 -0.3179
 6730TIP3   OH241680   2.631   0.896   5.966 -0.1819 -0.3022 -0.4594
 6730TIP3    H141681   2.573   0.954   6.016 -0.5088 -0.1499 -1.0139
 6730TIP3    H241682   2.707   0.883   6.024 -0.2694  0.3857 -0.1819
 6731TIP3   OH241683   1.343   2.158   1.518 -0.4901  0.3848 -0.3422
 6731TIP3    H141684   1.261   2.129   1.479 -0.2624  0.5428 -0.9478
 6731TIP3    H241685   1.391   2.199   1.446  0.5078 -0.5119 -0.2152
 6732TIP3   OH241686   1.650   4.082  13.477  0.0271  0.7904  0.2797
 6732TIP3    H141687   1.692   4.101  13.393  0.0395  1.7847  0.4934
 6732TIP3    H241688   1.656   3.987  13.486  0.8642  0.7616 -0.4083
 6733TIP3   OH241689   0.591   4.515   2.208  0.7503 -0.6434  0.2867
 6733TIP3    H141690   0.520   4.457   2.237 -0.2132  0.0284 -0.6462
 6733TIP3    H241691   0.549   4.600   2.197  2.1139  0.2258  1.4968
 6734TIP3   OH241692   5.393   6.667   0.889  0.0646  0.2476 -0.2038
 6734TIP3    H141693   5.354   6.744   0.931  1.0364  0.2771  0.6784
 6734TIP3    H241694   5.320   6.605   0.880 -0.5590  0.9684 -0.2132
 6735TIP3   OH241695   3.432   2.467  17.242 -0.2636  0.1080 -0.2864
 6735TIP3    H141696   3.466   2.548  17.204  2.2632 -0.5625  0.4212
 6735TIP3    H241697   3.420   2.487  17.335  0.0013 -0.2137 -0.1811
 6736TIP3   OH241698   2.581   2.589  14.868  0.4188  0.4351  0.1637
 6736TIP3    H141699   2.531   2.662  14.832 -0.3285 -0.6462 -1.1084
 6736TIP3    H241700   2.526   2.554  14.938 -0.9767 -1.0700 -1.5617
 6737TIP3   OH241701   6.143   3.474  16.039  0.4153 -0.4715  0.2250
 6737TIP3    H141702   6.166   3.396  16.089  1.3533  0.2423  0.9502
 6737TIP3    H241703   6.225   3.501  15.998 -0.0941 -0.3687 -0.7474
 6738TIP3   OH241704   6.028   0.715  16.674  0.1185  0.0388  0.3059
 6738TIP3    H141705   6.038   0.623  16.695 -0.3332 -0.1177 -0.1334
 6738TIP3    H241706   6.101   0.735  16.615 -0.0575 -0.1622  0.0191
 6739TIP3   OH241707   2.920   5.043   3.765  0.5789  0.0878 -0.5111
 6739TIP3    H141708   2.912   5.122   3.819  1.4351  1.0810 -1.7904
 6739TIP3    H241709   2.945   4.975   3.827  0.3929  0.9362  0.5325
 6740TIP3   OH241710   0.151   0.143  11.424  0.4336 -0.0030 -0.4245
 6740TIP3    H141711   0.062   0.173  11.445 -0.1408 -2.1864  0.5723
 6740TIP3    H241712   0.176   0.196  11.348 -1.6452  0.8106 -0.6337
 6741TIP3   OH241713   0.918   6.256  11.437 -0.2799  0.0892  0.0229
 6741TIP3    H141714   0.938   6.287  11.349 -0.9111 -0.2109 -0.2304
 6741TIP3    H241715   0.994   6.282  11.489 -0.3693  1.2116 -0.3843
 6742TIP3   OH241716   0.185   1.863   4.775 -0.2412 -0.4091  0.0178
 6742TIP3    H141717   0.201   1.856   4.869 -2.2951  0.1081  0.4558
 6742TIP3    H241718   0.197   1.956   4.755  0.5873 -0.5821 -0.3331
 6743TIP3   OH241719   6.128   1.948   1.328  0.3384  0.4768  0.5910
 6743TIP3    H141720   6.181   2.013   1.374  1.4276 -0.1254  0.2126
 6743TIP3    H241721   6.191   1.884   1.296 -0.5577  0.0564 -0.3865
 6744TIP3   OH241722   0.584   6.548  13.903  0.1063 -0.7845  0.4457
 6744TIP3    H141723   0.631   6.560  13.985  0.3392  0.4292  0.1698
 6744TIP3    H241724   0.599   6.457  13.879  1.9205 -0.5699  0.6236
 6745TIP3   OH241725   6.730   2.799   1.288 -0.1139  0.0074 -0.2064
 6745TIP3    H141726   6.713   2.768   1.199  0.1748  2.0472 -1.0298
 6745TIP3    H241727   6.671   2.873   1.299  0.0901 -0.0120  1.1908
 6746TIP3   OH241728   2.375   3.782  12.878 -0.2641 -0.0082 -0.2591
 6746TIP3    H141729   2.327   3.835  12.941 -0.4192  0.8937 -1.1017
 6746TIP3    H241730   2.395   3.842  12.806  1.0140 -0.6809 -0.5079
 6747TIP3   OH241731   5.719   1.257   4.124  0.2682 -0.3510 -0.1389
 6747TIP3    H141732   5.776   1.181   4.135  1.4758  0.5174 -0.1733
 6747TIP3    H241733   5.753   1.322   4.185  0.6379  0.9153 -1.6278
 6748TIP3   OH241734   5.203   4.218  16.196 -0.5212  0.2163  0.2992
 6748TIP3    H141735   5.188   4.217  16.101 -2.4935 -0.2940  0.5708
 6748TIP3    H241736   5.226   4.128  16.217  0.0217  0.3529  0.3069
 6749TIP3   OH241737   6.697   1.565   1.654  0.0721  0.2056 -0.3449
 6749TIP3    H141738   6.631   1.540   1.719  0.2605 -0.1470 -0.2860
 6749TIP3    H241739   6.708   1.487   1.599  1.9134 -0.4744  0.8893
 6750TIP3   OH241740   6.655   6.793   3.014 -0.0977 -0.2760  0.1713
 6750TIP3    H141741   6.699   6.754   3.089 -1.9174 -1.0152  0.8989
 6750TIP3    H241742   6.720   6.788   2.943  2.5057  2.3743  2.0836
 6751TIP3   OH241743   5.640   5.399   4.347 -0.0973 -0.3514  0.1151
 6751TIP3    H141744   5.557   5.373   4.388  0.0194 -1.2163 -0.1687
 6751TIP3    H241745   5.699   5.327   4.368  0.9711  0.8487  1.4310
 6752TIP3   OH241746   3.040   0.232  11.424  0.4960  0.0022 -0.3486
 6752TIP3    H141747   3.028   0.224  11.330 -0.0788  1.1437 -0.3918
 6752TIP3    H241748   2.991   0.158  11.461  0.2718 -0.1372 -0.9174
 6753TIP3   OH241749   4.231   1.974  14.775  0.1223  0.0753  0.5300
 6753TIP3    H141750   4.156   2.031  14.760 -0.0761  0.1375  1.7236
 6753TIP3    H241751   4.206   1.919  14.849  0.2260 -1.7497 -0.7279
 6754TIP3   OH241752   0.081   5.731  13.779  0.1927  0.1745  0.0630
 6754TIP3    H141753   0.144   5.800  13.801  0.0319  0.3242  0.0535
 6754TIP3    H241754   0.076   5.733  13.683  0.4856 -0.1165  0.0383
 6755TIP3   OH241755   1.891   5.831  12.658 -0.0572 -0.2353 -0.4780
 6755TIP3    H141756   1.898   5.767  12.587  0.2834 -0.4513 -0.2529
 6755TIP3    H241757   1.797   5.839  12.674 -0.0820 -1.0804 -0.1525
 6756TIP3   OH241758   5.042   0.583  11.945 -0.0910 -0.1622 -0.1279
 6756TIP3    H141759   5.062   0.535  12.025  0.4934 -0.2366 -0.3178
 6756TIP3    H241760   5.002   0.665  11.975  1.4465  0.4698  0.3189
 6757TIP3   OH241761   5.757   2.255  16.746  0.6461  0.1298 -0.3851
 6757TIP3    H141762   5.761   2.246  16.651 -1.5086  2.6776 -0.8348
 6757TIP3    H241763   5.669   2.289  16.763  0.6338 -1.0902  2.6422
 6758TIP3   OH241764   0.062   1.181  16.781  0.2519  0.1801  0.2242
 6758TIP3    H141765   0.008   1.259  16.789  0.5734  0.3303  0.9697
 6758TIP3    H241766   0.152   1.212  16.790  0.5277  0.0145 -1.5653
 6759TIP3   OH241767   0.461   5.452  15.600 -0.1593 -0.3545  0.4147
 6759TIP3    H141768   0.448   5.476  15.691 -1.9960 -0.3076  0.1816
 6759TIP3    H241769   0.455   5.535  15.552 -5.4905 -0.8204 -0.2879
 6760TIP3   OH241770   3.041   4.042  10.676  0.3210  0.0180  0.6540
 6760TIP3    H141771   2.996   3.965  10.711 -1.5990  1.2250  1.0410
 6760TIP3    H241772   3.129   4.012  10.656 -0.8631 -2.7892 -1.0319
 6761TIP3   OH241773   5.859   1.808  16.833  0.2463 -0.2733 -0.1371
 6761TIP3    H141774   5.885   1.737  16.772  2.4763  0.1062  0.2705
 6761TIP3    H241775   5.884   1.888  16.787  0.6560  0.0835  0.7046
 6762TIP3   OH241776   0.158   5.952  14.374  0.3317 -0.2045  0.8287
 6762TIP3    H141777   0.156   5.881  14.310  0.4714  0.3458  0.1924
 6762TIP3    H241778   0.128   6.029  14.325  1.5241  0.4665  1.0935
 6763TIP3   OH241779   3.308   3.138   5.958  0.1003  0.2070 -0.2878
 6763TIP3    H141780   3.388   3.146   6.010 -0.7264 -2.6406  1.6136
 6763TIP3    H241781   3.238   3.164   6.018 -0.8185 -2.4888 -0.0843
 6764TIP3   OH241782   1.268   0.979   4.747  0.0221  0.0536 -0.4635
 6764TIP3    H141783   1.357   0.980   4.711 -0.1079 -0.7975 -0.8396
 6764TIP3    H241784   1.213   0.955   4.674 -0.4335 -0.1551 -0.0564
 6765TIP3   OH241785   1.001   5.463   1.652 -0.4104  0.5083  0.0491
 6765TIP3    H141786   0.986   5.459   1.747 -0.8406  1.2934  0.0232
 6765TIP3    H241787   0.942   5.533   1.622 -0.7306 -0.1556 -0.8902
 6766TIP3   OH241788   0.559   3.036  13.824 -0.2979  0.4933 -0.1295
 6766TIP3    H141789   0.632   3.065  13.770 -0.9330  0.3435 -1.1023
 6766TIP3    H241790   0.492   3.009  13.761 -1.8301  2.1545  0.7033
 6767TIP3   OH241791   5.176   0.397   1.129 -0.3296  0.3407  0.6165
 6767TIP3    H141792   5.165   0.489   1.103 -0.1019  0.2703  0.2508
 6767TIP3    H241793   5.216   0.402   1.216  0.1681  0.5961  0.3828
 6768TIP3   OH241794   4.465   6.259  15.321  0.0993  0.3177  0.1602
 6768TIP3    H141795   4.548   6.243  15.365 -0.0911  1.2336  0.8927
 6768TIP3    H241796   4.411   6.302  15.388 -1.1454 -0.7261 -0.1320
 6769TIP3   OH241797   3.400   0.477  16.393  0.1049 -0.5631 -0.0259
 6769TIP3    H141798   3.374   0.568  16.409  1.7243 -0.0821 -0.0324
 6769TIP3    H241799   3.319   0.435  16.362 -0.5307  1.0095 -0.6299
 6770TIP3   OH241800   6.293   5.772   4.627  0.7341 -0.3224  0.3986
 6770TIP3    H141801   6.256   5.859   4.646  2.1275  1.6314 -4.3937
 6770TIP3    H241802   6.217   5.718   4.606  0.0364  1.2270 -1.2947
 6771TIP3   OH241803   4.308   5.548   0.567  0.3925  0.1397  0.0034
 6771TIP3    H141804   4.372   5.477   0.578 -0.0199 -0.1842  0.3885
 6771TIP3    H241805   4.305   5.590   0.653 -0.7570 -0.5862  0.3416
 6772TIP3   OH241806   2.296   6.788  11.261  0.3614  0.1101  0.0687
 6772TIP3    H141807   2.268   6.718  11.202  0.2522 -1.1218  1.5275
 6772TIP3    H241808   2.392   6.787  11.254  0.3084  1.7287 -1.9849
 6773TIP3   OH241809   5.200   4.153  13.455 -0.1749 -0.1927  0.0215
 6773TIP3    H141810   5.117   4.153  13.406 -1.7442  0.4239  2.4863
 6773TIP3    H241811   5.176   4.183  13.543  2.7621  0.3330  0.7553
 6774TIP3   OH241812   0.928   2.518   3.479  0.5858  0.2313  0.5617
 6774TIP3    H141813   0.993   2.448   3.486 -1.1944 -1.4794  1.0896
 6774TIP3    H241814   0.851   2.474   3.442 -0.8887  1.7191  1.7503
 6775TIP3   OH241815   0.597   3.231   3.562  0.2603  0.2852  0.0813
 6775TIP3    H141816   0.550   3.231   3.479  1.6435 -0.1759 -0.7320
 6775TIP3    H241817   0.594   3.140   3.591  1.1405  0.1319 -0.2806
 6776TIP3   OH241818   5.559   4.271  16.283  0.4486  0.7600 -0.1046
 6776TIP3    H141819   5.490   4.296  16.344  1.0311 -1.2758  1.4955
 6776TIP3    H241820   5.516   4.265  16.198 -0.8574  1.5428  0.4820
 6777TIP3   OH241821   4.183   3.388   4.897 -0.8486  0.0148  0.2561
 6777TIP3    H141822   4.156   3.461   4.842 -1.4126 -1.1405 -1.0544
 6777TIP3    H241823   4.121   3.318   4.877 -1.3440 -0.3299  2.7110
 6778TIP3   OH241824   4.020   2.185   3.172  0.2450 -0.2068 -0.4150
 6778TIP3    H141825   4.009   2.280   3.167 -1.2494 -0.3425 -0.2930
 6778TIP3    H241826   3.957   2.151   3.108 -0.0396 -1.1380  0.3336
 6779TIP3   OH241827   2.502   3.763  14.805 -0.2585  0.5476  0.3276
 6779TIP3    H141828   2.434   3.768  14.873 -0.8261 -0.9909 -0.0917
 6779TIP3    H241829   2.538   3.852  14.801 -0.2466  0.7062  2.5879
 6780TIP3   OH241830   3.844   0.966   4.664  0.1996 -0.1514 -0.5012
 6780TIP3    H141831   3.903   1.015   4.607 -0.6942  0.0799 -1.2549
 6780TIP3    H241832   3.806   0.899   4.607  1.4341 -1.7715  0.5297
 6781TIP3   OH241833   3.907   3.356   2.276 -0.1760 -0.7016  0.4010
 6781TIP3    H141834   3.839   3.328   2.214  0.7131 -1.9159 -0.0565
 6781TIP3    H241835   3.883   3.312   2.358  1.7722 -3.8514 -0.5632
 6782TIP3   OH241836   4.505   6.625  12.930  0.3075 -0.1656 -0.4089
 6782TIP3    H141837   4.536   6.538  12.955  0.4090 -0.0139 -0.0080
 6782TIP3    H241838   4.411   6.614  12.918  0.2248 -0.1895  0.2532
 6783TIP3   OH241839   5.518   2.874   5.930  0.0758  0.3189  0.5538
 6783TIP3    H141840   5.575   2.948   5.948 -0.7195  0.6128  2.0296
 6783TIP3    H241841   5.430   2.911   5.931 -0.4306 -0.8264  2.5577
 6784TIP3   OH241842   2.886   1.666  11.421  0.3887  0.1266 -0.2247
 6784TIP3    H141843   2.960   1.617  11.385 -0.4714 -0.9302 -0.5899
 6784TIP3    H241844   2.894   1.753  11.382  1.0079 -0.1930 -0.8404
 6785TIP3   OH241845   1.746   6.055   4.776 -0.2706 -0.6003  0.0031
 6785TIP3    H141846   1.782   6.039   4.689  0.2126  0.8653 -0.0977
 6785TIP3    H241847   1.802   6.123   4.813  0.0382 -1.7502  1.8016
 6786TIP3   OH241848   1.366   2.793  16.369  0.2410  0.0755  0.4840
 6786TIP3    H141849   1.364   2.702  16.400 -0.1857 -0.0428  0.1287
 6786TIP3    H241850   1.348   2.786  16.275  0.5230  0.5035  0.3965
 6787TIP3   OH241851   4.786   2.430   5.159 -0.2260 -0.3645  0.3298
 6787TIP3    H141852   4.769   2.354   5.215  0.9681 -0.6588  0.3284
 6787TIP3    H241853   4.837   2.489   5.214 -0.3875  0.0460  0.0421
 6788TIP3   OH241854   0.520   1.844   0.663  0.4228 -0.5492  0.6503
 6788TIP3    H141855   0.595   1.887   0.704  0.4081 -1.7052  1.9800
 6788TIP3    H241856   0.554   1.760   0.633 -0.2982 -1.0710  1.2318
 6789TIP3   OH241857   2.626   0.149   3.980  0.4332 -0.4637  0.7320
 6789TIP3    H141858   2.720   0.152   3.995  0.7297  0.1657 -0.9925
 6789TIP3    H241859   2.614   0.079   3.916 -0.2996 -0.7024  1.1161
 6790TIP3   OH241860   5.047   1.835  11.697  0.5225 -0.3519  0.1688
 6790TIP3    H141861   5.019   1.818  11.607  0.7608 -0.1699  0.0600
 6790TIP3    H241862   4.992   1.908  11.726  2.0894  1.1992 -0.6545
 6791TIP3   OH241863   6.615   0.624   2.571  0.5682  0.1063  0.1872
 6791TIP3    H141864   6.654   0.668   2.646  3.4523 -2.1923  0.2077
 6791TIP3    H241865   6.603   0.533   2.599 -0.3983 -0.3111 -1.4173
 6792TIP3   OH241866   0.131   1.910  11.688  0.6967  0.4982 -0.1864
 6792TIP3    H141867   0.186   1.855  11.743  0.8284  2.2515  1.5225
 6792TIP3    H241868   0.179   1.916  11.605  1.5061 -0.5565  0.1900
 6793TIP3   OH241869   1.348   0.325  11.384 -0.1746  0.0572 -0.0881
 6793TIP3    H141870   1.435   0.312  11.345  0.1180  2.5318 -0.3770
 6793TIP3    H241871   1.366   0.350  11.474 -0.7684 -2.5185  0.8511
 6794TIP3   OH241872   5.870   2.385  15.929  0.4526  0.2327 -0.1924
 6794TIP3    H141873   5.875   2.481  15.929  2.1861  0.1620 -0.3355
 6794TIP3    H241874   5.925   2.358  16.002  0.8573 -0.6874 -0.8244
 6795TIP3   OH241875   2.848   4.222   6.490  0.0909 -0.4620 -0.1115
 6795TIP3    H141876   2.770   4.197   6.539  1.9726 -2.3529  2.1772
 6795TIP3    H241877   2.838   4.316   6.474 -1.7555 -0.2846  1.7811
 6796TIP3   OH241878   2.805   0.200  16.338  0.3550  0.5393 -0.5627
 6796TIP3    H141879   2.778   0.114  16.370  0.2283  0.9110  0.3426
 6796TIP3    H241880   2.834   0.183  16.248  2.2126 -0.7898  0.2192
 6797TIP3   OH241881   2.748   0.765  14.839  0.3774  0.4754 -0.1167
 6797TIP3    H141882   2.740   0.675  14.872  0.8060 -0.0122 -1.2724
 6797TIP3    H241883   2.816   0.804  14.892  0.1241  0.1412  0.4619
 6798TIP3   OH241884   2.264   1.885  15.768 -0.9013 -0.8919  0.3197
 6798TIP3    H141885   2.247   1.791  15.759 -0.2990 -0.8910 -1.2172
 6798TIP3    H241886   2.354   1.890  15.800 -1.1317 -0.8315  0.9732
 6799TIP3   OH241887   6.563   2.709   6.586  0.2249 -0.0504 -0.2787
 6799TIP3    H141888   6.531   2.757   6.662  1.2199  1.0624 -0.5441
 6799TIP3    H241889   6.551   2.617   6.609 -0.2606  0.2876  0.8760
 6800TIP3   OH241890   4.604   2.566  14.062 -0.3493 -0.3448 -0.2373
 6800TIP3    H141891   4.594   2.631  13.992  0.1194  0.8490  0.7793
 6800TIP3    H241892   4.655   2.495  14.022  1.0448  0.9075 -0.7465
 6801TIP3   OH241893   2.098   1.517   3.828  0.2024  0.4743  0.2791
 6801TIP3    H141894   2.188   1.487   3.812  0.4404  1.7947 -1.1277
 6801TIP3    H241895   2.061   1.451   3.886  1.1884 -1.6972 -1.3771
 6802TIP3   OH241896   5.217   2.710  11.364  0.1597  0.0840  0.0945
 6802TIP3    H141897   5.283   2.657  11.319 -0.2188 -0.3922  0.0966
 6802TIP3    H241898   5.134   2.680  11.329 -0.1506 -0.3572  1.1735
 6803TIP3   OH241899   0.605   5.229   1.096 -0.1242 -0.3579 -0.2535
 6803TIP3    H141900   0.688   5.254   1.137 -0.3079 -1.0992  0.5906
 6803TIP3    H241901   0.628   5.212   1.005  0.5872 -0.2504 -0.1053
 6804TIP3   OH241902   6.661   4.632  14.388  0.1122 -0.3054 -0.2330
 6804TIP3    H141903   6.658   4.698  14.319 -3.1750 -1.9401 -1.8868
 6804TIP3    H241904   6.646   4.680  14.469  0.8861  1.2751 -0.9871
 6805TIP3   OH241905   5.740   0.481  15.204  0.1284 -0.1281 -0.2849
 6805TIP3    H141906   5.776   0.489  15.292  0.2935  4.4866 -0.5592
 6805TIP3    H241907   5.704   0.392  15.201  1.4906 -1.0244  3.8266
 6806TIP3   OH241908   3.800   2.189   1.389 -0.4151  0.3196  0.3650
 6806TIP3    H141909   3.792   2.241   1.309 -1.6076 -0.9734 -0.3854
 6806TIP3    H241910   3.894   2.179   1.402 -0.2105  0.7054 -0.7590
 6807TIP3   OH241911   5.690   3.130   6.103  0.2297 -0.0043 -0.4505
 6807TIP3    H141912   5.682   3.158   6.012 -1.4259 -0.7996 -0.5867
 6807TIP3    H241913   5.778   3.090   6.109  0.9865  1.4716 -1.2553
 6808TIP3   OH241914   1.358   1.534   1.588  0.1099 -0.0341  0.0045
 6808TIP3    H141915   1.338   1.624   1.561  1.0979  0.1627 -0.1328
 6808TIP3    H241916   1.448   1.539   1.621  0.5628 -1.1592 -0.9949
 6809TIP3   OH241917   3.624   3.935   3.296  0.1693 -0.6371  0.0835
 6809TIP3    H141918   3.556   4.002   3.291  1.3847  0.6625  0.2484
 6809TIP3    H241919   3.700   3.980   3.331  1.7417 -1.5218 -1.9310
 6810TIP3   OH241920   0.385   3.552  15.202 -0.6590  0.2244  0.1122
 6810TIP3    H141921   0.425   3.507  15.276  3.6453  0.9344 -1.4845
 6810TIP3    H241922   0.366   3.640  15.235 -0.5833 -0.0383  0.8794
 6811TIP3   OH241923   3.413   2.549   5.651 -0.2495 -0.1024 -0.4657
 6811TIP3    H141924   3.342   2.494   5.683  1.0114 -0.3319  2.2327
 6811TIP3    H241925   3.487   2.489   5.641  0.7549  0.7946  1.1437
 6812TIP3   OH241926   4.014   4.147   5.659 -0.0611 -0.9076  0.1370
 6812TIP3    H141927   4.015   4.106   5.573  0.2698 -0.8223  0.1013
 6812TIP3    H241928   4.103   4.137   5.692  0.1630  0.1950 -0.0790
 6813TIP3   OH241929   3.093   5.605   0.447  0.1525  0.0553  0.2628
 6813TIP3    H141930   3.117   5.687   0.403 -1.5848  0.9500  0.8546
 6813TIP3    H241931   3.012   5.578   0.402 -0.3902 -0.2347  1.3918
 6814TIP3   OH241932   2.822   0.498  14.273  0.3374 -0.8502  0.1713
 6814TIP3    H141933   2.832   0.512  14.179  0.5218  0.4374  0.3650
 6814TIP3    H241934   2.825   0.403  14.284 -0.8181 -1.0751 -1.2383
 6815TIP3   OH241935   0.762   3.846   2.007  0.3660  0.2944 -0.2359
 6815TIP3    H141936   0.731   3.758   2.025 -2.1258  1.4836  2.0147
 6815TIP3    H241937   0.684   3.894   1.977  1.3663  2.0076 -0.2394
 6816TIP3   OH241938   3.623   1.052   3.004 -0.2629  0.3728 -0.0254
 6816TIP3    H141939   3.665   1.102   2.934  0.5406 -0.5728 -0.2342
 6816TIP3    H241940   3.543   1.017   2.964 -0.6708  1.2064  0.0332
 6817TIP3   OH241941   1.475   3.412  10.313 -0.7896  0.3624 -0.0497
 6817TIP3    H141942   1.523   3.373  10.240 -1.4346 -0.9876  0.2018
 6817TIP3    H241943   1.523   3.491  10.335  0.4811 -0.1938 -0.7369
 6818TIP3   OH241944   1.665   3.169   2.069 -0.1651 -0.6507 -0.1054
 6818TIP3    H141945   1.672   3.074   2.074 -0.3694 -0.7567 -1.5640
 6818TIP3    H241946   1.591   3.190   2.126  1.9867 -0.9620  3.0802
 6819TIP3   OH241947   2.774   2.483  13.222 -0.5001 -0.3493  0.1015
 6819TIP3    H141948   2.704   2.483  13.287 -1.4260  2.2911 -0.7931
 6819TIP3    H241949   2.736   2.441  13.145 -0.9591  0.5525 -0.1839
 6820TIP3   OH241950   4.163   3.843  15.683  0.4825  0.0928  0.3611
 6820TIP3    H141951   4.083   3.790  15.680  1.2181 -1.2192  1.9776
 6820TIP3    H241952   4.231   3.782  15.713  1.7326  1.5564  0.6299
 6821TIP3   OH241953   5.177   0.876   2.545  0.8047 -0.3953 -0.5591
 6821TIP3    H141954   5.236   0.951   2.555 -1.2013  1.0850  1.0036
 6821TIP3    H241955   5.105   0.910   2.491  0.0732 -1.3197 -0.1896
 6822TIP3   OH241956   3.340   2.683   2.064  0.1181 -0.1626 -0.4461
 6822TIP3    H141957   3.368   2.775   2.065 -0.9766  0.1967 -0.2511
 6822TIP3    H241958   3.349   2.655   2.155 -0.5031  0.0763 -0.3044
 6823TIP3   OH241959   4.688   3.174  15.365  0.1736 -0.4207  0.0897
 6823TIP3    H141960   4.675   3.235  15.438  1.7929 -0.5143  0.4780
 6823TIP3    H241961   4.773   3.197  15.328 -0.1253 -1.0946 -1.0946
 6824TIP3   OH241962   3.339   6.802   0.156 -0.1073  0.1243 -0.0009
 6824TIP3    H141963   3.329   6.794   0.251 -0.2293  0.2771 -0.0001
 6824TIP3    H241964   3.257   6.768   0.121 -0.0584  0.0593 -0.0519
 6825TIP3   OH241965   1.890   0.710   3.891  0.1226 -0.4258 -0.1716
 6825TIP3    H141966   1.795   0.705   3.903  0.1730 -0.3672  0.2472
 6825TIP3    H241967   1.922   0.760   3.966  0.5005 -0.5658 -0.2362
 6826TIP3   OH241968   2.682   4.514   3.251  0.1990 -0.8985 -0.0379
 6826TIP3    H141969   2.609   4.529   3.190  0.3216  0.0316  0.0186
 6826TIP3    H241970   2.755   4.564   3.214 -0.1324  0.9202  1.5829
 6827TIP3   OH241971   3.464   1.059  10.427  0.2303  0.2578 -0.9351
 6827TIP3    H141972   3.489   1.150  10.445 -0.0316  0.1556 -0.0048
 6827TIP3    H241973   3.548   1.013  10.418  0.3747  0.3311 -0.0206
 6828TIP3   OH241974   3.629   3.425  13.099 -0.5407 -0.1531 -0.0429
 6828TIP3    H141975   3.595   3.432  13.188 -2.1770 -0.1596 -0.6325
 6828TIP3    H241976   3.618   3.333  13.075  1.3309 -0.5022  0.2519
 6829TIP3   OH241977   3.997   0.073   2.750 -0.1903 -0.2768  0.7562
 6829TIP3    H141978   4.015   0.164   2.775  0.3369 -0.1667  0.0036
 6829TIP3    H241979   3.985   0.027   2.834 -1.5830  0.6945  1.1388
 6830TIP3   OH241980   2.007   0.252  12.932  0.8574 -0.2082  0.8016
 6830TIP3    H141981   1.991   0.278  12.841  0.8143 -0.2469  0.7984
 6830TIP3    H241982   2.050   0.329  12.971  0.3669  0.0198  0.8979
 6831TIP3   OH241983   4.877   2.720  15.522  0.1892  0.1099  0.6461
 6831TIP3    H141984   4.968   2.743  15.502  0.0592  0.3847  0.3739
 6831TIP3    H241985   4.827   2.799  15.502 -0.2171 -0.2965  0.0342
 6832TIP3   OH241986   0.456   5.697   2.896  0.4690  0.2682 -0.2370
 6832TIP3    H141987   0.386   5.647   2.855  0.9499 -2.5448  2.0651
 6832TIP3    H241988   0.517   5.717   2.825 -1.2633  0.3594 -1.7775
 6833TIP3   OH241989   2.830   0.764   1.034  0.4574  0.4108  0.8555
 6833TIP3    H141990   2.823   0.802   0.947  2.4966  0.9758  0.8916
 6833TIP3    H241991   2.883   0.685   1.022  1.8024  1.1298  1.6930
 6834TIP3   OH241992   3.239   0.187   0.025 -0.3453 -0.2342  0.3133
 6834TIP3    H141993   3.278   0.116   0.075  2.4070 -0.1105 -1.4369
 6834TIP3    H241994   3.260   0.166  -0.066  0.1622  2.5303 -0.3007
 6835TIP3   OH241995   5.001   3.281  13.680  1.0234 -0.7022  0.1579
 6835TIP3    H141996   5.014   3.226  13.604 -0.5504 -0.5427 -0.2686
 6835TIP3    H241997   4.945   3.352  13.649 -0.2632 -1.0288  1.5985
 6836TIP3   OH241998   3.071   4.891   1.936  0.4044 -0.4027 -0.2186
 6836TIP3    H141999   3.063   4.898   2.031 -0.0951 -0.0728 -0.2881
 6836TIP3    H242000   3.166   4.897   1.921  0.4125  0.6089  0.1687
 6837TIP3   OH242001   4.531   4.754   5.741 -0.3823 -0.5118  0.1404
 6837TIP3    H142002   4.594   4.781   5.808  1.9237 -0.8501 -1.7466
 6837TIP3    H242003   4.500   4.836   5.703 -0.8768 -0.3491  0.8692
 6838TIP3   OH242004   4.225   2.797   4.628 -0.4277 -0.1557  0.0730
 6838TIP3    H142005   4.162   2.792   4.700 -2.1940  0.0206 -1.3914
 6838TIP3    H242006   4.238   2.705   4.603 -0.9191 -0.1318 -0.2852
 6839TIP3   OH242007   3.563   5.890   3.389 -0.4955  0.4171  0.2128
 6839TIP3    H142008   3.523   5.803   3.386 -0.7541  0.5199  0.6201
 6839TIP3    H242009   3.638   5.880   3.447  0.3120  0.1321 -0.8542
 6840TIP3   OH242010   5.502   3.776  15.438 -0.0966  0.2362 -0.0341
 6840TIP3    H142011   5.460   3.766  15.524  0.8774  0.4961  0.4881
 6840TIP3    H242012   5.432   3.808  15.381 -1.0685 -1.1069  0.3572
 6841TIP3   OH242013   0.087   0.424  16.294 -0.4012 -0.5507  0.3132
 6841TIP3    H142014   0.130   0.494  16.245  0.3552 -1.4065 -0.2877
 6841TIP3    H242015  -0.000   0.417  16.256 -1.0012  1.0020  1.3342
 6842TIP3   OH242016   2.049   4.081   2.130  0.9467 -0.0765  0.4645
 6842TIP3    H142017   2.112   4.028   2.080  0.6146 -0.5876  0.5826
 6842TIP3    H242018   2.099   4.113   2.205  1.1386 -0.2604  0.4175
 6843TIP3   OH242019   0.567   4.337  13.452 -0.2441  0.1873 -0.0216
 6843TIP3    H142020   0.557   4.259  13.507  0.6417 -0.8185 -1.2342
 6843TIP3    H242021   0.661   4.356  13.456 -0.4856  1.3500  0.4390
 6844TIP3   OH242022   6.558   0.115  13.857  0.0384 -0.2989 -0.2325
 6844TIP3    H142023   6.558   0.134  13.764  0.4576 -0.9350 -0.3658
 6844TIP3    H242024   6.491   0.047  13.868 -1.0146  0.7672  0.1474
 6845TIP3   OH242025   4.233   3.159  14.077  0.1272 -0.3772  0.7625
 6845TIP3    H142026   4.309   3.103  14.058  0.3240 -0.6886  2.3466
 6845TIP3    H242027   4.176   3.148  14.001  1.8745  0.2690 -0.7106
 6846TIP3   OH242028   0.128   5.960  13.513 -0.2515  0.1323  0.2845
 6846TIP3    H142029   0.066   5.958  13.440  0.7139 -0.4162 -0.5365
 6846TIP3    H242030   0.144   5.868  13.534  0.6923  0.2561  0.1303
 6847TIP3   OH242031   4.795   2.428  11.583 -0.3666 -0.1020  0.4627
 6847TIP3    H142032   4.799   2.372  11.506  1.3212 -0.9179  1.1068
 6847TIP3    H242033   4.877   2.477  11.581 -0.5687  0.2937  1.4294
 6848TIP3   OH242034   5.439   5.056   0.681  0.2831  0.3849 -0.6917
 6848TIP3    H142035   5.493   5.133   0.698 -1.3798  1.6583 -0.7962
 6848TIP3    H242036   5.390   5.042   0.762  0.7560 -0.7541 -0.5846
 6849TIP3   OH242037   3.523   1.358   4.929  0.4542 -0.1912 -0.3155
 6849TIP3    H142038   3.430   1.355   4.951  0.5144 -2.0121 -0.0953
 6849TIP3    H242039   3.526   1.398   4.842 -0.7564 -1.8391 -1.1770
 6850TIP3   OH242040   5.784   6.032   3.249  0.0328  0.2685 -0.0419
 6850TIP3    H142041   5.763   5.940   3.239  1.4946  0.0955 -1.9383
 6850TIP3    H242042   5.789   6.066   3.160  0.8159  1.8709  0.5703
 6851TIP3   OH242043   1.483   6.788   6.108  0.0207  0.5676  0.1505
 6851TIP3    H142044   1.451   6.828   6.027  0.3544  0.3324 -0.0976
 6851TIP3    H242045   1.532   6.858   6.151  1.0434  0.2948 -0.5309
 6852TIP3   OH242046   1.627   1.021  11.983  0.5713  0.0835 -0.6860
 6852TIP3    H142047   1.583   0.946  12.024  0.5677  0.1764 -0.5180
 6852TIP3    H242048   1.562   1.091  11.986  0.4641  0.0056 -1.1251
 6853TIP3   OH242049   5.600   2.178   2.969 -0.0567  0.1787 -0.2471
 6853TIP3    H142050   5.526   2.230   2.936 -1.8466 -1.1132  1.5005
 6853TIP3    H242051   5.575   2.087   2.953  0.4499 -0.3460  1.6992
 6854TIP3   OH242052   5.148   6.708   0.608 -0.4485  0.0495  0.4032
 6854TIP3    H142053   5.174   6.747   0.692  0.9783  0.0975 -0.0353
 6854TIP3    H242054   5.059   6.739   0.594 -0.3558  0.8420  1.4381
 6855TIP3   OH242055   5.140   3.217   2.876 -0.2558  0.1214 -0.3372
 6855TIP3    H142056   5.066   3.228   2.936  0.4388 -0.4815  0.6741
 6855TIP3    H242057   5.177   3.304   2.866 -0.0315  0.1388  0.5959
 6856TIP3   OH242058   1.323   0.285  14.297  0.0379  0.1865 -0.0759
 6856TIP3    H142059   1.329   0.332  14.214  1.2964  1.2242  0.5714
 6856TIP3    H242060   1.412   0.256  14.315 -0.2938 -0.3786  0.7362
 6857TIP3   OH242061   3.675   3.351   3.351 -0.3005 -0.1043 -0.0713
 6857TIP3    H142062   3.745   3.299   3.311 -0.1305  0.0585  0.0126
 6857TIP3    H242063   3.617   3.373   3.278 -0.0444  0.1080 -0.2131
 6858TIP3   OH242064   3.346   6.249  14.441 -0.0476  0.4193  0.0328
 6858TIP3    H142065   3.400   6.184  14.396 -0.3930  1.1890 -1.5362
 6858TIP3    H242066   3.261   6.206  14.453  0.2223  0.0044  0.5070
 6859TIP3   OH242067   3.375   4.866   5.582 -0.8935 -0.1677  0.2024
 6859TIP3    H142068   3.430   4.797   5.545 -1.2910  0.3354 -1.4054
 6859TIP3    H242069   3.313   4.819   5.639  0.7260 -0.7995  1.5450
 6860TIP3   OH242070   3.355   4.975  14.221 -0.7560  0.7424  0.0515
 6860TIP3    H142071   3.388   5.062  14.247  1.2680 -0.0569  0.3370
 6860TIP3    H242072   3.422   4.914  14.252 -1.0326 -0.7377 -2.0892
 6861TIP3   OH242073   2.659   2.705  11.404 -0.3687  0.0481 -0.3584
 6861TIP3    H142074   2.716   2.645  11.356  0.0231  0.2774 -0.1862
 6861TIP3    H242075   2.719   2.755  11.460 -0.6032  1.0906 -1.0146
 6862TIP3   OH242076   5.843   0.780   5.655 -0.1755  0.0690  0.3108
 6862TIP3    H142077   5.831   0.685   5.659 -0.4443  0.1299  1.1352
 6862TIP3    H242078   5.768   0.811   5.605 -1.6556  0.0874  2.3844
 6863TIP3   OH242079   6.143   4.768  13.494  0.1938  0.1243  0.0302
 6863TIP3    H142080   6.107   4.855  13.513 -1.4828 -0.8313  1.5359
 6863TIP3    H242081   6.075   4.725  13.442  0.2345 -0.8728  0.7785
 6864TIP3   OH242082   0.751   2.814  16.597  0.8387 -0.6505 -0.2543
 6864TIP3    H142083   0.676   2.790  16.651 -0.5030 -1.2880 -2.2722
 6864TIP3    H242084   0.728   2.899  16.561  0.9240 -0.9776 -1.1129
 6865TIP3   OH242085   0.507   1.260   1.420  0.2100 -0.3523 -0.7615
 6865TIP3    H142086   0.602   1.271   1.431  0.1442  1.3907 -1.5596
 6865TIP3    H242087   0.472   1.265   1.509  0.8657 -1.1603 -0.4456
 6866TIP3   OH242088   0.787   5.864  11.645  0.0855  0.8444  0.1696
 6866TIP3    H142089   0.844   5.899  11.576  0.5429  1.0427  0.6426
 6866TIP3    H242090   0.816   5.774  11.658 -0.1440  0.7378 -0.0434
 6867TIP3   OH242091   2.963   3.033  14.592  0.3429  0.2669  0.7702
 6867TIP3    H142092   2.910   3.057  14.668 -2.0927 -1.0893 -0.3552
 6867TIP3    H242093   2.918   3.074  14.518  0.8386 -0.9678 -0.2519
 6868TIP3   OH242094   0.245   4.266   3.058 -0.4344 -0.2191  0.0511
 6868TIP3    H142095   0.243   4.213   3.138  0.8410  0.4084  0.5254
 6868TIP3    H242096   0.165   4.243   3.012 -0.5996 -1.5000  0.9307
 6869TIP3   OH242097   5.580   3.676  16.576 -0.4078  0.6442  0.0462
 6869TIP3    H142098   5.593   3.703  16.667  1.6418 -1.3812  0.4421
 6869TIP3    H242099   5.634   3.735  16.525 -0.7239  1.1080  0.2445
 6870TIP3   OH242100   1.933   2.698   0.823  0.0489  0.2385 -0.1064
 6870TIP3    H142101   1.985   2.744   0.757  1.1242  0.7281  1.0383
 6870TIP3    H242102   1.855   2.667   0.776 -0.6538  3.0679 -0.9670
 6871TIP3   OH242103   3.810   6.664   1.604 -0.3162 -0.2960 -0.4551
 6871TIP3    H142104   3.746   6.605   1.564 -1.3396  0.6922 -0.3130
 6871TIP3    H242105   3.894   6.634   1.570 -0.9801 -0.6629 -1.8553
 6872TIP3   OH242106   5.178   2.826  16.438  0.4227 -0.8078 -0.1668
 6872TIP3    H142107   5.185   2.827  16.534 -0.3701 -0.9193 -0.1020
 6872TIP3    H242108   5.097   2.874  16.420  0.3117 -1.2058 -0.7564
 6873TIP3   OH242109   3.275   2.916   4.910 -0.2592  0.0479 -0.0006
 6873TIP3    H142110   3.285   2.820   4.906 -0.1603 -0.0629  1.9425
 6873TIP3    H242111   3.181   2.930   4.900 -0.0725  0.0051 -2.9062
 6874TIP3   OH242112   4.251   3.220  13.532 -0.4612 -0.4068 -0.1230
 6874TIP3    H142113   4.178   3.207  13.593 -0.1214 -2.5253 -0.0874
 6874TIP3    H242114   4.213   3.210  13.445 -0.5625  0.5395 -0.1986
 6875TIP3   OH242115   5.504   5.057  11.658  0.1558  0.2736  0.4764
 6875TIP3    H142116   5.535   4.970  11.634 -1.0869 -0.3426  1.0128
 6875TIP3    H242117   5.584   5.109  11.670  0.9090  0.0051 -2.5466
 6876TIP3   OH242118   4.573   6.116  16.441  0.4320 -0.0948  0.1170
 6876TIP3    H142119   4.660   6.123  16.400 -0.0490 -0.1021 -0.9143
 6876TIP3    H242120   4.512   6.138  16.372 -0.3833  0.3816  0.9711
 6877TIP3   OH242121   5.116   2.857  14.881  0.5066  0.3232  0.3735
 6877TIP3    H142122   5.101   2.783  14.940 -0.1036 -0.7264 -1.0224
 6877TIP3    H242123   5.164   2.819  14.807 -1.6996  0.7771 -1.4020
 6878TIP3   OH242124   1.772   3.539  14.625 -1.1313 -0.2489 -0.2537
 6878TIP3    H142125   1.796   3.465  14.682 -0.5369 -0.2438 -0.4934
 6878TIP3    H242126   1.855   3.567  14.586 -1.4735  0.0355 -0.7796
 6879TIP3   OH242127   5.135   2.424   4.626  0.2150 -0.0021 -0.4079
 6879TIP3    H142128   5.092   2.509   4.632  0.2133 -0.0917  2.7345
 6879TIP3    H242129   5.078   2.365   4.677  1.6891 -1.1736 -0.0499
 6880TIP3   OH242130   2.598   4.205   0.213 -0.5505  0.3540 -0.1999
 6880TIP3    H142131   2.520   4.169   0.170 -1.3941  1.4151  0.3881
 6880TIP3    H242132   2.656   4.230   0.140 -1.5129  1.1614 -0.7089
 6881TIP3   OH242133   2.583   3.465  16.247  0.6153 -0.3487 -0.4947
 6881TIP3    H142134   2.639   3.475  16.170  1.0175  0.9334 -0.0652
 6881TIP3    H242135   2.495   3.454  16.212  0.7902  0.2544 -1.1428
 6882TIP3   OH242136   0.114   4.299   5.473  0.0654 -0.0038 -0.1274
 6882TIP3    H142137   0.068   4.278   5.391 -1.2002 -0.4240  0.6611
 6882TIP3    H242138   0.170   4.223   5.489 -1.9334 -1.3623  0.9152
 6883TIP3   OH242139   4.494   2.884   3.247 -0.2355 -0.4788  0.5543
 6883TIP3    H142140   4.415   2.853   3.292 -0.2775 -1.2758 -0.0635
 6883TIP3    H242141   4.482   2.979   3.243 -1.8033 -0.6813 -0.6720
 6884TIP3   OH242142   3.555   5.446  12.235 -0.3929  0.3144 -0.2878
 6884TIP3    H142143   3.565   5.370  12.292 -2.4682  0.1403 -0.0895
 6884TIP3    H242144   3.573   5.412  12.147  1.7812  0.3559  0.0809
 6885TIP3   OH242145   6.079   3.914   3.120  1.0811  0.0651 -0.2488
 6885TIP3    H142146   6.076   3.907   3.216  0.7199 -1.2546 -0.3370
 6885TIP3    H242147   6.157   3.865   3.095 -0.1916 -1.7944 -0.7719
 6886TIP3   OH242148   4.335   3.938  17.151  0.1623 -0.2678  0.0467
 6886TIP3    H142149   4.299   3.951  17.239 -0.1513 -2.7132  0.3670
 6886TIP3    H242150   4.429   3.945  17.162  0.1003 -0.1100  0.4993
 6887TIP3   OH242151   4.271   5.098   5.725  0.9348 -0.4972  0.3937
 6887TIP3    H142152   4.201   5.032   5.726  0.5665 -0.1306  1.7785
 6887TIP3    H242153   4.269   5.134   5.636  0.5501 -1.7233 -0.1113
 6888TIP3   OH242154   5.168   5.641   2.814  0.2835  0.2542  0.0380
 6888TIP3    H142155   5.096   5.694   2.847  0.4411  0.6786 -0.2909
 6888TIP3    H242156   5.157   5.556   2.857 -0.3536  0.3457  0.0643
 6889TIP3   OH242157   0.971   5.462   5.694  0.5231  0.6306 -0.0265
 6889TIP3    H142158   0.894   5.468   5.750  1.7266  1.2777  1.6530
 6889TIP3    H242159   0.957   5.384   5.641  0.4452 -1.6039  3.0127
 6890TIP3   OH242160   5.035   4.840   6.154  0.3744 -0.7258  0.3411
 6890TIP3    H142161   5.013   4.801   6.069 -0.8736 -0.6663  0.6183
 6890TIP3    H242162   5.048   4.933   6.136 -3.2741 -0.0026  0.6625
 6891TIP3   OH242163   2.467   2.999   4.791  0.3082 -0.2187  0.1306
 6891TIP3    H142164   2.409   2.996   4.714  1.5054 -0.0568 -0.8094
 6891TIP3    H242165   2.407   3.001   4.866 -0.9054  0.5098 -0.8153
 6892TIP3   OH242166   2.615   3.848  16.571 -0.2513 -0.3920 -0.4471
 6892TIP3    H142167   2.543   3.881  16.624  1.4047  1.7088  0.6595
 6892TIP3    H242168   2.589   3.758  16.548 -0.9566 -1.6239  4.1846
 6893TIP3   OH242169   6.115   2.745   0.872  0.2986  0.1754  0.3188
 6893TIP3    H142170   6.099   2.806   0.800 -0.5885  1.3987  1.5007
 6893TIP3    H242171   6.167   2.794   0.935  1.1119 -0.8936  0.5080
 6894TIP3   OH242172   6.603   5.330   4.425 -0.4893  0.0339  0.6008
 6894TIP3    H142173   6.521   5.297   4.463 -2.0314  2.5645 -0.3273
 6894TIP3    H242174   6.621   5.270   4.353 -1.4231 -0.6440  0.9000
 6895TIP3   OH242175   2.439   3.563   2.235 -0.0056 -0.3502  0.2619
 6895TIP3    H142176   2.485   3.488   2.272  0.4253 -0.7145 -0.9555
 6895TIP3    H242177   2.375   3.524   2.175  0.6831  0.2645 -0.8951
 6896TIP3   OH242178   6.047   1.346  13.672 -0.2588  0.2390  0.7991
 6896TIP3    H142179   6.106   1.410  13.632 -0.9915  1.0542  0.9860
 6896TIP3    H242180   6.012   1.296  13.597 -2.8788  2.8249  0.1286
 6897TIP3   OH242181   2.182   3.398  11.368  0.0566 -0.2716 -0.3585
 6897TIP3    H142182   2.169   3.307  11.395  1.3642 -0.3159  0.1744
 6897TIP3    H242183   2.173   3.396  11.272  1.4728 -1.2449 -0.5026
 6898TIP3   OH242184   1.287   1.303  13.039 -0.6122  0.2094  0.1615
 6898TIP3    H142185   1.365   1.289  12.986  1.0550  1.9511  1.9945
 6898TIP3    H242186   1.238   1.370  12.993  0.4631  1.1923  0.3937
 6899TIP3   OH242187   4.476   0.947   2.583 -0.2640  0.4730 -0.3116
 6899TIP3    H142188   4.415   0.885   2.623  1.0431  0.0342  1.0861
 6899TIP3    H242189   4.428   0.982   2.507 -2.2387  0.1526  0.7077
 6900TIP3   OH242190   2.368   3.522   0.858  0.1925  0.2110 -0.2324
 6900TIP3    H142191   2.301   3.468   0.901  0.4154 -0.0339 -0.1959
 6900TIP3    H242192   2.349   3.611   0.889  0.5731 -0.0140  0.6588
 6901TIP3   OH242193   6.214   1.221   2.860  0.5164  0.3019 -0.4220
 6901TIP3    H142194   6.211   1.252   2.951 -0.8823  1.6426 -0.8797
 6901TIP3    H242195   6.133   1.253   2.821 -0.1167 -2.3804 -1.5020
 6902TIP3   OH242196   0.371   2.708  11.100 -0.2744 -0.1411 -0.1279
 6902TIP3    H142197   0.312   2.770  11.056  1.5256 -0.1236 -2.7447
 6902TIP3    H242198   0.339   2.622  11.075 -2.3596 -0.3835  2.9480
 6903TIP3   OH242199   6.763   5.196   2.144  0.3096  0.4509  0.2087
 6903TIP3    H142200   6.681   5.159   2.177  0.7250 -0.5507  0.1455
 6903TIP3    H242201   6.736   5.250   2.070 -0.2056 -0.8722 -0.6125
 6904TIP3   OH242202   5.762   0.849  12.948  0.1314 -0.1814 -0.0507
 6904TIP3    H142203   5.839   0.837  13.003  0.6442  1.7903 -0.2643
 6904TIP3    H242204   5.725   0.933  12.977 -0.7843 -0.1263 -1.2953
 6905TIP3   OH242205   0.435   4.239   5.264 -0.0183 -0.3511  0.6970
 6905TIP3    H142206   0.515   4.252   5.213  0.2420 -0.6224  1.0334
 6905TIP3    H242207   0.365   4.273   5.207  0.3838  0.3619  0.6122
 6906TIP3   OH242208   6.470   6.402  14.137  0.4634  0.2000 -0.4568
 6906TIP3    H142209   6.515   6.449  14.067 -0.0969 -0.1771 -1.0804
 6906TIP3    H242210   6.467   6.311  14.108  0.7171 -0.0637  0.3169
 6907TIP3   OH242211   5.579   2.902   2.316 -0.2670 -0.5164 -0.1692
 6907TIP3    H142212   5.560   2.845   2.242  3.0671 -0.3899 -1.2950
 6907TIP3    H242213   5.597   2.988   2.276  0.4914 -0.1714  0.8719
 6908TIP3   OH242214   0.846   6.183  16.634  0.5588 -0.3268  0.4520
 6908TIP3    H142215   0.874   6.246  16.568 -0.1700 -1.1809 -0.7105
 6908TIP3    H242216   0.783   6.127  16.589  1.4842 -2.1581  1.2899
 6909TIP3   OH242217   2.174   6.778   2.187 -0.0511 -0.8886  0.1774
 6909TIP3    H142218   2.125   6.717   2.133  0.3599 -2.5422  1.5942
 6909TIP3    H242219   2.165   6.745   2.276 -1.4000  2.2159  1.3241
 6910TIP3   OH242220   2.539   5.625  15.090  0.1582 -0.1452  0.0471
 6910TIP3    H142221   2.544   5.718  15.068  2.1086 -0.1966  0.0954
 6910TIP3    H242222   2.504   5.583  15.011  0.2804  0.5049 -0.3587
 6911TIP3   OH242223   6.147   4.560   1.150 -0.7951 -0.4720  0.0316
 6911TIP3    H142224   6.177   4.650   1.160  0.7119 -0.9794  0.4184
 6911TIP3    H242225   6.065   4.567   1.102 -0.0098  1.0137 -1.1822
 6912TIP3   OH242226   0.366   6.430   3.258 -0.5337 -0.5546 -0.8902
 6912TIP3    H142227   0.287   6.380   3.238 -1.0470 -0.9501  1.6836
 6912TIP3    H242228   0.419   6.426   3.179 -2.8476 -0.7261 -2.5170
 6913TIP3   OH242229   3.934   0.671   0.967  0.5467  0.1143 -0.1267
 6913TIP3    H142230   3.964   0.599   1.022  0.3344 -1.1182 -1.5567
 6913TIP3    H242231   4.012   0.723   0.950  1.0371 -0.6895 -0.3764
 6914TIP3   OH242232   6.446   5.653  16.221 -0.0654 -0.1392  0.2132
 6914TIP3    H142233   6.522   5.656  16.162 -0.2971  1.1264 -0.0593
 6914TIP3    H242234   6.458   5.573  16.272  1.5452  0.1161  0.2955
 6915TIP3   OH242235   5.043   2.148  11.588  0.3095  0.2241  0.6962
 6915TIP3    H142236   4.957   2.146  11.630 -1.5312  0.5455 -2.6910
 6915TIP3    H242237   5.078   2.234  11.608 -2.1695  1.8295 -1.2109
 6916TIP3   OH242238   1.459   1.634  12.468  0.0491  0.0967  0.8607
 6916TIP3    H142239   1.474   1.631  12.373 -0.3521  1.4946  0.7290
 6916TIP3    H242240   1.445   1.543  12.493  0.7289 -0.3618 -0.3226
 6917TIP3   OH242241   3.007   0.079   1.610 -0.6891 -0.0400  0.2956
 6917TIP3    H142242   3.073   0.146   1.627 -0.7220  0.4677 -1.4022
 6917TIP3    H242243   2.924   0.125   1.615 -0.6706  0.2897 -1.7292
 6918TIP3   OH242244   1.938   5.466   0.208  0.4937 -0.0265  0.1117
 6918TIP3    H142245   1.881   5.520   0.263 -1.0872 -0.0628 -1.3933
 6918TIP3    H242246   1.979   5.529   0.148 -0.4634 -0.3294 -0.8908
 6919TIP3   OH242247   5.759   0.759  13.817 -0.3938  0.6299 -0.0243
 6919TIP3    H142248   5.707   0.821  13.868 -1.3517  0.9390 -1.3182
 6919TIP3    H242249   5.742   0.783  13.726  3.2295  1.7443 -0.5587
 6920TIP3   OH242250   0.174   0.349  15.180  0.4962 -0.4578 -0.4756
 6920TIP3    H142251   0.181   0.310  15.267 -0.4953  1.3977  0.4860
 6920TIP3    H242252   0.256   0.397  15.168  1.3468 -2.0278 -1.3059
 6921TIP3   OH242253   4.655   4.893   1.907 -0.1551 -0.3134 -0.1498
 6921TIP3    H142254   4.741   4.857   1.885 -0.6955 -2.9916  1.5922
 6921TIP3    H242255   4.593   4.822   1.887 -1.5201  0.2380  1.7846
 6922TIP3   OH242256   0.863   4.697  11.070 -0.2468  0.1433 -0.4069
 6922TIP3    H142257   0.872   4.791  11.087 -1.8651 -0.0714  2.4020
 6922TIP3    H242258   0.935   4.657  11.118 -0.6181 -0.1227 -0.0641
 6923TIP3   OH242259   0.269   3.825  15.828  0.0880  0.2465 -0.2136
 6923TIP3    H142260   0.252   3.819  15.734 -0.8007 -0.2232 -0.0395
 6923TIP3    H242261   0.183   3.839  15.867  0.3997  0.0973  0.5549
 6924TIP3   OH242262   2.626   0.921   2.280 -0.4839 -0.4693  0.3775
 6924TIP3    H142263   2.559   0.924   2.212 -0.9696  0.8829  0.8790
 6924TIP3    H242264   2.628   0.829   2.308 -1.8413 -0.6076  0.0700
 6925TIP3   OH242265   5.724   2.168  11.729 -0.2412 -0.0665  0.0017
 6925TIP3    H142266   5.640   2.188  11.770 -0.3323 -0.4088 -0.0176
 6925TIP3    H242267   5.718   2.206  11.642 -1.0562 -1.6143 -0.6410
 6926TIP3   OH242268   4.387   2.381  13.374  0.1561 -0.2132 -0.0300
 6926TIP3    H142269   4.345   2.365  13.458  2.0621  2.0082  1.4585
 6926TIP3    H242270   4.397   2.294  13.335  0.2525 -1.4301  2.5336
 6927TIP3   OH242271   5.791   5.954   4.241 -0.4481 -0.2987  0.0183
 6927TIP3    H142272   5.834   5.915   4.165  0.6272  2.4842 -0.9414
 6927TIP3    H242273   5.700   5.964   4.214 -0.2056  0.0940 -0.6792
 6928TIP3   OH242274   4.758   2.995   6.427 -0.4985 -0.1397  0.3647
 6928TIP3    H142275   4.748   3.075   6.477  0.2469  0.1316  0.0936
 6928TIP3    H242276   4.675   2.948   6.440 -0.4321  0.0466  1.6094
 6929TIP3   OH242277   0.202   2.542   4.730 -0.3702  0.1811  0.0131
 6929TIP3    H142278   0.253   2.470   4.693 -0.0001  0.3492  0.1903
 6929TIP3    H242279   0.172   2.592   4.653 -1.1227 -0.4835 -0.1374
 6930TIP3   OH242280   0.115   1.878  13.719  0.4777 -0.5405 -1.0258
 6930TIP3    H142281   0.042   1.888  13.780  0.1957 -0.1338 -1.4200
 6930TIP3    H242282   0.187   1.844  13.772  0.6462  1.0315 -0.1730
 6931TIP3   OH242283   4.146   6.511   2.628  0.2093 -0.1242  0.0334
 6931TIP3    H142284   4.169   6.590   2.676 -0.2032 -0.7423  1.2806
 6931TIP3    H242285   4.060   6.529   2.591 -0.3661 -0.3701  1.2194
 6932TIP3   OH242286   0.364   4.926   2.723  0.6447  0.6429  0.2552
 6932TIP3    H142287   0.364   4.840   2.763 -1.6721  0.1374 -0.6512
 6932TIP3    H242288   0.423   4.919   2.649  0.8884  0.0103  0.5080
 6933TIP3   OH242289   0.440   5.646  14.552  0.2848  0.4127 -0.1460
 6933TIP3    H142290   0.430   5.553  14.573  0.7885  0.3767 -0.0575
 6933TIP3    H242291   0.351   5.681  14.556  0.1868  0.0993  0.6077
 6934TIP3   OH242292   1.282   3.800   3.922  0.0327 -0.2559  0.0300
 6934TIP3    H142293   1.210   3.850   3.884 -0.0207  0.9070  1.5463
 6934TIP3    H242294   1.304   3.734   3.856 -2.8360 -1.0843 -0.2278
 6935TIP3   OH242295   0.107   0.572  16.007 -0.2021  0.3431  0.1767
 6935TIP3    H142296   0.125   0.589  15.914 -0.2109  1.1398  0.3069
 6935TIP3    H242297   0.041   0.504  16.007 -0.6658  0.7788 -0.4234
 6936TIP3   OH242298   2.280   4.049  15.966 -0.3956 -0.2604  0.0470
 6936TIP3    H142299   2.345   3.995  15.921 -1.1304 -1.4641  0.3568
 6936TIP3    H242300   2.329   4.094  16.035  0.3027 -0.2487 -0.4473
 6937TIP3   OH242301   5.443   6.242  11.466 -0.6667  0.0237  0.2701
 6937TIP3    H142302   5.386   6.300  11.517 -1.0742 -1.9326  2.1493
 6937TIP3    H242303   5.530   6.281  11.474 -1.3824  2.1352 -1.2587
 6938TIP3   OH242304   5.511   0.671   6.547  0.6825 -0.4255 -0.1818
 6938TIP3    H142305   5.416   0.684   6.542  0.6062 -0.9728 -0.1842
 6938TIP3    H242306   5.522   0.583   6.582  1.2156  0.4759  2.0788
 6939TIP3   OH242307   1.366   2.658  15.100  0.7746  0.1854 -0.5257
 6939TIP3    H142308   1.331   2.683  15.186 -1.4538 -2.0832 -0.6702
 6939TIP3    H242309   1.451   2.618  15.119 -0.1582 -1.2857  0.8241
 6940TIP3   OH242310   1.935   4.606  13.986  0.7483 -0.2948 -0.4621
 6940TIP3    H142311   1.895   4.686  13.953  1.8503  0.7132  0.5454
 6940TIP3    H242312   1.977   4.632  14.068 -0.0129 -2.2026  0.6095
 6941TIP3   OH242313   0.730   4.691   4.198 -0.7786 -0.4326  0.4778
 6941TIP3    H142314   0.717   4.762   4.261  0.6960  0.2848  0.0157
 6941TIP3    H242315   0.824   4.692   4.180 -1.1577 -0.4923 -1.8462
 6942TIP3   OH242316   6.239   2.825   2.031 -0.6463 -0.1040 -0.2213
 6942TIP3    H142317   6.299   2.886   2.073 -1.6924  0.0250  1.1758
 6942TIP3    H242318   6.270   2.738   2.057  1.2282 -0.2866 -2.7351
 6943TIP3   OH242319   6.597   6.186  10.870 -0.6483  0.2049 -0.0724
 6943TIP3    H142320   6.673   6.129  10.859 -1.9909 -1.5438 -0.7065
 6943TIP3    H242321   6.625   6.270  10.834  0.3542 -0.9614 -2.2018
 6944TIP3   OH242322   1.072   4.219  16.983  0.5584  0.3755 -0.2133
 6944TIP3    H142323   1.122   4.294  16.950  0.6943  0.7791  0.8818
 6944TIP3    H242324   1.137   4.150  16.995  0.4400  0.0792 -1.1800
 6945TIP3   OH242325   3.292   0.778   2.589 -0.1591 -0.2713 -0.1934
 6945TIP3    H142326   3.347   0.700   2.589  0.3635  0.0552 -1.5304
 6945TIP3    H242327   3.204   0.746   2.568 -0.3826 -0.7140  1.2792
 6946TIP3   OH242328   0.153   3.576   0.728  0.2390  0.2245  0.3247
 6946TIP3    H142329   0.075   3.597   0.778 -0.1345  1.3727 -0.6829
 6946TIP3    H242330   0.213   3.648   0.745  0.9023 -0.3974  0.6978
 6947TIP3   OH242331   1.621   3.715   4.420 -0.1748 -0.0145  1.1331
 6947TIP3    H142332   1.657   3.647   4.363 -2.7750 -0.7228  0.2135
 6947TIP3    H242333   1.623   3.795   4.367 -1.5070 -0.4319  0.3986
 6948TIP3   OH242334   0.890   2.322   2.658 -0.4352 -0.5867  0.1477
 6948TIP3    H142335   0.943   2.277   2.724  1.4293 -0.5379 -1.2448
 6948TIP3    H242336   0.854   2.398   2.704  2.4116  0.5646  0.7091
 6949TIP3   OH242337   4.223   6.138   1.198  0.3211  0.2644  0.2314
 6949TIP3    H142338   4.271   6.068   1.153 -0.6523  0.0084 -0.4374
 6949TIP3    H242339   4.146   6.094   1.235  0.0618  0.8599  0.4031
 6950TIP3   OH242340   5.821   1.621  14.768  0.0152 -0.6573 -0.7627
 6950TIP3    H142341   5.904   1.598  14.810  0.4682 -2.2223 -2.3882
 6950TIP3    H242342   5.841   1.698  14.715  1.1035 -2.2708 -2.8686
 6951TIP3   OH242343   5.848   2.612  16.881  0.8001  0.0071 -0.0039
 6951TIP3    H142344   5.780   2.564  16.927 -0.4081  1.5294 -0.0927
 6951TIP3    H242345   5.846   2.579  16.791  1.3989 -1.1669  0.4008
 6952TIP3   OH242346   6.660   0.100   1.226  0.1011 -0.4150 -0.2760
 6952TIP3    H142347   6.738   0.073   1.273  0.0399  1.1255  0.8074
 6952TIP3    H242348   6.680   0.189   1.195 -0.9305 -0.2957 -0.6535
 6953TIP3   OH242349   2.258   2.407  16.722  0.5199  0.2815 -0.3010
 6953TIP3    H142350   2.222   2.483  16.677  0.7074  0.1584 -0.6603
 6953TIP3    H242351   2.182   2.352  16.742  0.2173  1.1552  1.1225
 6954TIP3   OH242352   5.044   1.123  10.847 -0.2789  0.3150 -0.4340
 6954TIP3    H142353   5.084   1.043  10.815 -1.0047  0.2413 -1.2049
 6954TIP3    H242354   4.958   1.125  10.805 -0.5151  1.1831  0.0603
 6955TIP3   OH242355   3.298   4.030   4.758  0.6335 -0.1532  0.2675
 6955TIP3    H142356   3.376   4.029   4.813  0.1903  0.3604  0.9123
 6955TIP3    H242357   3.293   4.119   4.724 -0.4325  0.2275  1.3510
 6956TIP3   OH242358   2.410   2.986  11.559 -0.0305 -0.4300  0.1866
 6956TIP3    H142359   2.404   2.916  11.624 -1.1141 -1.1609 -0.6552
 6956TIP3    H242360   2.411   3.067  11.610  0.5790 -1.0251  1.1479
 6957TIP3   OH242361   3.757   0.815   1.145 -0.2711  0.6016  0.4988
 6957TIP3    H142362   3.750   0.724   1.172 -0.3542  0.2192 -0.7594
 6957TIP3    H242363   3.838   0.820   1.095  0.8913  1.7232  2.3350
 6958TIP3   OH242364   4.685   4.883   6.575 -0.7078  0.1783  0.0581
 6958TIP3    H142365   4.667   4.789   6.563 -2.8685  0.4367  0.7260
 6958TIP3    H242366   4.771   4.886   6.616 -1.9030 -1.7600  3.0609
 6959TIP3   OH242367   3.088   2.042  14.860 -0.2319 -0.2073  0.1773
 6959TIP3    H142368   3.037   2.103  14.806 -1.1323  0.6581  1.8962
 6959TIP3    H242369   3.088   2.082  14.947  0.2291 -2.0690  1.0838
 6960TIP3   OH242370   1.979   1.572  12.179  0.1569 -0.4720  0.5595
 6960TIP3    H142371   1.901   1.570  12.123  0.5095  2.3894 -0.2096
 6960TIP3    H242372   2.045   1.617  12.125  0.9158  1.2232  2.7640
 6961TIP3   OH242373   1.787   3.534  12.698 -0.1448 -0.4412 -0.0096
 6961TIP3    H142374   1.816   3.597  12.632  3.4003  0.5959  2.2618
 6961TIP3    H242375   1.821   3.450  12.667  2.5472  0.2209  0.8938
 6962TIP3   OH242376   6.054   5.962  13.080 -0.1172 -0.1242  0.5762
 6962TIP3    H142377   5.992   6.035  13.083  0.2121  0.1344  1.5800
 6962TIP3    H242378   6.136   6.002  13.050 -0.1687 -0.2515  0.2727
 6963TIP3   OH242379   2.575   2.939   1.413  0.6624  0.3785  0.3047
 6963TIP3    H142380   2.532   2.996   1.477 -0.7636  0.4619 -0.6906
 6963TIP3    H242381   2.518   2.863   1.406  1.5923 -0.3277  0.2430
 6964TIP3   OH242382   5.396   4.512  12.966 -0.1658  0.0724  0.0550
 6964TIP3    H142383   5.342   4.456  13.021  0.5263 -2.1449 -1.3872
 6964TIP3    H242384   5.353   4.597  12.967 -2.4466 -1.0348  0.6720
 6965TIP3   OH242385   1.732   2.780  12.208  0.0549 -0.5373  0.5858
 6965TIP3    H142386   1.811   2.729  12.187  0.1812 -0.8448  1.7429
 6965TIP3    H242387   1.761   2.871  12.208  0.0570 -0.5224 -0.4866
 6966TIP3   OH242388   1.293   5.400   2.255  0.0556 -0.3306 -0.1233
 6966TIP3    H142389   1.298   5.419   2.161 -3.5061 -0.2731 -0.4260
 6966TIP3    H242390   1.249   5.476   2.293 -0.4003 -1.2565  1.2669
 6967TIP3   OH242391   1.036   0.052  16.224  0.3961  0.1311 -0.1125
 6967TIP3    H142392   1.059   0.016  16.139 -1.4229  0.0029 -0.5750
 6967TIP3    H242393   0.992   0.134  16.205 -0.8916 -0.3618  0.6339
 6968TIP3   OH242394   6.044   1.293   4.326 -0.4908 -0.1316  1.2059
 6968TIP3    H142395   5.975   1.257   4.382  0.1817  0.9581  2.7972
 6968TIP3    H242396   6.117   1.232   4.335 -1.3244 -1.5363 -0.8388
 6969TIP3   OH242397   0.960   3.482   2.652  0.2859  0.1384  0.4214
 6969TIP3    H142398   0.957   3.576   2.669  1.8738  0.3531 -0.2805
 6969TIP3    H242399   1.010   3.475   2.571  2.2000 -1.4375  1.6658
 6970TIP3   OH242400   5.024   2.286   1.670 -0.6068  0.7915 -0.3792
 6970TIP3    H142401   5.045   2.323   1.584 -2.6672 -1.1389 -1.8278
 6970TIP3    H242402   5.070   2.343   1.732  2.4965  1.1935 -2.7846
 6971TIP3   OH242403   1.422   2.903  13.566  0.2047  0.1717 -0.0904
 6971TIP3    H142404   1.420   2.807  13.565  1.0322  0.1505  0.0432
 6971TIP3    H242405   1.428   2.927  13.474 -0.9200  0.1253 -0.1881
 6972TIP3   OH242406   2.374   4.932   5.467  0.6471 -0.5731 -0.5050
 6972TIP3    H142407   2.439   4.868   5.494 -0.2586 -0.8411  1.1606
 6972TIP3    H242408   2.376   4.998   5.536  0.6756  0.5751 -1.5581
 6973TIP3   OH242409   3.910   4.213   1.841  0.1172 -0.0296  0.8179
 6973TIP3    H142410   3.838   4.183   1.896 -2.0336  0.3608 -1.5678
 6973TIP3    H242411   3.976   4.246   1.902 -0.8378 -2.2060  3.1896
 6974TIP3   OH242412   4.090   2.126   1.461  0.1944 -0.0200 -0.2037
 6974TIP3    H142413   4.050   2.040   1.456  2.4746 -1.1554 -0.5282
 6974TIP3    H242414   4.180   2.109   1.489  1.1517  2.0900 -1.7055
 6975TIP3   OH242415   1.348   4.866  16.934  0.6835  0.2166 -0.0879
 6975TIP3    H142416   1.297   4.798  16.976  3.2920 -1.0604  1.2881
 6975TIP3    H242417   1.318   4.947  16.974 -1.0892 -0.3013 -0.2934
 6976TIP3   OH242418   1.910   3.458  11.588 -0.0494 -0.3702 -0.4141
 6976TIP3    H142419   1.890   3.406  11.666  0.6917 -0.7296 -0.4589
 6976TIP3    H242420   1.918   3.547  11.621 -1.8125 -0.1644 -0.4101
 6977TIP3   OH242421   3.299   4.363   5.380  0.1501 -0.0018 -0.1676
 6977TIP3    H142422   3.226   4.333   5.325  0.6331 -3.9526  1.0398
 6977TIP3    H242423   3.377   4.327   5.339  1.0863  1.3370  0.3717
 6978TIP3   OH242424   4.743   2.030  12.680 -0.3819  0.3650  0.2677
 6978TIP3    H142425   4.684   1.965  12.717  0.8218  0.1463  1.9318
 6978TIP3    H242426   4.722   2.111  12.725  0.9105  0.1581  1.3211
 6979TIP3   OH242427   3.513   1.933  13.891  0.1617  0.8691 -0.0741
 6979TIP3    H142428   3.609   1.926  13.890  0.1537  0.7131  0.2535
 6979TIP3    H242429   3.485   1.877  13.819  0.2875  0.4030  0.2326
 6980TIP3   OH242430   5.418   5.499  14.500  0.6107 -0.1285  0.3187
 6980TIP3    H142431   5.392   5.433  14.564 -0.1137  0.0554  0.2290
 6980TIP3    H242432   5.511   5.513  14.516  0.3873  0.1135  1.5059
 6981TIP3   OH242433   5.462   0.602   2.704  0.8022  0.1744 -0.5054
 6981TIP3    H142434   5.367   0.616   2.708  0.6073 -1.2272  0.2576
 6981TIP3    H242435   5.498   0.673   2.758  0.0696 -0.2794  0.6201
 6982TIP3   OH242436   2.909   6.293  13.007  0.0621 -0.5175  0.1529
 6982TIP3    H142437   2.885   6.358  12.941  1.0927 -2.1371 -1.9477
 6982TIP3    H242438   2.958   6.343  13.072  0.5735  0.9067 -1.2400
 6983TIP3   OH242439   0.406   4.349   2.851  0.0564  0.0350  0.8299
 6983TIP3    H142440   0.376   4.321   2.938 -0.4575  0.6473  0.8592
 6983TIP3    H242441   0.342   4.416   2.825  1.9411  2.1321  1.3152
 6984TIP3   OH242442   2.545   0.711  15.220  0.0682  0.5743 -0.2750
 6984TIP3    H142443   2.541   0.709  15.125 -1.3574 -0.1283 -0.2407
 6984TIP3    H242444   2.465   0.757  15.246  1.9435  3.6066  0.5564
 6985TIP3   OH242445   0.395   1.156   0.625  0.3509  0.1635 -0.6076
 6985TIP3    H142446   0.343   1.234   0.604 -3.4329 -1.0284  3.0607
 6985TIP3    H242447   0.456   1.186   0.693  0.6359  0.4059 -0.9656
 6986TIP3   OH242448   6.199   4.821  14.212 -0.5259 -0.6249 -0.1250
 6986TIP3    H142449   6.280   4.859  14.246 -1.3927  0.4376  0.8092
 6986TIP3    H242450   6.226   4.736  14.175  1.3310  0.5354 -1.6030
 6987TIP3   OH242451   5.210   6.790   4.428 -0.3381  0.7327  0.1666
 6987TIP3    H142452   5.233   6.845   4.503 -0.7195  0.0246  0.8119
 6987TIP3    H242453   5.190   6.852   4.358 -2.0765  1.4645  1.2609
 6988TIP3   OH242454   0.429   4.654   2.793  0.1433  0.9285 -0.6281
 6988TIP3    H142455   0.468   4.636   2.708 -0.0859  0.9439 -0.7374
 6988TIP3    H242456   0.502   4.647   2.855  0.1651  0.1391 -0.7253
 6989TIP3   OH242457   5.047   2.046   4.900 -0.0122 -0.1618  0.0206
 6989TIP3    H142458   5.119   2.080   4.847 -0.1581  0.1473  0.0200
 6989TIP3    H242459   5.054   1.951   4.891  1.0158 -0.1757  0.8613
 6990TIP3   OH242460   0.289   0.519   3.909  0.3525  0.0890 -0.4108
 6990TIP3    H142461   0.193   0.513   3.913  0.3352  0.7010  0.8741
 6990TIP3    H242462   0.313   0.471   3.830 -0.8678 -1.7211  0.2426
 6991TIP3   OH242463   1.819   4.822  15.913  0.3960 -0.0332 -0.6499
 6991TIP3    H142464   1.871   4.902  15.900 -0.3275  0.1422 -2.7731
 6991TIP3    H242465   1.799   4.792  15.825 -0.9286 -1.5519  0.1278
 6992TIP3   OH242466   0.052   2.091  16.835  0.1049 -0.0753 -0.1947
 6992TIP3    H142467   0.020   2.152  16.769 -1.7050 -0.3627  0.3576
 6992TIP3    H242468   0.125   2.136  16.876 -1.2615  1.8306  0.2998
 6993TIP3   OH242469   3.252   0.832  13.857  0.3828  0.0507  0.0662
 6993TIP3    H142470   3.163   0.825  13.892  0.5359 -0.8544  0.2984
 6993TIP3    H242471   3.240   0.827  13.762  0.1430  0.4522  0.0741
 6994TIP3   OH242472   4.503   1.726   2.383 -0.3086 -0.1088  0.5406
 6994TIP3    H142473   4.437   1.672   2.340 -1.3386  0.6808  1.0973
 6994TIP3    H242474   4.564   1.663   2.422 -1.0492 -0.8533  0.5199
 6995TIP3   OH242475   4.154   5.737   5.218  0.0967  0.0596 -0.9073
 6995TIP3    H142476   4.110   5.695   5.145 -2.3133 -0.2610  0.6160
 6995TIP3    H242477   4.087   5.745   5.286  2.1081  0.6523  1.1646
 6996TIP3   OH242478   0.863   1.848   4.948 -0.2502 -0.6207 -0.9083
 6996TIP3    H142479   0.836   1.828   5.038  0.1629  0.7040 -0.4632
 6996TIP3    H242480   0.907   1.769   4.918 -1.3794 -1.4875 -0.3524
 6997TIP3   OH242481   4.512   6.690   2.861 -0.7812 -0.2272 -0.1262
 6997TIP3    H142482   4.498   6.616   2.919 -0.1479  1.3434  2.1418
 6997TIP3    H242483   4.510   6.767   2.918  0.3485  1.3856 -2.1083
 6998TIP3   OH242484   2.357   1.881   1.324 -0.2469 -0.2940 -0.7490
 6998TIP3    H142485   2.267   1.854   1.310  0.0465 -0.9195 -1.4712
 6998TIP3    H242486   2.400   1.803   1.361 -0.6195  0.7992  2.2778
 6999TIP3   OH242487   1.738   0.705   4.484  0.3373  0.4764  0.4893
 6999TIP3    H142488   1.722   0.612   4.502  0.1025  0.3021 -0.5474
 6999TIP3    H242489   1.831   0.708   4.460  0.3174  0.4904  0.4142
 7000TIP3   OH242490   1.367   5.577   3.908  0.5687 -0.1321  0.1221
 7000TIP3    H142491   1.367   5.497   3.960 -0.6684 -1.0609 -1.2211
 7000TIP3    H242492   1.458   5.605   3.906  1.2736 -2.2984 -0.5348
 7001TIP3   OH242493   2.261   1.868   3.175 -0.4718 -0.1303  0.1014
 7001TIP3    H142494   2.298   1.783   3.199 -0.0609  0.7199  2.9305
 7001TIP3    H242495   2.326   1.906   3.115  0.8170 -0.6880  1.0825
 7002TIP3   OH242496   5.517   5.602   0.812  0.0501 -0.4261 -0.4901
 7002TIP3    H142497   5.466   5.668   0.858  0.4775 -0.2295 -0.2921
 7002TIP3    H242498   5.501   5.620   0.719 -0.4865 -0.5649 -0.4271
 7003TIP3   OH242499   2.558   4.098   2.528 -0.1461  0.1987  0.1305
 7003TIP3    H142500   2.635   4.060   2.569  0.8421  0.8199 -1.1113
 7003TIP3    H242501   2.587   4.183   2.495 -1.1487  0.1047 -1.0659
 7004TIP3   OH242502   4.882   1.106  16.700  0.1355 -0.4830  0.5083
 7004TIP3    H142503   4.831   1.098  16.620  0.0345  0.0743  0.5163
 7004TIP3    H242504   4.894   1.200  16.713 -0.7627 -0.5145  1.7147
 7005TIP3   OH242505   2.764   0.271  11.547 -0.9652 -0.4070 -0.2921
 7005TIP3    H142506   2.720   0.281  11.632  0.3325 -0.1578  0.3859
 7005TIP3    H242507   2.739   0.184  11.517 -1.0337 -0.7153  0.6082
 7006TIP3   OH242508   1.678   6.225  10.835 -0.6081  0.2192 -0.0492
 7006TIP3    H142509   1.668   6.178  10.753  1.8781  1.8415 -1.4054
 7006TIP3    H242510   1.649   6.314  10.815  2.1931  1.2578  0.0071
 7007TIP3   OH242511   0.860   5.332  16.842 -0.8743 -0.5034  0.0554
 7007TIP3    H142512   0.772   5.365  16.822 -0.6383  1.3423  1.7108
 7007TIP3    H242513   0.845   5.253  16.893 -1.6171  0.2503  1.0390
 7008TIP3   OH242514   4.676   6.635   0.891 -0.3199  0.6744 -0.1367
 7008TIP3    H142515   4.744   6.571   0.872 -1.0598  0.4542 -2.2989
 7008TIP3    H242516   4.596   6.583   0.902 -0.5905  1.0925 -0.0888
 7009TIP3   OH242517   5.918   4.543  14.963  0.2901  0.0031 -0.1117
 7009TIP3    H142518   5.925   4.458  15.005  0.9976  0.1691  0.1331
 7009TIP3    H242519   5.868   4.527  14.883 -1.4128 -0.2395  0.9691
 7010TIP3   OH242520   6.214   5.347   4.818  0.2367 -0.5319 -0.1814
 7010TIP3    H142521   6.181   5.433   4.791 -2.2622 -0.9795  1.1350
 7010TIP3    H242522   6.222   5.354   4.913 -0.0404 -1.7450 -0.0539
 7011TIP3   OH242523   0.019   1.435   0.410  0.2935 -0.1375  0.3057
 7011TIP3    H142524   0.021   1.379   0.333  0.7441 -0.0137  0.2275
 7011TIP3    H242525   0.098   1.489   0.404 -0.7959  1.4660 -0.3342
 7012TIP3   OH242526   3.204   4.791  13.138 -0.0679  0.5325  0.0982
 7012TIP3    H142527   3.194   4.803  13.233 -1.5609  0.5914 -0.0501
 7012TIP3    H242528   3.205   4.697  13.126 -0.8856  0.5168  0.0931
 7013TIP3   OH242529   0.674   0.572   4.208  0.8176 -0.1705 -0.4541
 7013TIP3    H142530   0.662   0.631   4.282 -0.1230 -0.0488 -0.6916
 7013TIP3    H242531   0.766   0.547   4.212  0.9683  0.4635  0.2819
 7014TIP3   OH242532   4.442   3.751  14.346 -0.0814 -0.7417  0.1750
 7014TIP3    H142533   4.433   3.700  14.265  0.4923 -2.4365  1.1168
 7014TIP3    H242534   4.514   3.811  14.329  0.5532 -1.6193 -0.3132
 7015TIP3   OH242535   1.130   2.474  12.632 -0.1806  0.0299  0.1396
 7015TIP3    H142536   1.043   2.495  12.665 -0.7991 -0.8752 -0.8521
 7015TIP3    H242537   1.142   2.381  12.651  2.0496  0.8188  3.4212
 7016TIP3   OH242538   3.957   1.285  13.298 -0.4782 -0.0800 -0.4380
 7016TIP3    H142539   4.007   1.362  13.325 -0.4113 -0.3704  0.2792
 7016TIP3    H242540   4.023   1.227  13.258 -0.2572 -0.3989  0.3733
 7017TIP3   OH242541   5.916   6.587  14.740  0.0743  0.6046  0.6364
 7017TIP3    H142542   5.956   6.535  14.810  1.7723  1.7208  0.5460
 7017TIP3    H242543   5.848   6.638  14.785 -0.5664 -0.5168  0.9929
 7018TIP3   OH242544   4.205   6.154  16.621 -0.2427  0.2354 -0.4507
 7018TIP3    H142545   4.192   6.221  16.554 -1.0452 -0.4451 -0.9944
 7018TIP3    H242546   4.202   6.071  16.573 -1.6412 -0.3062  0.5122
 7019TIP3   OH242547   6.202   1.423   1.249 -0.1852 -0.8084 -0.0289
 7019TIP3    H142548   6.137   1.426   1.318  0.3770 -1.0986  0.5188
 7019TIP3    H242549   6.286   1.424   1.294  0.2360  1.1788 -0.7765
 7020TIP3   OH242550   3.605   4.169  15.819 -0.2330  0.9069  0.1300
 7020TIP3    H142551   3.691   4.160  15.778 -0.9924 -1.2605 -1.1158
 7020TIP3    H242552   3.618   4.138  15.908  0.3334  0.8545  0.0335
 7021TIP3   OH242553   3.421   4.247  15.492  0.1558 -0.0323 -0.1702
 7021TIP3    H142554   3.462   4.315  15.439  0.2413 -1.8843 -2.6805
 7021TIP3    H242555   3.328   4.270  15.495  0.2099  0.2760 -0.8437
 7022TIP3   OH242556   5.023   6.751  15.909 -0.3550  0.2471 -0.0953
 7022TIP3    H142557   5.025   6.676  15.850  0.5562 -0.1615  0.4376
 7022TIP3    H242558   4.930   6.763  15.929 -0.7282  0.6470 -1.8971
 7023TIP3   OH242559   3.489   4.586  13.133  0.4827 -0.0720 -0.5161
 7023TIP3    H142560   3.535   4.644  13.072  1.8505  0.3674  0.8713
 7023TIP3    H242561   3.524   4.499  13.115  1.0099  0.0837 -0.2514
 7024TIP3   OH242562   0.817   6.442   5.047 -0.2652 -0.0425 -0.2474
 7024TIP3    H142563   0.760   6.410   5.117 -0.0467  1.4504  0.6519
 7024TIP3    H242564   0.905   6.436   5.083 -0.0861  0.1131 -0.6558
 7025TIP3   OH242565   3.359   2.413   4.671  0.3677  0.3258  0.2037
 7025TIP3    H142566   3.318   2.424   4.585 -0.7431  0.6552  0.7439
 7025TIP3    H242567   3.430   2.351   4.657  0.0748  0.2227 -0.9105
 7026TIP3   OH242568   3.669   4.296   3.461 -0.5924  0.1024 -0.7355
 7026TIP3    H142569   3.753   4.334   3.437  1.3056 -1.8898  2.0732
 7026TIP3    H242570   3.637   4.353   3.532 -0.0710 -0.7749  0.2351
 7027TIP3   OH242571   4.608   5.977   4.793  0.0299 -0.4214 -0.0019
 7027TIP3    H142572   4.606   5.900   4.737  1.0086 -0.4452 -0.0221
 7027TIP3    H242573   4.576   5.946   4.878 -0.0569 -0.7333 -0.1503
 7028TIP3   OH242574   5.386   6.379   0.310 -0.0367 -0.3336  0.2829
 7028TIP3    H142575   5.358   6.448   0.249  4.2432  1.1058 -0.3466
 7028TIP3    H242576   5.381   6.420   0.396 -1.3404 -0.6981  0.4069
 7029TIP3   OH242577   4.508   1.885  14.723  0.3525 -0.2833  0.5277
 7029TIP3    H142578   4.546   1.878  14.811  1.8358  3.3208  0.3461
 7029TIP3    H242579   4.431   1.940  14.735 -0.7214 -1.5897 -0.1786
 7030TIP3   OH242580   3.676   0.711   3.765 -0.4577 -0.3534 -0.2361
 7030TIP3    H142581   3.661   0.711   3.860 -1.0644 -0.1443 -0.3292
 7030TIP3    H242582   3.626   0.786   3.733 -1.6546 -1.4069 -0.9298
 7031TIP3   OH242583   1.522   1.577  14.412  0.5354  0.4040  0.4257
 7031TIP3    H142584   1.563   1.619  14.337  1.6091 -0.6404  0.3833
 7031TIP3    H242585   1.438   1.620  14.422  0.8974  1.3856 -0.6232
 7032TIP3   OH242586   4.595   3.463  12.678  0.0286 -0.0550 -0.7472
 7032TIP3    H142587   4.515   3.412  12.688  0.2516  0.0745  3.0286
 7032TIP3    H242588   4.567   3.554  12.691  0.7949 -0.0541  1.1224
 7033TIP3   OH242589   1.597   5.594   2.504 -0.2473 -0.0782  0.2032
 7033TIP3    H142590   1.599   5.516   2.448  0.9552  0.2662 -0.2777
 7033TIP3    H242591   1.600   5.667   2.443 -2.5111  0.4146  0.5974
 7034TIP3   OH242592   0.782   5.066  17.006  0.5601 -0.4283 -0.0812
 7034TIP3    H142593   0.687   5.075  17.011  0.4928 -1.5152  0.9099
 7034TIP3    H242594   0.798   4.972  17.014  1.6897 -0.3046 -0.7756
 7035TIP3   OH242595   5.775   6.282  11.798 -0.0578 -0.3134 -0.1496
 7035TIP3    H142596   5.754   6.188  11.798  0.8048 -0.6439  3.1671
 7035TIP3    H242597   5.735   6.315  11.878  1.0539  1.8153 -0.4107
 7036TIP3   OH242598   5.059   5.423  10.523 -0.0724 -0.1541 -0.3622
 7036TIP3    H142599   5.068   5.351  10.460 -0.6604 -1.1574  0.6523
 7036TIP3    H242600   5.147   5.435  10.559  0.1091 -0.0847 -0.8209
 7037TIP3   OH242601   4.207   0.775  11.522 -0.1454 -0.4591 -0.6274
 7037TIP3    H142602   4.164   0.859  11.539  0.6838 -0.1618  0.0387
 7037TIP3    H242603   4.261   0.759  11.599  0.8467 -0.8935 -1.3925
 7038TIP3   OH242604   2.336   2.218   5.156 -0.9373 -0.2410  0.1732
 7038TIP3    H142605   2.277   2.290   5.134  0.0683 -0.0385 -2.0688
 7038TIP3    H242606   2.282   2.139   5.148 -1.6947  0.1199  1.3479
 7039TIP3   OH242607   6.247   2.489   4.333  0.1172  0.2528  0.0156
 7039TIP3    H142608   6.195   2.408   4.331  0.5494 -0.0330  0.3300
 7039TIP3    H242609   6.326   2.468   4.284 -1.0028  1.3649 -2.4449
 7040TIP3   OH242610   5.165   1.430  15.787 -0.4862  0.6695 -0.4981
 7040TIP3    H142611   5.126   1.371  15.722  0.2429 -1.1751  0.6551
 7040TIP3    H242612   5.218   1.490  15.736 -0.8879  0.0373 -1.6965
 7041TIP3   OH242613   1.434   4.843  16.210  0.9190  0.5574 -0.2917
 7041TIP3    H142614   1.400   4.855  16.298  0.0104 -1.9495 -0.2193
 7041TIP3    H242615   1.359   4.862  16.153  1.0565  0.6790 -0.4324
 7042TIP3   OH242616   5.629   6.402  16.410 -0.1830 -0.6444  0.2268
 7042TIP3    H142617   5.562   6.412  16.343 -1.7258 -0.0988  1.7717
 7042TIP3    H242618   5.601   6.325  16.461 -0.8827  0.8248  2.1874
 7043TIP3   OH242619   5.332   0.652  12.214 -0.7424  0.1462  0.6346
 7043TIP3    H142620   5.318   0.694  12.298  1.1791 -0.1165  1.1473
 7043TIP3    H242621   5.353   0.724  12.154 -2.9882  0.4327  0.0993
 7044TIP3   OH242622   5.138   4.581  17.012  0.4003  0.5840  0.3704
 7044TIP3    H142623   5.186   4.556  16.932 -1.3544 -0.3594 -0.4345
 7044TIP3    H242624   5.142   4.504  17.068  0.0979  0.6151  0.4364
 7045TIP3   OH242625   0.739   5.620   6.308  0.0090  0.0756 -0.2597
 7045TIP3    H142626   0.800   5.586   6.374 -0.0604 -1.6180 -1.0242
 7045TIP3    H242627   0.673   5.551   6.299 -1.9708  1.7720  0.4159
 7046TIP3   OH242628   1.574   5.420  12.436  0.3899  0.0465  0.0032
 7046TIP3    H142629   1.665   5.435  12.414  0.2835  1.7644  0.5844
 7046TIP3    H242630   1.562   5.462  12.522 -0.4183 -2.0589  0.9904
 7047TIP3   OH242631   6.569   5.371  14.345 -0.0256  0.0938 -0.1252
 7047TIP3    H142632   6.650   5.386  14.394 -0.4219  1.1777  0.2204
 7047TIP3    H242633   6.583   5.415  14.261 -0.1457  0.0337 -0.1768
 7048TIP3   OH242634   3.473   5.760   2.211 -0.2522 -0.3969 -1.0483
 7048TIP3    H142635   3.480   5.676   2.165 -1.3126 -0.5551 -0.9341
 7048TIP3    H242636   3.549   5.762   2.270 -0.0993 -1.1715 -1.2163
 7049TIP3   OH242637   3.371   6.812  14.493 -0.6064 -0.1265  0.5325
 7049TIP3    H142638   3.411   6.782  14.575 -0.5104 -0.4432  0.3714
 7049TIP3    H242639   3.336   6.732  14.453  0.2502 -0.1311 -0.2288
 7050TIP3   OH242640   4.577   5.081  13.916  0.0569  0.3514 -0.6223
 7050TIP3    H142641   4.532   5.056  13.997  0.4685 -0.0644 -0.5168
 7050TIP3    H242642   4.524   5.042  13.846  0.0152  0.2322 -0.5236
 7051TIP3   OH242643   6.311   3.295  17.114  0.3606  0.4939  0.2483
 7051TIP3    H142644   6.274   3.220  17.160  0.3030 -0.1514 -0.8312
 7051TIP3    H242645   6.401   3.270  17.095  0.0823  0.3242 -0.8955
 7052TIP3   OH242646   6.579   5.070   4.763 -0.0313 -0.3799 -0.0216
 7052TIP3    H142647   6.615   5.036   4.681  1.4911 -0.7252  0.7506
 7052TIP3    H242648   6.491   5.032   4.768 -0.9379  1.1527 -2.3807
 7053TIP3   OH242649   1.205   0.389  12.581  0.1131 -0.4468 -0.0361
 7053TIP3    H142650   1.164   0.306  12.556  0.7478 -0.4272 -1.2020
 7053TIP3    H242651   1.269   0.364  12.648 -1.4226 -0.5322  1.4790
 7054TIP3   OH242652   0.273   6.742   4.693  0.0448  0.0475  0.2569
 7054TIP3    H142653   0.285   6.706   4.780  1.7219  0.0584  0.0533
 7054TIP3    H242654   0.360   6.772   4.666  0.0915 -1.9658 -2.2987
 7055TIP3   OH242655   6.609   3.738  16.258 -0.0749  0.0335  0.4713
 7055TIP3    H142656   6.621   3.822  16.303 -0.7077  0.6613 -0.4838
 7055TIP3    H242657   6.608   3.673  16.328  1.0558  0.7500  1.1775
 7056TIP3   OH242658   3.646   4.483  15.517  0.5805  0.1799  0.1619
 7056TIP3    H142659   3.721   4.426  15.535  1.8208  2.1879  1.7914
 7056TIP3    H242660   3.685   4.562  15.477 -0.9367  0.4075 -0.9583
 7057TIP3   OH242661   0.052   0.708  13.304 -0.0987 -0.3499 -0.3558
 7057TIP3    H142662   0.093   0.633  13.262  1.3183  0.4274 -0.4193
 7057TIP3    H242663  -0.042   0.694  13.293  0.1857 -1.3412 -1.7025
 7058TIP3   OH242664   1.655   6.605   6.322 -0.0671  0.2041 -0.5329
 7058TIP3    H142665   1.679   6.691   6.288 -0.4609  0.7221  0.4583
 7058TIP3    H242666   1.678   6.609   6.415  1.0430 -1.1918 -0.7082
 7059TIP3   OH242667   2.256   2.108  16.467 -0.0441  0.6189  0.0392
 7059TIP3    H142668   2.211   2.182  16.425 -0.3075  0.7995  0.6307
 7059TIP3    H242669   2.240   2.121  16.560 -0.7833 -0.6435  0.1000
 7060TIP3   OH242670   3.280   4.583   3.005 -0.0369 -0.1866 -0.1139
 7060TIP3    H142671   3.225   4.544   2.937 -0.2359 -0.2165  0.0659
 7060TIP3    H242672   3.230   4.573   3.086  0.4018 -0.5640  0.1127
 7061TIP3   OH242673   6.676   5.262   5.945  0.1447 -0.2580 -0.1546
 7061TIP3    H142674   6.588   5.239   5.916 -0.2329 -0.7754  1.3153
 7061TIP3    H242675   6.730   5.252   5.867 -1.3573  1.8327 -1.5465
 7062TIP3   OH242676   2.860   2.156   1.093  0.4957 -0.5958 -0.4049
 7062TIP3    H142677   2.854   2.220   1.022  1.0170  0.0020  0.0806
 7062TIP3    H242678   2.904   2.202   1.164  1.1196 -1.5694 -0.1307
 7063TIP3   OH242679   5.323   4.011   3.518  0.3304  0.0612  0.1131
 7063TIP3    H142680   5.248   4.002   3.578 -0.2438  0.8015 -0.4702
 7063TIP3    H242681   5.292   3.974   3.436  1.1778 -1.1121  0.3056
 7064TIP3   OH242682   3.843   5.456  14.434  0.1339 -0.0341  0.4051
 7064TIP3    H142683   3.858   5.546  14.405  0.3630 -0.3945 -0.6230
 7064TIP3    H242684   3.755   5.457  14.472  0.9911  1.1348  2.5558
 7065TIP3   OH242685   2.831   5.763   3.539 -0.7148  0.1148 -0.1265
 7065TIP3    H142686   2.833   5.854   3.568 -0.8783  0.9459 -2.5314
 7065TIP3    H242687   2.880   5.762   3.457  0.6164 -2.2933  0.5845
 7066TIP3   OH242688   4.855   1.327   1.176 -0.5177  1.1740  0.0839
 7066TIP3    H142689   4.831   1.409   1.219 -0.5138  1.4477 -0.4309
 7066TIP3    H242690   4.897   1.354   1.094  2.0761  0.7611  1.1576
 7067TIP3   OH242691   0.490   2.195  13.156 -0.0535 -0.2684  0.6856
 7067TIP3    H142692   0.474   2.180  13.063 -0.6017 -1.6062  0.9776
 7067TIP3    H242693   0.432   2.268  13.179 -0.3822 -0.3497  0.1152
 7068TIP3   OH242694   4.481   1.389  14.224 -0.5720  0.8754 -0.2250
 7068TIP3    H142695   4.547   1.333  14.184 -0.9249 -0.1024  0.5173
 7068TIP3    H242696   4.496   1.382  14.319 -0.9472  1.6418 -0.0911
 7069TIP3   OH242697   0.843   5.187  13.901 -0.4754 -0.0121  0.5533
 7069TIP3    H142698   0.933   5.218  13.917 -0.5697  1.1672 -0.9862
 7069TIP3    H242699   0.793   5.221  13.975  0.0335  0.8617  0.5155
 7070TIP3   OH242700   0.474   4.240   1.441 -0.3160 -0.1996 -0.0453
 7070TIP3    H142701   0.473   4.307   1.373 -0.3913  1.5567  1.6156
 7070TIP3    H242702   0.382   4.228   1.464 -0.2010  0.2157  0.6618
 7071TIP3   OH242703   5.049   1.004  15.022 -0.0763 -0.5006  0.0244
 7071TIP3    H142704   5.143   1.000  15.036 -0.0349 -3.0049 -0.5079
 7071TIP3    H242705   5.013   0.939  15.081 -1.4339  0.0313 -0.1745
 7072TIP3   OH242706   3.286   4.345  12.122  0.2853  0.3385 -0.0283
 7072TIP3    H142707   3.257   4.436  12.125 -1.1779 -0.1250  0.4152
 7072TIP3    H242708   3.223   4.301  12.065 -0.2026 -0.7975  1.3490
 7073TIP3   OH242709   1.254   4.420  11.930  0.2339 -0.5629 -0.0758
 7073TIP3    H142710   1.276   4.343  11.981 -0.6440 -1.0016 -0.3547
 7073TIP3    H242711   1.284   4.494  11.984 -0.3324 -1.0272  0.8958
 7074TIP3   OH242712   3.068   0.410  15.950 -0.0247  0.4570  0.0057
 7074TIP3    H142713   3.060   0.466  15.872  0.0516  1.4945  0.7329
 7074TIP3    H242714   2.983   0.367  15.957 -0.4185  1.2171 -0.0059
 7075TIP3   OH242715   3.834   4.004  16.285  0.4481 -0.3761  0.5109
 7075TIP3    H142716   3.791   4.051  16.356 -1.4307  1.1094 -1.5070
 7075TIP3    H242717   3.801   3.914  16.292  0.6744 -0.3784  1.7663
 7076TIP3   OH242718   2.840   2.961   2.044  0.4785 -0.5221 -0.3666
 7076TIP3    H142719   2.914   2.957   1.984 -0.4083 -2.1240 -1.4272
 7076TIP3    H242720   2.875   2.929   2.127  1.2011 -0.3332 -0.5874
 7077TIP3   OH242721   5.624   1.280  12.703 -0.2093  0.2504  0.4681
 7077TIP3    H142722   5.668   1.240  12.778  0.8513  0.1735 -0.1753
 7077TIP3    H242723   5.655   1.370  12.701 -2.8269  1.3065  2.0985
 7078TIP3   OH242724   4.982   0.114   4.308 -0.1144 -0.1748  0.2867
 7078TIP3    H142725   4.975   0.056   4.232  0.0832 -0.8917  0.7921
 7078TIP3    H242726   5.059   0.168   4.290  0.2121 -0.6655  0.1829
 7079TIP3   OH242727   1.032   4.609   4.209 -0.2124  0.0597  0.1650
 7079TIP3    H142728   1.041   4.701   4.182  0.5397 -0.1027 -0.1680
 7079TIP3    H242729   1.118   4.571   4.191 -0.8888 -1.0214 -0.8984
 7080TIP3   OH242730   5.990   3.556   5.972  0.7310 -0.8625  0.1103
 7080TIP3    H142731   5.985   3.583   5.881 -1.6211 -0.6723  0.2271
 7080TIP3    H242732   5.984   3.460   5.968 -1.1488 -0.7884  0.0716
 7081TIP3   OH242733   3.238   1.387  10.158  0.0192 -0.3595 -0.4477
 7081TIP3    H142734   3.203   1.298  10.158 -0.7814 -0.0912 -2.2126
 7081TIP3    H242735   3.330   1.377  10.133 -0.3715 -0.6274 -1.8537
 7082TIP3   OH242736   1.652   2.405   1.368 -0.0632  0.6321 -0.6131
 7082TIP3    H142737   1.731   2.427   1.418 -0.8648  0.3484  0.7967
 7082TIP3    H242738   1.678   2.421   1.277  1.2026  1.8350 -0.0898
 7083TIP3   OH242739   1.752   0.539  12.022 -0.0522 -0.9552  0.2001
 7083TIP3    H142740   1.730   0.493  12.103 -0.0476  0.7949  1.2276
 7083TIP3    H242741   1.833   0.587  12.042 -1.1543  1.1500 -0.1240
 7084TIP3   OH242742   1.373   6.790   0.309 -0.1431 -0.2856 -0.1028
 7084TIP3    H142743   1.299   6.838   0.272  1.1934  0.9370 -1.2559
 7084TIP3    H242744   1.380   6.823   0.399 -0.1986  0.5336 -0.3937
 7085TIP3   OH242745   1.208   2.720  11.608 -0.3199 -0.1965 -0.0983
 7085TIP3    H142746   1.129   2.747  11.654 -0.2355  1.0399 -0.6334
 7085TIP3    H242747   1.260   2.675  11.674 -0.6759  0.5967  0.7382
 7086TIP3   OH242748   5.573   3.654   0.858 -0.5878 -0.2251  0.2583
 7086TIP3    H142749   5.657   3.677   0.897 -0.4707  0.1257 -0.1903
 7086TIP3    H242750   5.575   3.694   0.771 -1.5291  0.4623  0.5260
 7087TIP3   OH242751   5.000   0.326  13.023  0.1642 -0.0043  0.1358
 7087TIP3    H142752   5.002   0.417  13.052  3.2664  0.0922 -0.0431
 7087TIP3    H242753   5.015   0.275  13.103  1.1127 -0.1697 -0.1339
 7088TIP3   OH242754   5.725   6.315  11.520  0.1853  0.2340 -0.4343
 7088TIP3    H142755   5.770   6.325  11.604  1.4333  1.4054 -1.1873
 7088TIP3    H242756   5.764   6.236  11.481  0.0101  0.0097 -0.1576
 7089TIP3   OH242757   6.267   2.346   1.671  0.3912 -0.0622 -0.3311
 7089TIP3    H142758   6.231   2.428   1.705  2.2978  0.5658  0.3178
 7089TIP3    H242759   6.261   2.285   1.745  1.6854  0.4033  0.1997
 7090TIP3   OH242760   4.082   2.760  14.905 -0.7239 -0.4356 -0.0741
 7090TIP3    H142761   4.131   2.743  14.825 -1.8585 -0.3880 -0.8004
 7090TIP3    H242762   4.088   2.677  14.954  1.3938  0.0635  0.6212
 7091TIP3   OH242763   4.000   1.766  12.781  0.0992  0.4765  0.4099
 7091TIP3    H142764   4.080   1.792  12.827  0.0181  1.2082  0.1509
 7091TIP3    H242765   4.027   1.691  12.727  0.0356 -0.8520  2.1338
 7092TIP3   OH242766   6.073   2.780   0.384 -0.1055 -0.4336 -0.4422
 7092TIP3    H142767   6.145   2.742   0.434 -1.1374 -0.8596  0.7624
 7092TIP3    H242768   6.110   2.795   0.297  1.0450 -1.9057 -0.2522
 7093TIP3   OH242769   3.463   2.049  15.701 -0.2770  0.3650  1.3405
 7093TIP3    H142770   3.424   2.056  15.614 -4.2038 -0.0355  2.8707
 7093TIP3    H242771   3.447   1.958  15.727  0.6548  0.5336  2.5551
 7094TIP3   OH242772   1.940   3.403  14.019  0.0032 -0.2359 -0.0738
 7094TIP3    H142773   1.966   3.311  14.005  0.5577  0.0559 -1.0295
 7094TIP3    H242774   2.023   3.449  14.029 -0.1609  0.4882 -1.7366
 7095TIP3   OH242775   4.298   3.460  15.848 -0.4582 -0.2074  0.4557
 7095TIP3    H142776   4.336   3.380  15.811  1.7190  0.6823  0.6454
 7095TIP3    H242777   4.328   3.530  15.791  0.6468  0.8641  2.2728
 7096TIP3   OH242778   6.567   2.386  16.517  0.2194  0.2017  0.1689
 7096TIP3    H142779   6.485   2.404  16.564  0.0992  0.5321 -0.1617
 7096TIP3    H242780   6.556   2.428  16.432  0.5321 -0.1921 -0.0701
 7097TIP3   OH242781   2.235   1.038   1.685 -0.1521  0.2694 -0.2548
 7097TIP3    H142782   2.158   0.983   1.698 -0.0935  0.1736 -0.3122
 7097TIP3    H242783   2.204   1.127   1.702 -0.0808  0.1536  0.5428
 7098TIP3   OH242784   5.118   1.971  12.510 -0.4103  0.3010 -0.2468
 7098TIP3    H142785   5.031   2.012  12.512  0.2001  1.6417  0.1194
 7098TIP3    H242786   5.140   1.959  12.603 -0.1734  0.0386 -0.3388
 7099TIP3   OH242787   3.724   6.400  14.481 -0.2154  0.2466 -0.6161
 7099TIP3    H142788   3.676   6.344  14.421 -1.6979 -0.4989  1.1630
 7099TIP3    H242789   3.815   6.376  14.469 -0.6225 -0.9633 -1.4781
 7100TIP3   OH242790   4.289   3.702   4.393 -0.2182  0.3258 -0.4517
 7100TIP3    H142791   4.312   3.680   4.303  0.9556 -2.3095  0.3808
 7100TIP3    H242792   4.370   3.686   4.443 -1.7552 -1.9928  1.5484
 7101TIP3   OH242793   3.667   0.635  11.860 -0.1815  0.3004 -0.2248
 7101TIP3    H142794   3.655   0.549  11.899  2.5196 -0.4227 -0.7376
 7101TIP3    H242795   3.616   0.632  11.779  0.0212 -0.9128 -0.3316
 7102TIP3   OH242796   1.276   2.912  13.964  0.2412 -0.3343  0.0771
 7102TIP3    H142797   1.303   2.982  13.906  2.2421  1.8426  3.2877
 7102TIP3    H242798   1.189   2.936  13.994  0.9145  0.8657  1.1519
 7103TIP3   OH242799   5.687   1.835  11.102 -0.0909 -0.4069  0.7082
 7103TIP3    H142800   5.768   1.795  11.071  0.2743  0.6618  0.2442
 7103TIP3    H242801   5.716   1.910  11.153 -0.7886 -0.0500  0.5873
 7104TIP3   OH242802   6.509   0.503  13.876 -0.0466 -0.0715  0.0318
 7104TIP3    H142803   6.524   0.515  13.970 -1.3671  0.2530  0.2150
 7104TIP3    H242804   6.442   0.567  13.853  0.8369  0.4202 -1.3243
 7105TIP3   OH242805   1.963   0.246  17.089 -0.6820 -0.2465 -0.3507
 7105TIP3    H142806   2.034   0.227  17.151 -1.5212 -1.5753  0.2281
 7105TIP3    H242807   1.987   0.199  17.010 -2.1592 -3.0021  0.6952
 7106TIP3   OH242808   3.988   1.725  15.618  0.2491 -0.2499 -0.0463
 7106TIP3    H142809   3.904   1.767  15.636  0.6415  0.0519  1.1407
 7106TIP3    H242810   4.047   1.757  15.686  1.4084 -0.2537 -1.0097
 7107TIP3   OH242811   4.823   0.425  15.528  0.2958 -0.1677  0.0508
 7107TIP3    H142812   4.841   0.430  15.434 -0.7156  0.5904 -0.1285
 7107TIP3    H242813   4.781   0.340  15.540  1.1360 -0.5980 -0.0478
 7108TIP3   OH242814   5.759   2.422  12.679 -0.6485  0.2590 -0.2004
 7108TIP3    H142815   5.825   2.411  12.747 -1.2971 -0.6246  0.3112
 7108TIP3    H242816   5.780   2.506  12.638  0.9469 -0.1400 -0.2431
 7109TIP3   OH242817   5.241   1.785   1.927 -0.7173  0.2181 -0.1404
 7109TIP3    H142818   5.228   1.869   1.970 -0.3193  0.2333 -0.0445
 7109TIP3    H242819   5.170   1.779   1.863 -1.3387  0.1805  0.5450
 7110TIP3   OH242820   4.773   6.420   1.100  0.0401 -0.3798  0.4852
 7110TIP3    H142821   4.681   6.432   1.076 -0.4306  2.4312  2.9749
 7110TIP3    H242822   4.777   6.331   1.135 -2.0755 -0.1692  1.4365
 7111TIP3   OH242823   4.143   1.238  17.226  0.0054  0.1469 -0.0403
 7111TIP3    H142824   4.058   1.200  17.250  0.2302 -1.3695 -1.5012
 7111TIP3    H242825   4.120   1.319  17.180 -0.6034  0.2834  0.4882
 7112TIP3   OH242826   6.402   1.889  17.149 -0.2318 -0.2849  0.0080
 7112TIP3    H142827   6.369   1.882  17.239 -4.1082  0.5016 -1.1450
 7112TIP3    H242828   6.409   1.983  17.133 -0.4879 -0.3954 -0.7851
 7113TIP3   OH242829   5.542   6.597  10.964  0.7168  0.2114 -0.3460
 7113TIP3    H142830   5.489   6.534  11.013  1.2974 -1.2085 -1.4535
 7113TIP3    H242831   5.592   6.644  11.031  0.6023 -0.8250  0.4963
 7114TIP3   OH242832   5.251   5.485  10.264 -0.2207  0.3175 -0.4395
 7114TIP3    H142833   5.302   5.423  10.212 -0.4076  0.0034 -0.2516
 7114TIP3    H242834   5.286   5.477  10.353  1.2706  2.0804 -0.7972
 7115TIP3   OH242835   4.677   3.709  14.708 -0.8712 -0.1380  0.3174
 7115TIP3    H142836   4.667   3.804  14.710 -0.0414 -0.0135 -0.6256
 7115TIP3    H242837   4.725   3.692  14.627 -2.4134 -1.5062 -0.3633
 7116TIP3   OH242838   4.033   2.436  16.031 -0.1119  0.1337 -0.4035
 7116TIP3    H142839   4.038   2.395  15.945 -0.5393  1.2993 -1.0080
 7116TIP3    H242840   3.939   2.440  16.050 -0.0715  0.7016 -0.3026
 7117TIP3   OH242841   4.540   1.028   0.770  0.2094 -0.7883 -0.5920
 7117TIP3    H142842   4.518   1.072   0.688  0.5369 -0.7474 -0.6574
 7117TIP3    H242843   4.635   1.022   0.770  0.5376  2.2224  1.3192
 7118TIP3   OH242844   0.143   2.458  16.206  0.1014  0.1990  0.0186
 7118TIP3    H142845   0.142   2.553  16.196 -1.8915  0.1264 -0.7671
 7118TIP3    H242846   0.052   2.434  16.220  0.5752 -1.6189  0.2031
 7119TIP3   OH242847   1.036   6.646   0.332  0.5382  0.3476  0.3378
 7119TIP3    H142848   1.071   6.687   0.254  0.5087 -1.2253 -0.5469
 7119TIP3    H242849   1.049   6.710   0.402  2.8437  0.8166 -0.4513
 7120TIP3   OH242850   4.154   5.956   0.783 -0.0232  0.4724  0.0698
 7120TIP3    H142851   4.122   6.001   0.704 -0.9240  2.1314  1.3216
 7120TIP3    H242852   4.074   5.939   0.834  0.5478 -0.5758  0.6359
 7121TIP3   OH242853   3.193   4.174  17.213 -0.5863 -0.4211 -0.1251
 7121TIP3    H142854   3.259   4.109  17.189  0.1630  0.7724 -1.4025
 7121TIP3    H242855   3.243   4.251  17.240 -1.4238  0.4006 -0.8341
 7122TIP3   OH242856   2.851   0.135  13.486  0.2027  0.0777  0.3780
 7122TIP3    H142857   2.833   0.228  13.470 -1.5487 -0.1186  0.9705
 7122TIP3    H242858   2.945   0.132  13.505  0.3093  1.7103  0.3111
 7123TIP3   OH242859   2.743   5.047   3.060 -0.3469 -0.3814  0.1373
 7123TIP3    H142860   2.771   5.019   2.973  0.7529 -2.1873  1.0134
 7123TIP3    H242861   2.697   4.971   3.096 -1.0421  0.4389  1.0457
 7124TIP3   OH242862   3.620   1.986   0.033  0.6755  0.3392  0.6372
 7124TIP3    H142863   3.594   2.040  -0.041  0.6325 -0.3516  0.1487
 7124TIP3    H242864   3.715   1.998   0.039  0.8967 -0.7357 -0.4430
 7125TIP3   OH242865   5.110   0.377   5.606  0.0699 -0.6619 -0.5099
 7125TIP3    H142866   5.063   0.402   5.526  3.1020  1.7516 -1.7646
 7125TIP3    H242867   5.199   0.409   5.592  1.6691 -3.2467  2.4580
 7126TIP3   OH242868   2.884   1.529   1.972  0.0292  0.7919  0.1450
 7126TIP3    H142869   2.961   1.484   2.006  0.2202 -0.2420 -1.5346
 7126TIP3    H242870   2.898   1.621   1.995  1.1923  0.4520  0.8648
 7127TIP3   OH242871   0.876   6.053   3.817 -0.2181 -0.4010 -0.3749
 7127TIP3    H142872   0.842   6.097   3.738 -2.2696  1.1539  1.2496
 7127TIP3    H242873   0.941   6.113   3.852 -1.3061  0.2863  0.5525
 7128TIP3   OH242874   3.378   0.818   0.017  0.0058 -0.3465 -0.6101
 7128TIP3    H142875   3.343   0.745  -0.034  0.3198 -0.3657 -0.7957
 7128TIP3    H242876   3.310   0.837   0.081  0.2563 -1.3212 -0.0488
 7129TIP3   OH242877   1.715   0.481  13.667 -0.1174 -0.0183 -0.1031
 7129TIP3    H142878   1.657   0.447  13.599 -1.0317  2.3522 -0.6239
 7129TIP3    H242879   1.659   0.537  13.720  1.5159  1.9236 -0.3021
 7130TIP3   OH242880   4.076   2.328   1.867  0.5543 -0.0281  0.2886
 7130TIP3    H142881   4.144   2.389   1.838  0.6291  0.0790  0.6867
 7130TIP3    H242882   4.019   2.379   1.923 -0.7170  0.2571 -1.2060
 7131TIP3   OH242883   6.658   5.328   1.943  0.5979 -0.2653 -0.2561
 7131TIP3    H142884   6.636   5.368   1.859  0.9772 -0.8707 -0.6521
 7131TIP3    H242885   6.602   5.250   1.947  0.3975 -0.1025  0.1708
 7132TIP3   OH242886   4.002   3.889   2.055 -0.1162 -0.1307 -0.4367
 7132TIP3    H142887   3.974   3.838   2.131 -2.1327 -0.5968 -1.4218
 7132TIP3    H242888   3.999   3.980   2.084  1.4490 -0.4025  0.7040
 7133TIP3   OH242889   1.281   3.418   2.642 -0.0672 -0.1812 -0.7175
 7133TIP3    H142890   1.260   3.485   2.707 -0.5365 -0.7661 -0.2458
 7133TIP3    H242891   1.299   3.339   2.694  4.3108  0.4026 -0.9642
 7134TIP3   OH242892   0.131   3.437   3.006 -0.5817  0.1369 -0.1467
 7134TIP3    H142893   0.162   3.478   3.087  0.6152 -1.7280  0.4000
 7134TIP3    H242894   0.123   3.344   3.027  0.3003 -0.4937 -2.3005
 7135TIP3   OH242895   0.425   6.213   4.115  0.4039 -0.4192 -1.0128
 7135TIP3    H142896   0.517   6.193   4.135 -0.1411 -1.5274  0.6630
 7135TIP3    H242897   0.403   6.154   4.044  0.3709 -1.9414  0.1943
 7136TIP3   OH242898   6.180   4.811   5.515 -0.6474  0.6243 -0.1865
 7136TIP3    H142899   6.157   4.786   5.425  0.6599 -0.0749 -0.3476
 7136TIP3    H242900   6.102   4.790   5.566 -0.6476 -1.0531 -0.8128
 7137TIP3   OH242901   4.024   0.048  13.284  0.6422 -0.2437  0.0832
 7137TIP3    H142902   3.955   0.086  13.338  0.1960  0.2896 -0.8466
 7137TIP3    H242903   4.078   0.122  13.257  0.9970 -0.5347 -0.0277
 7138TIP3   OH242904   4.681   5.681   5.531 -0.2867 -0.4271 -0.9849
 7138TIP3    H142905   4.651   5.645   5.614 -0.7880 -0.2286 -1.0742
 7138TIP3    H242906   4.769   5.645   5.519 -0.3433 -0.7215 -0.5328
 7139TIP3   OH242907   4.130   4.834   5.127  0.7700 -0.2399  0.4243
 7139TIP3    H142908   4.184   4.830   5.048  1.6300 -0.7928  1.0208
 7139TIP3    H242909   4.043   4.807   5.098  0.5615  1.5593 -0.7422
 7140TIP3   OH242910   0.080   3.888   3.509 -0.3068  0.1515 -0.1783
 7140TIP3    H142911   0.163   3.881   3.556 -1.2839 -1.2065  1.4848
 7140TIP3    H242912   0.102   3.929   3.426  2.0069 -0.1415  0.2355
 7141TIP3   OH242913   2.187   3.399  11.098  0.0879 -0.2254 -0.2653
 7141TIP3    H142914   2.160   3.432  11.012 -1.1071 -1.7027 -0.4888
 7141TIP3    H242915   2.282   3.390  11.091  0.1147  0.5234 -1.1094
 7142TIP3   OH242916   1.666   5.503   5.441 -0.1789  0.3078  0.4973
 7142TIP3    H142917   1.587   5.535   5.485 -1.2733 -0.0920 -1.1045
 7142TIP3    H242918   1.686   5.570   5.376  0.9795  0.5269  1.0575
 7143TIP3   OH242919   0.976   5.244  12.102 -0.4285 -0.6558 -0.3302
 7143TIP3    H142920   0.881   5.247  12.112 -0.3784  0.1180 -0.0636
 7143TIP3    H242921   0.991   5.168  12.045 -1.3281  0.1961 -1.7795
 7144TIP3   OH242922   2.066   3.731  13.976  0.2142  0.1378  0.1893
 7144TIP3    H142923   2.070   3.821  13.943 -0.8525  0.0324 -0.2779
 7144TIP3    H242924   1.975   3.721  14.004  0.0207 -1.1529 -0.8324
 7145TIP3   OH242925   0.119   1.314  11.344  0.0284 -0.1191 -0.0156
 7145TIP3    H142926   0.148   1.369  11.417 -0.2883 -0.4106  0.3314
 7145TIP3    H242927   0.024   1.310  11.354  0.1597 -1.9069  0.8086
 7146TIP3   OH242928   1.003   2.526  16.677 -0.2570  0.4250 -0.8429
 7146TIP3    H142929   1.013   2.431  16.688  0.6881  0.6293  0.3205
 7146TIP3    H242930   0.914   2.544  16.704  0.5099  0.2367  2.1808
 7147TIP3   OH242931   2.491   0.858   2.694 -0.2323 -0.4613 -0.1037
 7147TIP3    H142932   2.508   0.846   2.601  1.1570 -0.5868  0.1439
 7147TIP3    H242933   2.414   0.916   2.698  1.1368  1.5435 -1.3400
 7148TIP3   OH242934   4.195   4.316   5.955 -0.6847 -0.1326  0.0618
 7148TIP3    H142935   4.154   4.394   5.915 -0.8576 -0.8531 -1.2344
 7148TIP3    H242936   4.134   4.289   6.023 -1.7233 -0.3885 -0.9377
 7149TIP3   OH242937   2.695   4.762  15.346  0.0839 -0.6527 -0.8190
 7149TIP3    H142938   2.688   4.842  15.294 -0.5249 -0.7109 -0.8403
 7149TIP3    H242939   2.788   4.755  15.368 -0.2664  2.2210  2.5431
 7150TIP3   OH242940   6.798   6.443   5.458  0.1278  0.1669 -0.1307
 7150TIP3    H142941   6.809   6.369   5.517  3.0167  0.1471 -0.5365
 7150TIP3    H242942   6.859   6.509   5.491 -1.5295  1.9578 -0.4614
 7151TIP3   OH242943   2.294   3.742   3.617 -0.8593 -0.0009  0.1454
 7151TIP3    H142944   2.233   3.812   3.640 -0.2972  0.7601 -0.5896
 7151TIP3    H242945   2.369   3.757   3.675 -1.5962 -1.3179  1.4966
 7152TIP3   OH242946   5.466   2.547   2.447 -0.1090 -0.8073 -0.3816
 7152TIP3    H142947   5.519   2.559   2.368  1.0028 -0.9475  0.3215
 7152TIP3    H242948   5.382   2.515   2.415  0.1064 -0.2532 -1.5516
 7153TIP3   OH242949   6.149   0.458   0.831 -0.5204  0.7308 -0.1187
 7153TIP3    H142950   6.130   0.467   0.737  0.0437 -0.2625 -0.3444
 7153TIP3    H242951   6.064   0.471   0.874 -1.0897 -0.3303 -0.8777
 7154TIP3   OH242952   1.198   0.025   1.146 -0.1858  0.1349  0.0732
 7154TIP3    H142953   1.282   0.053   1.183 -0.9760 -0.3100  2.4088
 7154TIP3    H242954   1.219  -0.055   1.097  0.7725  0.0210  0.6334
 7155TIP3   OH242955   6.206   3.861  12.696  0.6258  0.5411 -0.6579
 7155TIP3    H142956   6.297   3.875  12.719  1.0052  0.7331 -2.1757
 7155TIP3    H242957   6.204   3.867  12.600 -0.6248 -1.3738 -0.8094
 7156TIP3   OH242958   0.661   0.769  10.911  0.2529 -0.0834  0.0302
 7156TIP3    H142959   0.653   0.685  10.865 -2.0703 -0.3199  0.7003
 7156TIP3    H242960   0.703   0.746  10.994  0.3305 -0.4568 -0.1095
 7157TIP3   OH242961   6.437   0.728   5.927  0.0505 -0.1257  0.2461
 7157TIP3    H142962   6.368   0.748   5.863 -0.3912  0.3252  0.8547
 7157TIP3    H242963   6.420   0.788   6.000  1.4147  0.3651  0.1797
 7158TIP3   OH242964   4.297   0.102   2.918  0.4257  0.2603 -0.4622
 7158TIP3    H142965   4.286   0.197   2.928  2.9135  0.5071  0.6862
 7158TIP3    H242966   4.367   0.080   2.979  1.6500 -1.9173 -2.5104
 7159TIP3   OH242967   5.702   6.144  12.708  0.3604  0.0243 -0.5890
 7159TIP3    H142968   5.705   6.190  12.624  0.2529 -0.0871 -0.6541
 7159TIP3    H242969   5.674   6.055  12.686 -0.6818  0.2752 -0.3225
 7160TIP3   OH242970   1.492   1.997   0.267  0.1790 -0.3307  0.1941
 7160TIP3    H142971   1.424   2.017   0.331  1.6963 -0.3755  1.9023
 7160TIP3    H242972   1.545   2.077   0.263 -0.0033 -0.2556 -1.1791
 7161TIP3   OH242973   5.439   0.904   1.809 -0.1272 -0.4051  0.2568
 7161TIP3    H142974   5.376   0.976   1.816 -0.7685 -1.0645  1.6278
 7161TIP3    H242975   5.524   0.948   1.802 -0.6870  0.4923 -1.5816
 7162TIP3   OH242976   6.268   4.587   2.837 -0.3741  0.5268 -0.4777
 7162TIP3    H142977   6.268   4.663   2.779 -0.6192 -0.1651 -1.3945
 7162TIP3    H242978   6.194   4.603   2.896  0.7129  1.9054  0.5868
 7163TIP3   OH242979   6.127   6.031  13.686 -0.0387 -0.5260 -0.3309
 7163TIP3    H142980   6.053   6.068  13.639 -2.1017 -3.0590  0.6983
 7163TIP3    H242981   6.140   6.090  13.760  0.2818  0.9753 -1.5221
 7164TIP3   OH242982   4.841   5.680   3.750  0.2683 -0.0780 -0.3593
 7164TIP3    H142983   4.781   5.671   3.823 -1.4083  0.0636 -1.6596
 7164TIP3    H242984   4.850   5.775   3.738  0.8847 -0.0958 -0.0856
 7165TIP3   OH242985   1.525   5.812   3.680  0.0208 -0.3035  0.7703
 7165TIP3    H142986   1.573   5.801   3.598 -0.1678 -0.2232  0.6483
 7165TIP3    H242987   1.503   5.905   3.683 -0.3947 -0.3980  0.6753
 7166TIP3   OH242988   6.286   4.731   6.121 -0.5910 -0.6740  0.1077
 7166TIP3    H142989   6.263   4.737   6.028 -2.4175 -2.5768  0.3572
 7166TIP3    H242990   6.211   4.768   6.167 -0.3171 -1.0208  0.8475
 7167TIP3   OH242991   5.061   1.110   4.987  0.3200 -0.1280 -0.1111
 7167TIP3    H142992   5.144   1.119   5.033  0.4253 -0.3075 -0.2688
 7167TIP3    H242993   5.014   1.192   5.007 -1.1113 -1.5695  3.2291
 7168TIP3   OH242994   6.034   4.448   0.638 -0.2661  0.4596  0.1735
 7168TIP3    H142995   6.060   4.533   0.602  0.0988  0.4604  0.4388
 7168TIP3    H242996   5.940   4.443   0.620 -0.2062  0.7271 -0.2298
 7169TIP3   OH242997   0.417   6.493  14.259 -0.3101 -0.2683  0.2671
 7169TIP3    H142998   0.377   6.427  14.204 -0.7856 -1.6187  2.1552
 7169TIP3    H242999   0.344   6.542  14.296 -0.0202  0.1173  0.3472
 7170TIP3   OH243000   4.963   1.568   4.003 -0.1416  0.0989  0.0435
 7170TIP3    H143001   4.959   1.629   4.076 -0.3521  0.8526 -0.5792
 7170TIP3    H243002   4.887   1.591   3.949  0.4303  0.0743 -0.7955
 7171TIP3   OH243003   2.588   2.581  14.250  0.0016 -0.1627  0.3433
 7171TIP3    H143004   2.512   2.537  14.288 -0.3128 -0.8852 -1.0996
 7171TIP3    H243005   2.606   2.653  14.311  0.1712 -1.8766  2.4414
 7172TIP3   OH243006   1.041   6.024  11.153  0.5390 -0.1348 -0.2589
 7172TIP3    H143007   1.102   5.979  11.211  0.5670  0.0525 -0.1407
 7172TIP3    H243008   1.092   6.044  11.075  0.9699  1.0543  0.3018
 7173TIP3   OH243009   3.355   3.612   5.500 -0.2893 -0.3285  0.2129
 7173TIP3    H143010   3.283   3.603   5.438 -0.4962  1.4806  0.1240
 7173TIP3    H243011   3.368   3.524   5.535 -2.6773 -0.6841  0.3785
 7174TIP3   OH243012   0.596   3.992   2.252 -0.4905  0.0575  0.2035
 7174TIP3    H143013   0.530   3.958   2.312 -1.3534 -0.4561 -1.0021
 7174TIP3    H243014   0.642   3.914   2.220 -1.1746  0.1544 -1.0760
 7175TIP3   OH243015   0.828   1.056  14.357  0.1849  0.0925 -0.1723
 7175TIP3    H143016   0.919   1.078  14.378  0.3237  0.0216 -0.6933
 7175TIP3    H243017   0.821   1.068  14.263 -0.6313  1.1152 -0.0068
 7176TIP3   OH243018   6.361   3.701  16.111 -1.0741 -0.1747 -0.0604
 7176TIP3    H143019   6.422   3.747  16.169 -1.5852 -1.4482  1.5561
 7176TIP3    H243020   6.276   3.711  16.153 -1.9353  1.0481 -1.9685
 7177TIP3   OH243021   3.315   4.588  16.525 -0.3448 -0.4822 -0.2562
 7177TIP3    H143022   3.402   4.552  16.541 -0.0720  1.0923  2.3328
 7177TIP3    H243023   3.305   4.585  16.429  2.2681 -1.2822 -0.5730
 7178TIP3   OH243024   1.093   2.453  15.298  0.2789  0.4828  0.1165
 7178TIP3    H143025   1.057   2.419  15.380 -1.0804  0.9562 -0.2534
 7178TIP3    H243026   1.019   2.496  15.255 -0.1833 -3.2010 -3.3038
 7179TIP3   OH243027   6.134   5.251  13.484 -0.4334  0.1015 -0.4153
 7179TIP3    H143028   6.157   5.338  13.516  1.4180 -0.1044 -1.0989
 7179TIP3    H243029   6.200   5.192  13.521 -0.5985 -0.7365 -1.3873
 7180TIP3   OH243030   6.649   5.018  11.891 -0.2594  0.2234 -0.0513
 7180TIP3    H143031   6.628   5.054  11.805 -1.4004  0.1037  0.1537
 7180TIP3    H243032   6.574   4.963  11.912 -0.2916  0.7493  1.2939
 7181TIP3   OH243033   4.977   5.673   0.479 -0.1185 -0.1031 -0.1162
 7181TIP3    H143034   4.917   5.653   0.407 -0.3595  0.0421  0.0419
 7181TIP3    H243035   5.034   5.597   0.484 -0.8135 -0.6173  0.2594
 7182TIP3   OH243036   0.832   2.928  14.574 -0.1449 -0.3452  0.0587
 7182TIP3    H143037   0.821   3.023  14.576 -0.1757 -0.2895 -1.6457
 7182TIP3    H243038   0.880   2.908  14.654  0.3369  1.1627  0.1748
 7183TIP3   OH243039   1.055   4.703  11.626  0.4668 -0.2643  0.2853
 7183TIP3    H143040   1.108   4.779  11.647  0.7449 -0.2236 -0.5420
 7183TIP3    H243041   1.062   4.693  11.531 -0.9472 -0.2966  0.1586
 7184TIP3   OH243042   1.789   6.258  16.734  0.6775  0.8951 -0.5987
 7184TIP3    H143043   1.712   6.276  16.680  0.2506 -0.1036 -0.3403
 7184TIP3    H243044   1.846   6.207  16.677  1.0449  1.4152 -0.7035
 7185TIP3   OH243045   2.709   0.651   4.616  0.0919  0.2207 -0.2771
 7185TIP3    H143046   2.700   0.742   4.588 -0.1410  0.3073  0.0664
 7185TIP3    H243047   2.640   0.604   4.568  0.2685  0.2068 -0.5205
 7186TIP3   OH243048   5.159   0.413   3.318  0.4242  0.0020  0.6401
 7186TIP3    H143049   5.218   0.401   3.244 -0.8405 -1.0041 -0.2403
 7186TIP3    H243050   5.214   0.399   3.395  1.2272 -1.5180 -0.1687
 7187TIP3   OH243051   6.193   1.233   4.990  0.3529  0.5517 -0.3909
 7187TIP3    H143052   6.118   1.212   4.934  0.9721  0.6425 -1.2775
 7187TIP3    H243053   6.160   1.222   5.079 -0.8641  1.1030 -0.7475
 7188TIP3   OH243054   4.775   0.792  13.237 -0.2451 -0.0822 -0.3794
 7188TIP3    H143055   4.763   0.842  13.157  0.9433  1.3680  0.2880
 7188TIP3    H243056   4.859   0.823  13.273  0.6058 -2.6105  0.0692
 7189TIP3   OH243057   4.721   6.285   0.734  0.3322 -0.6226  0.0668
 7189TIP3    H143058   4.653   6.226   0.699  0.2997  0.2897 -1.5112
 7189TIP3    H243059   4.787   6.288   0.665  1.0387  0.0513  0.7617
 7190TIP3   OH243060   3.913   0.657   5.427 -0.2967  0.0909  0.4185
 7190TIP3    H143061   3.926   0.577   5.375 -1.4130 -0.7625  1.3919
 7190TIP3    H243062   3.989   0.660   5.485 -0.2718 -0.2888  0.4113
 7191TIP3   OH243063   6.305   3.680  15.342 -0.1887 -0.3045  0.0055
 7191TIP3    H143064   6.279   3.600  15.297 -0.8690 -0.0461 -0.0685
 7191TIP3    H243065   6.277   3.666  15.433  1.8123 -1.1207  0.5398
 7192TIP3   OH243066   3.134   1.091   5.527 -0.0310 -0.3271 -0.1024
 7192TIP3    H143067   3.084   1.026   5.577  1.1512 -0.2407  1.2403
 7192TIP3    H243068   3.095   1.175   5.553  1.3612 -0.1810  1.6934
 7193TIP3   OH243069   4.283   4.616   6.666 -0.4513  0.7988 -0.2917
 7193TIP3    H143070   4.245   4.533   6.637 -0.1340  0.2044  0.9186
 7193TIP3    H243071   4.216   4.653   6.724  0.7157 -0.2372  1.8296
 7194TIP3   OH243072   0.066   4.638  16.080  0.3575  0.2991 -0.4018
 7194TIP3    H143073   0.061   4.702  16.008  1.6013 -0.9561 -1.6748
 7194TIP3    H243074   0.095   4.557  16.038 -0.8248 -1.0362  1.2245
 7195TIP3   OH243075   3.133   1.098   4.735 -0.0162  0.5093 -0.0102
 7195TIP3    H143076   3.136   1.069   4.826  0.4296 -2.0215 -0.7385
 7195TIP3    H243077   3.061   1.049   4.697  0.4577  0.7317 -1.2504
 7196TIP3   OH243078   6.221   3.637   2.118  0.3399 -0.2249 -0.4923
 7196TIP3    H143079   6.198   3.546   2.138  0.2237 -0.0604  0.1676
 7196TIP3    H243080   6.171   3.689   2.182  0.1813  0.3234 -1.0413
 7197TIP3   OH243081   1.186   3.045  15.352 -0.1672 -0.1139  0.5244
 7197TIP3    H143082   1.168   3.021  15.261  1.1979  1.2190 -0.1412
 7197TIP3    H243083   1.100   3.058  15.391 -0.7815  1.2750 -1.1676
 7198TIP3   OH243084   0.511   0.605  13.353 -0.0423 -0.0600 -0.0929
 7198TIP3    H143085   0.494   0.674  13.290 -3.3147  0.8982  1.5677
 7198TIP3    H243086   0.579   0.640  13.410 -2.2544  2.4218  1.2811
 7199TIP3   OH243087   4.440   4.964  14.151  0.3304 -0.0617 -0.3736
 7199TIP3    H143088   4.359   4.983  14.198  1.3481 -0.1735  1.5244
 7199TIP3    H243089   4.454   4.870  14.164  0.6326 -0.1024 -0.9444
 7200TIP3   OH243090   4.098   4.192   4.428  1.1346 -0.3722 -0.2341
 7200TIP3    H143091   4.139   4.117   4.385  0.5446 -1.0030  0.2779
 7200TIP3    H243092   4.026   4.155   4.478  0.4990  0.6057 -0.3883
 7201TIP3   OH243093   3.547   0.030  11.835  0.0643 -0.7017  0.1227
 7201TIP3    H143094   3.565  -0.061  11.859 -1.1607 -0.7287  1.0005
 7201TIP3    H243095   3.574   0.081  11.911 -1.1622 -0.5327  0.4639
 7202TIP3   OH243096   6.115   3.784   4.237  0.2871  0.4238 -0.1292
 7202TIP3    H143097   6.091   3.759   4.147 -1.5214  0.9166  0.1706
 7202TIP3    H243098   6.208   3.766   4.242 -0.1442 -2.8141 -1.0855
 7203TIP3   OH243099   3.824   2.308   3.492  0.1104 -0.3811 -0.3863
 7203TIP3    H143100   3.840   2.219   3.461  1.9074 -0.7296  1.3221
 7203TIP3    H243101   3.731   2.323   3.478 -0.0252 -2.1520 -1.6236
 7204TIP3   OH243102   3.110   0.537  13.827  0.5352  0.3537  0.4933
 7204TIP3    H143103   3.138   0.608  13.769 -0.6355 -0.4245 -1.1196
 7204TIP3    H243104   3.132   0.567  13.915  1.2630  2.1265 -0.2525
 7205TIP3   OH243105   0.513   5.596   1.264  0.5303 -0.7376  0.4018
 7205TIP3    H143106   0.518   5.520   1.322  0.9832 -1.1443 -0.1554
 7205TIP3    H243107   0.444   5.574   1.201 -2.1011  0.9559  2.5189
 7206TIP3   OH243108   5.733   1.993  14.838 -0.2993 -0.7088  0.0683
 7206TIP3    H143109   5.779   2.077  14.835  2.5903 -1.5656  5.8646
 7206TIP3    H243110   5.798   1.930  14.806  0.3335 -1.2567  2.2351
 7207TIP3   OH243111   1.978   6.418   0.451  0.3139 -0.2971  0.3864
 7207TIP3    H143112   2.023   6.336   0.432  0.3770 -0.9099  2.8368
 7207TIP3    H243113   1.891   6.391   0.481 -0.4752  0.6908 -0.9019
 7208TIP3   OH243114   6.174   6.547  14.911  0.6168  0.1848 -0.7952
 7208TIP3    H143115   6.212   6.578  14.993 -0.9820 -0.2851  0.1708
 7208TIP3    H243116   6.218   6.598  14.843  0.6126  1.9919  0.4924
 7209TIP3   OH243117   2.332   6.206   4.995 -0.1083 -0.6286  0.0855
 7209TIP3    H143118   2.427   6.205   5.007 -0.1510 -2.0122  0.4702
 7209TIP3    H243119   2.299   6.138   5.054 -1.0918 -2.0612 -1.9710
 7210TIP3   OH243120   3.755   5.054   0.451  0.6293 -0.1823  0.1287
 7210TIP3    H143121   3.830   5.035   0.507 -0.2952 -0.0201  1.4569
 7210TIP3    H243122   3.689   5.092   0.510 -1.0800 -1.7456 -0.6654
 7211TIP3   OH243123   4.772   3.994  12.309  0.2683 -0.7785  0.1244
 7211TIP3    H143124   4.842   3.999  12.373 -1.3876 -1.3363  2.0739
 7211TIP3    H243125   4.774   4.079  12.264 -0.3473  0.8889  2.9914
 7212TIP3   OH243126   0.891   2.623   4.693 -0.0783  0.0990 -0.1920
 7212TIP3    H143127   0.804   2.644   4.727  0.5470  2.5919  0.0342
 7212TIP3    H243128   0.897   2.668   4.609  0.6707 -0.8649 -0.6854
 7213TIP3   OH243129   2.265   0.697  10.989  0.2093 -0.6527 -0.2089
 7213TIP3    H143130   2.336   0.734  10.936  0.7221 -2.6876 -1.0460
 7213TIP3    H243131   2.219   0.773  11.024  1.0833  0.7613 -1.9554
 7214TIP3   OH243132   2.543   3.871   1.812  0.3363 -0.2806  0.2770
 7214TIP3    H143133   2.449   3.854   1.818 -0.0731  1.9077  0.9477
 7214TIP3    H243134   2.577   3.797   1.763 -1.8999 -0.6410 -0.8824
 7215TIP3   OH243135   4.994   4.388  16.703 -0.1094 -0.7293 -0.5228
 7215TIP3    H143136   4.942   4.319  16.662  0.4710 -0.7568 -1.2414
 7215TIP3    H243137   5.067   4.342  16.744 -0.5646 -0.6781  0.3650
 7216TIP3   OH243138   2.170   4.913   5.816 -0.5954  0.4010  0.3843
 7216TIP3    H143139   2.244   4.972   5.828 -0.8228  0.6543  0.5647
 7216TIP3    H243140   2.105   4.965   5.769 -1.1425  0.5892  1.3172
 7217TIP3   OH243141   6.023   5.927   4.747 -0.0784 -0.4991  0.3805
 7217TIP3    H143142   5.995   5.838   4.769  0.3589 -0.7636 -0.1292
 7217TIP3    H243143   5.992   5.940   4.658  1.6482 -0.9051 -0.3079
 7218TIP3   OH243144   1.736   6.236   6.504  0.1550 -0.7439 -1.3319
 7218TIP3    H143145   1.699   6.183   6.575 -1.6799  0.9946 -0.9090
 7218TIP3    H243146   1.666   6.296   6.480  1.9016  1.0366 -2.2696
 7219TIP3   OH243147   1.432   1.521   3.088 -1.4979  0.6517 -0.2795
 7219TIP3    H143148   1.354   1.540   3.036 -2.7049 -2.0265  0.3869
 7219TIP3    H243149   1.399   1.488   3.172  0.3096 -0.6615 -0.0039
 7220TIP3   OH243150   2.466   4.697   5.616  0.0575 -0.5967 -0.0325
 7220TIP3    H143151   2.541   4.639   5.601  1.4578  1.6443 -2.5273
 7220TIP3    H243152   2.481   4.736   5.702  2.1803  0.2935 -0.7496
 7221TIP3   OH243153   6.079   1.658   0.605 -0.1387 -0.1023 -0.4699
 7221TIP3    H143154   6.081   1.600   0.530  1.7624  1.3667 -1.6418
 7221TIP3    H243155   6.171   1.680   0.621 -0.5942  0.5684  1.5449
 7222TIP3   OH243156   1.994   5.497  16.434  0.0318  0.1426 -0.5278
 7222TIP3    H143157   1.929   5.440  16.393  0.9746 -1.5479  0.1990
 7222TIP3    H243158   1.947   5.541  16.505 -0.6286 -0.0491 -0.8405
 7223TIP3   OH243159   5.593   1.830  16.755  0.0120 -0.3206 -0.1706
 7223TIP3    H143160   5.540   1.907  16.774 -1.4657 -0.9582 -1.4461
 7223TIP3    H243161   5.681   1.853  16.784 -0.5667  1.5108  0.2570
 7224TIP3   OH243162   1.746   1.553   6.570  0.4180 -0.1421  0.1047
 7224TIP3    H143163   1.803   1.626   6.593 -0.5196  0.2208  1.3455
 7224TIP3    H243164   1.784   1.518   6.490  0.2572  2.4071 -1.1938
 7225TIP3   OH243165   5.534   3.365   2.337 -0.0320  0.1786  0.1767
 7225TIP3    H143166   5.621   3.328   2.321  0.1331  1.0581 -1.0314
 7225TIP3    H243167   5.476   3.289   2.341  0.0166 -0.2604 -3.9448
 7226TIP3   OH243168   4.226   6.529   4.566  0.1114 -0.2208  0.8807
 7226TIP3    H143169   4.253   6.438   4.559  1.2115  0.0596  1.3084
 7226TIP3    H243170   4.262   6.559   4.649 -0.5555  0.5085  0.9259
 7227TIP3   OH243171   2.734   6.629  11.035  0.1339 -0.7479  0.0247
 7227TIP3    H143172   2.664   6.614  10.971 -1.5070  0.4544  1.4464
 7227TIP3    H243173   2.810   6.655  10.982 -0.8514 -0.8115 -1.4820
 7228TIP3   OH243174   3.796   0.830   3.331  0.6724 -0.2566  0.9476
 7228TIP3    H143175   3.816   0.879   3.252 -1.0655 -1.1027 -0.0864
 7228TIP3    H243176   3.793   0.896   3.400 -0.4328  0.9383 -0.1933
 7229TIP3   OH243177   4.374   2.645   0.273  0.2608  0.3492  0.0013
 7229TIP3    H143178   4.469   2.648   0.290  0.3300 -0.2350 -0.2641
 7229TIP3    H243179   4.335   2.686   0.351  0.7077  0.1157  0.3580
 7230TIP3   OH243180   5.973   4.541   0.898  0.2110  0.0952 -0.7493
 7230TIP3    H143181   5.880   4.526   0.917 -0.2431  1.9968 -1.2881
 7230TIP3    H243182   5.997   4.472   0.836 -0.3520 -1.4575  0.6845
 7231TIP3   OH243183   4.705   3.863  11.816  0.5036  0.5087  0.4962
 7231TIP3    H143184   4.642   3.799  11.782  1.6019 -1.3341  1.7132
 7231TIP3    H243185   4.790   3.832  11.785  1.1844  0.6637  2.0944
 7232TIP3   OH243186   5.626   1.343  15.698 -0.0071  0.1299  0.2064
 7232TIP3    H143187   5.606   1.343  15.605 -0.2270  1.5687  0.2213
 7232TIP3    H243188   5.718   1.368  15.703  0.0543 -0.1215  0.3747
 7233TIP3   OH243189   5.294   4.509  11.824  0.0621  0.3026  0.5391
 7233TIP3    H143190   5.336   4.456  11.756 -0.5649  0.1249  0.2811
 7233TIP3    H243191   5.201   4.510  11.799  0.2787  2.9780 -0.4469
 7234TIP3   OH243192   4.551   6.061  17.233 -0.0876 -0.5711  0.4661
 7234TIP3    H143193   4.556   6.150  17.270 -0.1793 -0.1698 -0.4772
 7234TIP3    H243194   4.466   6.057  17.191 -0.0476 -1.0843  0.4322
 7235TIP3   OH243195   5.420   6.728  14.167 -0.0643  0.3881 -0.1059
 7235TIP3    H143196   5.514   6.720  14.150 -0.3620 -1.1705 -1.1869
 7235TIP3    H243197   5.415   6.763  14.256  1.5319  1.1580 -0.2862
 7236TIP3   OH243198   5.196   6.047   0.803  0.2701 -0.3231 -0.4410
 7236TIP3    H143199   5.162   6.130   0.836 -0.8659 -1.3925  1.2421
 7236TIP3    H243200   5.124   6.012   0.749  0.8750 -0.0834 -1.4283
 7237TIP3   OH243201   1.599   3.883  16.107  0.1186  0.4257 -0.1025
 7237TIP3    H143202   1.622   3.791  16.099 -1.5667  0.0998 -1.8852
 7237TIP3    H243203   1.667   3.920  16.163  1.5843 -1.5970 -0.4445
 7238TIP3   OH243204   2.819   0.260  15.970 -0.2831  0.3827 -0.9219
 7238TIP3    H143205   2.755   0.246  15.901  0.7075 -0.3615 -1.7293
 7238TIP3    H243206   2.838   0.173  16.004 -0.9553  0.7656  0.5077
 7239TIP3   OH243207   1.823   2.674   3.220 -0.6296 -0.7968 -0.1512
 7239TIP3    H143208   1.768   2.637   3.289  0.3779 -4.3279 -0.9928
 7239TIP3    H243209   1.762   2.699   3.151 -1.5677  1.8767  1.4889
 7240TIP3   OH243210   2.000   4.456  11.568  0.1976 -0.4388 -0.4277
 7240TIP3    H143211   1.908   4.482  11.567  0.1709 -0.4614  0.4231
 7240TIP3    H243212   2.022   4.447  11.661  1.2074  0.0682 -0.5987
 7241TIP3   OH243213   3.855   2.311   2.725  0.1933 -0.4882 -0.0882
 7241TIP3    H143214   3.809   2.380   2.677  0.5974  0.6866  1.1583
 7241TIP3    H243215   3.900   2.261   2.657  0.5129  0.9377 -0.9656
 7242TIP3   OH243216   2.897   2.716  15.507 -0.5086  0.8391 -0.8872
 7242TIP3    H143217   2.891   2.620  15.503  1.1690  0.7335 -1.8130
 7242TIP3    H243218   2.954   2.734  15.582  0.1443  1.0325 -1.4151
 7243TIP3   OH243219   6.062   2.815   4.504 -0.1103 -0.4274  0.2340
 7243TIP3    H143220   6.107   2.778   4.581 -0.2816  0.1422  0.6160
 7243TIP3    H243221   5.972   2.782   4.512 -0.4784  0.7074  1.0283
 7244TIP3   OH243222   1.084   5.441   3.059 -0.8684 -0.2858 -0.1121
 7244TIP3    H143223   1.015   5.451   2.993 -1.1507 -0.7701  0.1047
 7244TIP3    H243224   1.165   5.433   3.009 -0.8285  1.2499 -0.3557
 7245TIP3   OH243225   6.440   6.495  12.449  0.4607  0.2522  0.2360
 7245TIP3    H143226   6.376   6.451  12.505  1.1150  0.6634  1.3361
 7245TIP3    H243227   6.517   6.438  12.451 -0.0426 -0.5391 -1.5542
 7246TIP3   OH243228   6.142   2.805   3.565  0.3775 -0.4014 -0.0594
 7246TIP3    H143229   6.157   2.829   3.656  0.6331  0.5365 -0.3305
 7246TIP3    H243230   6.075   2.867   3.535 -1.3012 -2.0789  0.0723
 7247TIP3   OH243231   3.712   2.704   4.406  0.0603  0.2047  0.4943
 7247TIP3    H143232   3.662   2.647   4.347  2.2167  0.7160 -2.0198
 7247TIP3    H243233   3.686   2.793   4.381 -0.7914  0.4271  2.0665
 7248TIP3   OH243234   3.760   3.281   2.854 -0.1436 -0.0745 -0.2514
 7248TIP3    H143235   3.782   3.201   2.902  1.1514 -0.4325 -1.3745
 7248TIP3    H243236   3.718   3.337   2.919 -0.8713 -1.5754  0.6152
 7249TIP3   OH243237   3.584   5.724  13.960  0.0697  0.1260 -0.0436
 7249TIP3    H143238   3.680   5.721  13.953  0.0995 -1.5164  0.6394
 7249TIP3    H243239   3.567   5.713  14.053 -0.7730  2.0606  0.0683
 7250TIP3   OH243240   5.158   4.455  14.176 -0.0245  0.5632 -0.5569
 7250TIP3    H143241   5.247   4.465  14.210 -0.2188 -0.6088  0.3382
 7250TIP3    H243242   5.158   4.504  14.093  1.8388 -0.5661 -1.2657
 7251TIP3   OH243243   6.074   1.805   6.584  0.4648  0.0239 -0.7105
 7251TIP3    H143244   6.024   1.871   6.632 -0.6574 -0.7383 -0.7973
 7251TIP3    H243245   6.081   1.841   6.495  0.7946  0.5008 -0.4999
 7252TIP3   OH243246   0.474   5.447   0.674  0.4562  0.2102  1.1988
 7252TIP3    H143247   0.538   5.458   0.745  0.9697  1.4633  0.5742
 7252TIP3    H243248   0.477   5.529   0.626  0.3354 -0.7132 -0.4660
 7253TIP3   OH243249   0.575   4.239  12.423 -0.0132  0.8065 -0.1391
 7253TIP3    H143250   0.516   4.313  12.435 -2.1854 -0.4086 -2.4259
 7253TIP3    H243251   0.629   4.263  12.347  0.1761  0.5541 -0.0867
 7254TIP3   OH243252   3.261   6.404   5.305  0.3969 -0.4128 -0.4852
 7254TIP3    H143253   3.298   6.400   5.217  1.6467 -2.3307  0.0395
 7254TIP3    H243254   3.337   6.421   5.362  0.2477 -2.5551  0.4628
 7255TIP3   OH243255   6.194   1.548  13.568  0.4405 -0.0870 -0.0254
 7255TIP3    H143256   6.260   1.524  13.504  0.5143  0.5136 -0.1778
 7255TIP3    H243257   6.190   1.644  13.565  0.2019 -0.0656  0.6197
 7256TIP3   OH243258   5.920   5.513   1.515 -0.5554  0.1121  0.3780
 7256TIP3    H143259   5.843   5.500   1.571 -1.5872  1.4508 -0.6777
 7256TIP3    H243260   5.890   5.573   1.446  1.1660 -0.1156 -0.6194
 7257TIP3   OH243261   2.048   6.319  12.006 -0.7115 -0.2799 -0.0305
 7257TIP3    H143262   2.025   6.247  12.065 -1.3766 -1.3059 -1.4797
 7257TIP3    H243263   2.082   6.387  12.064 -0.2431 -1.6668  1.4208
 7258TIP3   OH243264   0.599   5.440  17.059  0.4018 -0.0931 -0.4295
 7258TIP3    H143265   0.684   5.413  17.093  0.5652  0.4982 -0.3563
 7258TIP3    H243266   0.617   5.468  16.969  0.5007  1.0751 -0.0708
 7259TIP3   OH243267   4.165   0.033  15.123 -0.2007  0.0034 -0.4816
 7259TIP3    H143268   4.111  -0.006  15.054 -0.0212  0.8875 -1.1476
 7259TIP3    H243269   4.249   0.052  15.080  0.4001 -0.7125  0.3626
 7260TIP3   OH243270   3.836   2.773   2.814 -0.1332 -0.6503 -0.1951
 7260TIP3    H143271   3.762   2.753   2.757  1.4239 -1.6715 -1.9357
 7260TIP3    H243272   3.913   2.741   2.767  1.2695 -1.3384  2.3920
 7261TIP3   OH243273   4.839   0.862  17.019 -0.2854 -0.4638  0.2461
 7261TIP3    H143274   4.828   0.834  17.110 -1.0295  0.3565  0.4271
 7261TIP3    H243275   4.759   0.911  16.999  0.4460  0.5076 -0.4117
 7262TIP3   OH243276   3.875   5.741  13.043  0.5711  0.4661 -0.2496
 7262TIP3    H143277   3.801   5.687  13.016  1.3542 -2.0730  2.1696
 7262TIP3    H243278   3.946   5.716  12.985  0.5194  0.0073 -0.1203
 7263TIP3   OH243279   1.458   1.500   1.044  0.2091  0.1181 -0.2324
 7263TIP3    H143280   1.377   1.550   1.033  0.8116  1.2300  0.1989
 7263TIP3    H243281   1.515   1.558   1.095  0.7061 -1.2717  0.8416
 7264TIP3   OH243282   2.646   4.411  12.973  0.1102 -0.4176 -0.0546
 7264TIP3    H143283   2.650   4.324  12.933 -1.9371 -0.7619  0.3713
 7264TIP3    H243284   2.703   4.405  13.050 -1.2168 -1.9235  0.8691
 7265TIP3   OH243285   6.463   4.351   3.874  0.2942 -0.0440 -0.5186
 7265TIP3    H143286   6.521   4.286   3.913 -1.4483 -0.2021  2.0742
 7265TIP3    H243287   6.512   4.433   3.878  1.1039 -0.5232 -0.3545
 7266TIP3   OH243288   1.334   5.842  15.724  0.0328  0.0088  0.7433
 7266TIP3    H143289   1.283   5.871  15.799 -1.4756 -1.6311  0.4426
 7266TIP3    H243290   1.291   5.761  15.696  1.5050 -0.2719 -0.9178
 7267TIP3   OH243291   5.161   0.606   4.557  0.1252  0.0745 -0.0247
 7267TIP3    H143292   5.216   0.595   4.635  0.6268 -0.8825 -0.5031
 7267TIP3    H243293   5.217   0.580   4.484 -1.2459 -1.9289 -0.4450
 7268TIP3   OH243294   4.503   1.336  11.324  0.1627  0.3677  0.0096
 7268TIP3    H143295   4.417   1.348  11.364 -0.5420 -1.0108 -1.0124
 7268TIP3    H243296   4.499   1.388  11.244  0.2518  0.2486 -0.0724
 7269TIP3   OH243297   1.776   6.203  13.696  0.1185 -0.5876  0.7090
 7269TIP3    H143298   1.751   6.114  13.721 -1.0071 -0.0594  1.6059
 7269TIP3    H243299   1.693   6.251  13.696  0.2853 -0.1164 -2.4712
 7270TIP3   OH243300   0.223   3.140  16.394 -0.1749  0.2556  0.0908
 7270TIP3    H143301   0.307   3.131  16.349 -0.7793  0.0767 -1.0487
 7270TIP3    H243302   0.218   3.232  16.419  0.9711 -0.0224  1.4482
 7271TIP3   OH243303   4.522   1.248  16.574  0.4346 -0.3493  0.2821
 7271TIP3    H143304   4.469   1.287  16.505  1.4458  1.7290  0.6206
 7271TIP3    H243305   4.595   1.206  16.528 -1.1378 -2.8536 -0.1542
 7272TIP3   OH243306   4.681   5.711   0.476 -0.1299 -0.5066  0.2379
 7272TIP3    H143307   4.701   5.646   0.543  0.7019  0.1093  0.6021
 7272TIP3    H243308   4.743   5.782   0.492 -1.7090  0.8618  0.5273
 7273TIP3   OH243309   6.448   1.742   6.351 -0.0577 -0.2119 -0.2135
 7273TIP3    H143310   6.476   1.806   6.416  1.0347 -0.4474 -0.4408
 7273TIP3    H243311   6.386   1.790   6.296 -0.1818  0.2912  0.3499
 7274TIP3   OH243312   1.172   1.365  12.219 -0.5450 -0.3189  0.1840
 7274TIP3    H143313   1.101   1.423  12.193  0.2675  0.6405  0.0804
 7274TIP3    H243314   1.163   1.289  12.162 -0.4740  0.5340 -0.9939
 7275TIP3   OH243315   0.703   1.841   2.741 -0.5171  0.2084  0.1573
 7275TIP3    H143316   0.776   1.811   2.688  0.1184  0.9833  0.5747
 7275TIP3    H243317   0.656   1.903   2.684 -0.7899 -0.1956 -0.0656
 7276TIP3   OH243318   3.210   1.020  13.485  0.3399 -0.3111 -0.0161
 7276TIP3    H143319   3.297   1.052  13.462  1.0687 -2.3661 -0.2818
 7276TIP3    H243320   3.195   1.053  13.573  2.0124 -1.0559  0.5963
 7277TIP3   OH243321   5.132   1.954  15.520  0.7270 -0.1032  0.1929
 7277TIP3    H143322   5.196   2.000  15.465 -0.8288  0.4160 -1.2532
 7277TIP3    H243323   5.097   1.885  15.464  1.0950 -1.3861  1.4846
 7278TIP3   OH243324   4.155   5.989   5.872  0.2251  0.0756 -0.1769
 7278TIP3    H143325   4.075   5.962   5.828  1.8338 -0.0104 -3.3194
 7278TIP3    H243326   4.158   6.084   5.862 -0.2771  0.2961  1.4874
 7279TIP3   OH243327   0.904   3.633   0.946 -0.5619  0.2444  0.0993
 7279TIP3    H143328   0.944   3.554   0.982  0.5918  0.9383  0.4190
 7279TIP3    H243329   0.872   3.607   0.860 -3.6813 -1.5449  1.6502
 7280TIP3   OH243330   5.770   5.813  16.310 -0.1233  0.0754 -0.3671
 7280TIP3    H143331   5.694   5.792  16.256 -0.5449  1.9400 -0.5630
 7280TIP3    H243332   5.783   5.908  16.298  1.4239  0.0393  0.6943
 7281TIP3   OH243333   3.833   5.619   4.121  0.3939 -0.1173  0.2476
 7281TIP3    H143334   3.853   5.591   4.032 -1.1774  0.6001 -0.3586
 7281TIP3    H243335   3.793   5.706   4.111 -1.3628 -0.7268  1.4988
 7282TIP3   OH243336   0.494   2.162   3.730 -0.1450  0.2559  0.1079
 7282TIP3    H143337   0.575   2.171   3.780 -0.0743  0.5174 -0.0511
 7282TIP3    H243338   0.488   2.068   3.711  1.0836  0.4463 -1.4450
 7283TIP3   OH243339   3.120   5.322  14.673 -0.4965 -0.1484 -0.4130
 7283TIP3    H143340   3.092   5.379  14.744  2.1103  1.1720 -0.3343
 7283TIP3    H243341   3.125   5.379  14.596  1.4332 -0.3621 -0.4976
 7284TIP3   OH243342   5.160   1.897   5.260  0.4851  0.3633  0.1614
 7284TIP3    H143343   5.104   1.969   5.288  0.6024  0.1520  0.9747
 7284TIP3    H243344   5.240   1.939   5.228 -0.8921  0.8115 -3.0499
 7285TIP3   OH243345   1.030   4.770  15.152 -0.2373  0.2281 -0.4364
 7285TIP3    H143346   1.032   4.710  15.077  0.0036 -0.4251  0.0806
 7285TIP3    H243347   0.988   4.720  15.222 -2.1193  1.4529 -0.6251
 7286TIP3   OH243348   0.011   4.525  14.624 -0.4704 -0.1018 -0.5156
 7286TIP3    H143349  -0.001   4.617  14.601 -3.3299 -0.6306 -1.5226
 7286TIP3    H243350   0.019   4.480  14.540  1.1597 -0.7901 -0.0268
 7287TIP3   OH243351   4.464   4.196  16.496  0.1386  0.0040  0.1457
 7287TIP3    H143352   4.556   4.215  16.477 -0.2393  0.8051 -0.9812
 7287TIP3    H243353   4.415   4.236  16.424 -1.1233 -0.1679  0.8665
 7288TIP3   OH243354   5.722   2.706   1.933  0.3251 -0.7004  0.4031
 7288TIP3    H143355   5.817   2.703   1.924  0.2867  0.8892 -0.8699
 7288TIP3    H243356   5.690   2.641   1.871  0.5604 -0.9384  0.5281
 7289TIP3   OH243357   6.659   3.086  14.049  0.0505  0.4183 -0.1586
 7289TIP3    H143358   6.670   3.004  14.002  0.1534  0.6450 -0.5410
 7289TIP3    H243359   6.586   3.129  14.005 -0.3993  0.2617  0.4311
 7290TIP3   OH243360   0.941   1.193   2.126  0.1863 -0.4219  0.0743
 7290TIP3    H143361   1.031   1.223   2.113  0.0210 -0.4730 -1.3843
 7290TIP3    H243362   0.914   1.162   2.040 -0.7786 -1.6740  0.7896
 7291TIP3   OH243363   3.464   3.065  14.430  0.2565  0.4625 -0.0505
 7291TIP3    H143364   3.374   3.092  14.417 -1.4199 -2.3037  3.8495
 7291TIP3    H243365   3.474   2.987  14.376  0.5029  0.9862 -0.7802
 7292TIP3   OH243366   1.268   0.882  13.053 -0.2696  0.7152 -0.2259
 7292TIP3    H143367   1.242   0.866  13.144  0.9564 -0.4205 -0.0593
 7292TIP3    H243368   1.204   0.834  13.001 -0.3703  0.5357  0.0632
 7293TIP3   OH243369   4.526   0.299   5.436  0.1165  0.2236 -0.5857
 7293TIP3    H143370   4.471   0.228   5.470  1.0032  0.1793  0.8287
 7293TIP3    H243371   4.612   0.285   5.477  0.1803  2.4097  0.1326
 7294TIP3   OH243372   6.789   3.042   2.378 -0.1235 -0.1267  0.0092
 7294TIP3    H143373   6.709   2.996   2.405 -0.4874  0.2656 -0.3708
 7294TIP3    H243374   6.803   3.108   2.447 -0.7664  0.5402 -0.4764
 7295TIP3   OH243375   0.250   4.987  15.552 -0.6827  0.1775  0.1732
 7295TIP3    H143376   0.209   4.955  15.632 -1.1149  0.9528  0.2718
 7295TIP3    H243377   0.341   5.006  15.577 -0.4000 -1.0041  0.0956
 7296TIP3   OH243378   2.625   3.552   4.664  0.0010  0.0642 -0.1329
 7296TIP3    H143379   2.664   3.468   4.641  0.0457 -0.1525  0.7034
 7296TIP3    H243380   2.552   3.562   4.602 -0.7548 -1.1622  0.5207
 7297TIP3   OH243381   3.838   4.892  14.936 -0.7673 -0.0048 -0.7962
 7297TIP3    H143382   3.791   4.971  14.908  0.5779  1.5210  0.9110
 7297TIP3    H243383   3.929   4.910  14.915 -0.4824 -1.3245 -0.7677
 7298TIP3   OH243384   0.276   0.255  16.170  0.2199 -0.0221 -0.1542
 7298TIP3    H143385   0.224   0.175  16.183 -1.0684  1.0077  1.4651
 7298TIP3    H243386   0.218   0.326  16.196  1.3305  1.4724 -1.5878
 7299TIP3   OH243387   0.514   3.964  16.778 -0.2106 -0.3495 -0.4949
 7299TIP3    H143388   0.486   3.874  16.762  3.0607 -1.4316 -0.9686
 7299TIP3    H243389   0.600   3.955  16.820 -0.6582  2.5809  1.3189
 7300TIP3   OH243390   3.986   2.932   0.951 -0.5382 -0.3494 -0.0700
 7300TIP3    H143391   3.975   2.986   1.029  1.4687 -0.7531  0.5709
 7300TIP3    H243392   3.950   2.847   0.974  0.5107 -0.6212  0.6576
 7301TIP3   OH243393   3.445   6.200   2.733  0.0465  0.2036  0.8326
 7301TIP3    H143394   3.462   6.292   2.750 -0.3357  0.3555  0.4057
 7301TIP3    H243395   3.489   6.154   2.804  2.8219  0.5306 -0.5267
 7302TIP3   OH243396   2.693   3.230   5.822 -0.5832 -0.2212 -0.4718
 7302TIP3    H143397   2.687   3.325   5.833  0.3253 -0.1398 -0.6038
 7302TIP3    H243398   2.732   3.199   5.904 -3.2845 -0.8143  0.7158
 7303TIP3   OH243399   2.900   3.493   0.075  0.1908  0.7494  0.3475
 7303TIP3    H143400   2.939   3.534   0.152 -1.1152  1.0335  0.8746
 7303TIP3    H243401   2.821   3.450   0.107 -0.4202  0.9231 -0.8459
 7304TIP3   OH243402   0.385   2.987  13.612  0.7214 -0.1599  0.8146
 7304TIP3    H143403   0.359   2.906  13.567  2.2012 -0.0740 -0.2616
 7304TIP3    H243404   0.389   3.053  13.543 -1.3437  1.1181  1.8096
 7305TIP3   OH243405   5.551   5.097  16.865  0.0088 -0.3664 -0.0066
 7305TIP3    H143406   5.534   5.097  16.771  0.2202  0.7173 -0.0582
 7305TIP3    H243407   5.465   5.100  16.906 -0.0978  2.6540 -0.2369
 7306TIP3   OH243408   2.222   1.078  13.456  0.1261 -0.3823  0.6031
 7306TIP3    H143409   2.133   1.042  13.452  0.1190 -0.3190 -2.8801
 7306TIP3    H243410   2.209   1.171  13.478 -1.3553  0.8926 -4.4314
 7307TIP3   OH243411   3.736   3.801   5.944 -0.0716 -0.3844  0.4045
 7307TIP3    H143412   3.735   3.783   6.038  1.7534  1.1626  0.7759
 7307TIP3    H243413   3.647   3.779   5.915 -0.7778 -0.6082  2.5237
 7308TIP3   OH243414   0.519   2.211   5.631  0.3926  0.0282  0.1667
 7308TIP3    H143415   0.599   2.195   5.582 -1.1504 -0.9784 -2.1757
 7308TIP3    H243416   0.512   2.307   5.635  1.3838  0.1191 -0.1235
 7309TIP3   OH243417   6.294   3.191   5.443 -0.3202 -0.0914  0.5372
 7309TIP3    H143418   6.303   3.238   5.360 -0.1894 -0.4511  0.3468
 7309TIP3    H243419   6.201   3.197   5.464  0.1284  3.3685  2.3416
 7310TIP3   OH243420   6.225   3.605   1.489  0.1289 -0.3713 -0.0386
 7310TIP3    H143421   6.223   3.622   1.583  0.3721 -0.5722  0.0021
 7310TIP3    H243422   6.185   3.683   1.450  0.9154  0.1394  0.1665
 7311TIP3   OH243423   2.813   4.318  16.465  0.4616 -0.1325  0.1008
 7311TIP3    H143424   2.806   4.241  16.409 -3.5091 -0.2847  0.5250
 7311TIP3    H243425   2.798   4.284  16.554  0.0734  0.9123  0.4551
 7312TIP3   OH243426   6.610   2.766  13.695  0.6454  0.0864 -0.2975
 7312TIP3    H143427   6.666   2.832  13.656  1.0660 -0.6306 -0.9250
 7312TIP3    H243428   6.545   2.746  13.628 -0.7861  1.3519  0.6335
 7313TIP3   OH243429   3.007   3.011  15.783  0.5374  0.2158  0.4086
 7313TIP3    H143430   2.937   3.026  15.719  0.7258  1.6915  0.5145
 7313TIP3    H243431   3.032   2.920  15.770 -0.3314  0.1145 -0.7211
 7314TIP3   OH243432   2.799   2.964  12.568 -0.3205  0.1195  0.3613
 7314TIP3    H143433   2.718   2.939  12.524 -0.1070  1.0432 -0.5898
 7314TIP3    H243434   2.792   2.924  12.655  0.4060 -4.0692 -1.2494
 7315TIP3   OH243435   1.010   3.095   1.433  0.1241 -0.4917  1.3528
 7315TIP3    H143436   1.064   3.016   1.424  0.4828 -0.0781 -0.4079
 7315TIP3    H243437   1.032   3.128   1.520  2.3192 -0.6539  0.9239
 7316TIP3   OH243438   5.191   5.309   3.349 -0.1333  0.1541 -0.1523
 7316TIP3    H143439   5.137   5.267   3.282  0.5403 -1.4172  0.2472
 7316TIP3    H243440   5.138   5.382   3.380 -1.4238 -0.4889 -0.7574
 7317TIP3   OH243441   1.814   5.100   5.474 -0.1233  0.3575 -0.1197
 7317TIP3    H143442   1.810   5.042   5.398 -2.2495 -1.7234  1.4584
 7317TIP3    H243443   1.725   5.134   5.484  0.2215  0.9523  1.1700
 7318TIP3   OH243444   6.436   6.189   0.694 -0.1291 -0.6892  0.1229
 7318TIP3    H143445   6.370   6.166   0.760 -1.7621 -2.3391 -1.9285
 7318TIP3    H243446   6.477   6.106   0.671  1.7187  0.1278  0.3446
 7319TIP3   OH243447   1.940   1.324   5.323  0.4026 -0.1266  0.5195
 7319TIP3    H143448   1.858   1.327   5.274 -0.3899 -0.4096  1.7644
 7319TIP3    H243449   1.952   1.231   5.344  1.1626 -0.1145  0.1498
 7320TIP3   OH243450   5.809   1.163  17.219  0.6757  0.0238 -0.0442
 7320TIP3    H143451   5.863   1.166  17.140  3.2373  1.6763  1.6359
 7320TIP3    H243452   5.800   1.069  17.238 -0.4613 -0.4556 -2.4759
 7321TIP3   OH243453   6.565   0.114  12.018 -0.1959  0.4793  0.1483
 7321TIP3    H143454   6.520   0.051  11.962 -0.7108  1.2131 -0.2685
 7321TIP3    H243455   6.631   0.154  11.962 -0.5013  0.9881  0.1455
 7322TIP3   OH243456   2.146   1.366  10.897  0.3284  0.7768  0.1649
 7322TIP3    H143457   2.128   1.457  10.917 -2.4150  0.1983  0.8247
 7322TIP3    H243458   2.132   1.320  10.980 -2.4856 -0.6338 -0.9417
 7323TIP3   OH243459   6.326   3.523   3.417  0.9314 -0.3075  0.2405
 7323TIP3    H143460   6.324   3.554   3.508  0.2558  1.3915 -0.3141
 7323TIP3    H243461   6.315   3.602   3.365 -0.7866 -1.4865 -1.2928
 7324TIP3   OH243462   6.066   5.073  15.119 -0.0678  0.3349  0.2087
 7324TIP3    H143463   5.999   5.005  15.118  0.5631 -0.2912 -0.1982
 7324TIP3    H243464   6.137   5.037  15.066  1.4891  0.0649  2.3529
 7325TIP3   OH243465   0.971   4.371   0.699  0.0937  0.1815  0.1454
 7325TIP3    H143466   0.906   4.310   0.662 -0.4084  0.5777  0.3612
 7325TIP3    H243467   0.977   4.346   0.791  0.6072 -0.1634  0.0208
 7326TIP3   OH243468   5.893   2.621   0.967 -0.3553  0.3391 -0.1216
 7326TIP3    H143469   5.960   2.681   0.936 -0.4400  0.8356  0.6385
 7326TIP3    H243470   5.942   2.545   1.000 -0.2812 -0.4491 -1.9233
 7327TIP3   OH243471   2.211   0.965  10.825  0.5739 -0.7175  0.1979
 7327TIP3    H143472   2.126   0.931  10.797  0.5985 -2.6205  2.2539
 7327TIP3    H243473   2.207   1.058  10.803 -1.8865 -0.8262 -0.0955
 7328TIP3   OH243474   0.321   4.159   5.624 -0.6312 -0.2979  0.1667
 7328TIP3    H143475   0.320   4.092   5.555  1.3889 -2.3948  1.9947
 7328TIP3    H243476   0.391   4.219   5.599 -0.2998 -0.7125  0.0928
 7329TIP3   OH243477   3.645   2.323   4.934  0.4876 -0.2167  0.1712
 7329TIP3    H143478   3.637   2.414   4.962 -1.0611 -0.1395 -0.3843
 7329TIP3    H243479   3.635   2.327   4.839 -0.3534 -1.0104  0.2038
 7330TIP3   OH243480   2.126   4.539   3.199  0.3141 -0.0788 -0.1835
 7330TIP3    H143481   2.160   4.620   3.236  0.0095  0.6613 -1.4434
 7330TIP3    H243482   2.178   4.524   3.120 -0.6981 -0.1947 -0.8632
 7331TIP3   OH243483   3.406   0.154  12.518 -0.1692  0.0578 -0.2848
 7331TIP3    H143484   3.375   0.077  12.470 -0.3688 -0.3024  0.3991
 7331TIP3    H243485   3.329   0.185  12.565  0.6676 -1.5659  2.4046
 7332TIP3   OH243486   1.620   5.103   5.726 -0.2774 -0.2276  0.0760
 7332TIP3    H143487   1.693   5.080   5.784  0.6804  1.9622 -0.1508
 7332TIP3    H243488   1.647   5.185   5.686 -1.1551 -1.3474 -3.0816
 7333TIP3   OH243489   0.494   1.307   5.028  0.3270  0.0526  0.5865
 7333TIP3    H143490   0.480   1.222   5.068  0.2732  0.4619  1.4466
 7333TIP3    H243491   0.414   1.324   4.978  0.9322 -1.0579 -0.8400
 7334TIP3   OH243492   1.502   1.168   5.454  0.1263  0.4240 -0.2178
 7334TIP3    H143493   1.428   1.161   5.395 -1.1792  2.8013  0.9764
 7334TIP3    H243494   1.528   1.260   5.449  2.0496 -0.0293  0.5108
 7335TIP3   OH243495   2.263   4.886  10.581  0.8211 -0.3174  0.2576
 7335TIP3    H143496   2.203   4.888  10.656  0.1958 -1.3668 -0.1935
 7335TIP3    H243497   2.324   4.959  10.597  0.1224  0.0628  1.2973
 7336TIP3   OH243498   0.602   0.148  13.360 -0.6880  0.2008  0.0513
 7336TIP3    H143499   0.561   0.105  13.285 -1.1648  0.6651  0.0345
 7336TIP3    H243500   0.576   0.094  13.435 -1.6521  0.6751  0.0854
 7337TIP3   OH243501   0.006   6.710   3.212 -0.0645  0.9268  0.0289
 7337TIP3    H143502   0.012   6.756   3.296  0.0605  1.0782 -0.0638
 7337TIP3    H243503   0.095   6.709   3.179  0.0154  0.2311  0.2372
 7338TIP3   OH243504   0.915   5.098  13.001 -0.6000 -0.4889 -0.3711
 7338TIP3    H143505   0.935   5.122  13.091  1.1305  1.5806 -1.2019
 7338TIP3    H243506   0.980   5.031  12.979 -0.0042  0.1263 -0.5201
 7339TIP3   OH243507   5.258   1.668  13.185  0.6180  0.3964 -0.7295
 7339TIP3    H143508   5.207   1.629  13.114  0.7485 -2.0976  0.4430
 7339TIP3    H243509   5.349   1.657  13.158  0.6547  2.4515 -1.6133
 7340TIP3   OH243510   6.664   2.495  13.761 -1.0547  0.0183  0.7163
 7340TIP3    H143511   6.677   2.575  13.711  2.5490 -2.3130 -2.7042
 7340TIP3    H243512   6.725   2.502  13.835 -0.6870  0.4197  0.3753
 7341TIP3   OH243513   6.027   0.688  11.937 -0.7660  0.2973 -0.0017
 7341TIP3    H143514   5.954   0.635  11.905 -0.1221 -0.8579  0.3800
 7341TIP3    H243515   6.095   0.680  11.870 -0.4656  0.1989  0.3113
 7342TIP3   OH243516   4.044   0.812  11.263  0.2795  0.3829  0.2418
 7342TIP3    H143517   3.966   0.777  11.221 -0.2735  1.0820  0.6627
 7342TIP3    H243518   4.012   0.882  11.320  1.3849  1.8925 -0.8874
 7343TIP3   OH243519   5.002   2.527  17.239 -0.0659  0.7328  0.1126
 7343TIP3    H143520   5.043   2.610  17.214  2.0432 -0.7312 -1.5627
 7343TIP3    H243521   4.974   2.487  17.157  2.4596 -1.9216  0.3978
 7344TIP3   OH243522   5.439   0.177  16.906  0.2184  0.7591 -0.6210
 7344TIP3    H143523   5.441   0.272  16.897  1.2880  0.8961  0.7217
 7344TIP3    H243524   5.531   0.150  16.906  0.0042 -0.0852  0.4860
 7345TIP3   OH243525   0.463   6.498  11.432  0.5118  0.1676  1.0561
 7345TIP3    H143526   0.545   6.526  11.392  1.1175 -2.9292 -0.1269
 7345TIP3    H243527   0.419   6.447  11.364 -0.0101 -2.4381  3.1736
 7346TIP3   OH243528   2.921   4.960   2.811 -0.0445  0.1800 -0.0710
 7346TIP3    H143529   2.833   4.933   2.783 -0.3565  1.9334 -0.9247
 7346TIP3    H243530   2.972   4.962   2.731  0.1430  1.3534  0.0586
 7347TIP3   OH243531   0.722   4.524   3.966  0.2070 -0.0360  0.1007
 7347TIP3    H143532   0.773   4.604   3.957  1.3094 -0.3927  2.4850
 7347TIP3    H243533   0.726   4.483   3.879  0.6831  1.8351 -0.8052
 7348TIP3   OH243534   5.664   5.621   2.206  0.2905 -0.2779  0.0895
 7348TIP3    H143535   5.614   5.547   2.242  1.1840 -1.0308 -0.1596
 7348TIP3    H243536   5.678   5.679   2.280  0.4481 -0.8598  0.5244
 7349TIP3   OH243537   3.278   3.105  12.652 -0.0783 -0.5374  0.6199
 7349TIP3    H143538   3.251   3.048  12.580 -0.3052  0.8748 -0.4655
 7349TIP3    H243539   3.228   3.185  12.638  1.2813  0.4590  1.2680
 7350TIP3   OH243540   0.417   3.785   5.667 -0.0829  0.3414  0.2029
 7350TIP3    H143541   0.377   3.793   5.581 -1.2189 -1.0425  0.5761
 7350TIP3    H243542   0.509   3.807   5.652 -0.1466 -0.3775 -1.4577
 7351TIP3   OH243543   0.755   4.772   5.792 -0.1784  0.9190 -0.0199
 7351TIP3    H143544   0.749   4.678   5.780  1.2568  0.7097  0.6176
 7351TIP3    H243545   0.708   4.790   5.874  0.0221  0.6750  0.1482
 7352TIP3   OH243546   5.968   4.069  12.604 -0.4584  0.3288 -0.0121
 7352TIP3    H143547   5.970   4.131  12.677 -1.9281 -0.8970  1.1554
 7352TIP3    H243548   5.882   4.027  12.612  0.9268 -2.7027  0.0022
 7353TIP3   OH243549   3.437   1.670   0.302  0.5003 -0.1449  0.3497
 7353TIP3    H143550   3.411   1.600   0.363 -1.2210  0.0690 -0.0882
 7353TIP3    H243551   3.451   1.746   0.358  1.7132 -0.6291  0.7538
 7354TIP3   OH243552   5.367   5.489  12.800 -1.0276 -0.1484 -0.0156
 7354TIP3    H143553   5.390   5.540  12.722 -0.4955 -0.2938  0.0421
 7354TIP3    H243554   5.330   5.553  12.861 -2.3150 -0.1795 -0.7273
 7355TIP3   OH243555   6.102   3.926  16.977 -0.2594 -0.4800  0.0797
 7355TIP3    H143556   6.017   3.941  16.935 -0.8634 -2.0094  0.6841
 7355TIP3    H243557   6.163   3.981  16.927 -1.4369 -0.0747 -0.9723
 7356TIP3   OH243558   3.148   1.935  14.105 -0.2852 -0.0152  0.2925
 7356TIP3    H143559   3.166   1.952  14.198 -1.4768  0.8947  0.3777
 7356TIP3    H243560   3.153   1.839  14.097  1.1681 -0.0280  0.9846
 7357TIP3   OH243561   4.227   3.458   0.380 -0.3296 -0.8453 -0.4118
 7357TIP3    H143562   4.188   3.373   0.359  0.4145 -1.3027 -0.0116
 7357TIP3    H243563   4.312   3.436   0.419  0.0789  0.1025 -0.7397
 7358TIP3   OH243564   4.894   2.164  15.203 -0.2778 -0.0886 -0.6252
 7358TIP3    H143565   4.940   2.207  15.131 -1.1678  0.2739 -0.9845
 7358TIP3    H243566   4.897   2.071  15.181  0.8197 -0.1418 -0.3267
 7359TIP3   OH243567   2.926   3.543   3.315  0.3822 -0.1820 -0.0965
 7359TIP3    H143568   2.852   3.574   3.366  0.1220  0.2425 -0.7246
 7359TIP3    H243569   2.998   3.536   3.379 -0.5568 -2.0850  0.8455
 7360TIP3   OH243570   3.686   0.996  11.637 -0.6749 -0.1027  0.1668
 7360TIP3    H143571   3.600   0.956  11.624 -0.6416 -0.1334  0.0395
 7360TIP3    H243572   3.675   1.052  11.713 -0.8460  0.0027  0.0656
 7361TIP3   OH243573   0.737   4.196   3.250 -0.3325  0.6053 -0.4401
 7361TIP3    H143574   0.695   4.211   3.165  0.7051 -0.0073 -1.0716
 7361TIP3    H243575   0.821   4.156   3.229  0.0265  0.6292  0.8737
 7362TIP3   OH243576   4.584   0.140   4.139  0.5453 -0.2124  0.0493
 7362TIP3    H143577   4.624   0.068   4.090 -2.6130 -2.1577  0.0148
 7362TIP3    H243578   4.574   0.106   4.228  0.5088  0.8277  0.4486
 7363TIP3   OH243579   2.306   6.079  14.764 -0.5659 -0.1918 -0.0827
 7363TIP3    H143580   2.332   6.027  14.688  0.6495 -0.5457  0.5526
 7363TIP3    H243581   2.211   6.073  14.765 -0.5409 -1.0515 -0.9727
 7364TIP3   OH243582   0.187   4.250  16.661 -0.2751  0.4745 -0.5020
 7364TIP3    H143583   0.228   4.336  16.672 -1.9133  1.3466 -0.8027
 7364TIP3    H243584   0.139   4.257  16.579 -2.3028  0.1061  0.5814
 7365TIP3   OH243585   6.353   3.573  12.700 -0.0835 -0.0521  0.2356
 7365TIP3    H143586   6.278   3.536  12.654  0.1012 -2.4405  1.6912
 7365TIP3    H243587   6.409   3.610  12.631 -1.7513  0.2485 -1.0085
 7366TIP3   OH243588   3.795   0.799  17.202  0.1802  0.2820 -0.2108
 7366TIP3    H143589   3.807   0.717  17.250  0.1171 -0.1644 -0.9430
 7366TIP3    H243590   3.752   0.773  17.120 -0.7382  1.1674 -0.0256
 7367TIP3   OH243591   2.179   2.552  15.604 -0.3527  0.1340  0.3230
 7367TIP3    H143592   2.242   2.622  15.620  0.3657  0.8105 -4.0443
 7367TIP3    H243593   2.106   2.595  15.559 -1.3796 -1.4559  0.3680
 7368TIP3   OH243594   6.008   1.644   0.901 -0.0230 -0.4143 -0.1658
 7368TIP3    H143595   6.052   1.626   0.817 -0.6786  0.6109 -0.7437
 7368TIP3    H243596   6.076   1.628   0.967  1.1124  0.7427 -1.0029
 7369TIP3   OH243597   6.408   2.332  16.957 -0.3053 -0.0835  0.1958
 7369TIP3    H143598   6.497   2.349  16.928 -0.5329  1.4752  0.2782
 7369TIP3    H243599   6.362   2.304  16.878  0.3849 -1.5459  0.2873
 7370TIP3   OH243600   2.750   6.293   1.509  0.1208 -0.1465 -0.3157
 7370TIP3    H143601   2.703   6.217   1.475  1.2142 -1.3149  0.6798
 7370TIP3    H243602   2.826   6.256   1.554  0.0684  1.4703  1.2048
 7371TIP3   OH243603   4.296   5.339  11.576  0.3001 -0.2738  0.4161
 7371TIP3    H143604   4.229   5.371  11.637 -0.9179  1.2313 -1.5806
 7371TIP3    H243605   4.317   5.416  11.523  0.9458 -1.6321 -1.3685
 7372TIP3   OH243606   0.703   6.692   2.711  0.2482 -0.0507 -0.3208
 7372TIP3    H143607   0.626   6.699   2.768  0.6029 -0.3977  0.2066
 7372TIP3    H243608   0.734   6.782   2.703 -0.0614  0.0579 -0.3203
 7373TIP3   OH243609   1.266   2.821  10.888 -0.3339  0.2601 -0.6685
 7373TIP3    H143610   1.243   2.822  10.981  1.6775  1.0293 -0.1120
 7373TIP3    H243611   1.307   2.735  10.874  2.4318  1.3288  0.0902
 7374TIP3   OH243612   3.402   3.859  15.848  0.4221  0.1517  0.0466
 7374TIP3    H143613   3.395   3.903  15.763  1.5916  0.6164  0.1742
 7374TIP3    H243614   3.364   3.772  15.833  2.5647 -0.5970 -1.5904
 7375TIP3   OH243615   2.662   5.557   3.985 -0.0335  0.2005 -0.3104
 7375TIP3    H143616   2.594   5.552   4.052 -0.0945  0.1854 -0.3737
 7375TIP3    H243617   2.626   5.613   3.917  0.6505  1.5327  0.3928
 7376TIP3   OH243618   0.482   2.145  12.403 -0.2639  0.2818  0.6978
 7376TIP3    H143619   0.408   2.205  12.404  0.0837  0.8119 -1.0910
 7376TIP3    H243620   0.511   2.144  12.312 -0.2908 -2.6825  0.6194
 7377TIP3   OH243621   2.532   4.889  10.797 -0.4356  0.8659 -0.1295
 7377TIP3    H143622   2.457   4.842  10.834 -0.5740  0.0341 -1.4027
 7377TIP3    H243623   2.495   4.972  10.767 -0.5579  1.0481  0.5055
 7378TIP3   OH243624   3.378   1.226  16.896 -0.1979 -0.2390  0.5332
 7378TIP3    H143625   3.413   1.187  16.816  0.1080  0.0997  0.4993
 7378TIP3    H243626   3.439   1.296  16.918 -1.1978  0.7955  0.1137
 7379TIP3   OH243627   3.213   5.394   1.101  0.1219  0.3864  0.0254
 7379TIP3    H143628   3.262   5.368   1.023 -0.9790  0.9064 -0.8807
 7379TIP3    H243629   3.201   5.314   1.150  1.9395  0.2580  0.3311
 7380TIP3   OH243630   1.909   1.026  16.617 -0.2100  0.3634  0.3805
 7380TIP3    H143631   1.873   0.985  16.695  0.6455 -0.5403  0.3214
 7380TIP3    H243632   1.994   1.058  16.644  0.0195  0.1959 -0.1299
 7381TIP3   OH243633   4.709   4.436  14.789 -0.1784  0.1587 -0.2768
 7381TIP3    H143634   4.774   4.504  14.769 -0.7407  0.6637 -0.4521
 7381TIP3    H243635   4.758   4.368  14.834  0.7279 -0.0444 -1.5057
 7382TIP3   OH243636   6.121   5.785   3.354 -0.8206 -0.6599  0.2094
 7382TIP3    H143637   6.045   5.749   3.309 -0.9145 -0.0139 -0.1550
 7382TIP3    H243638   6.120   5.878   3.333  0.3168 -0.7176 -0.1641
 7383TIP3   OH243639   3.389   5.679   2.683 -0.4284 -0.3176 -0.0761
 7383TIP3    H143640   3.324   5.713   2.622 -0.9074 -0.2064  0.4869
 7383TIP3    H243641   3.452   5.634   2.628 -1.5179 -1.3089 -0.5501
 7384TIP3   OH243642   6.822   3.738   5.253  0.1165  0.3263 -0.3137
 7384TIP3    H143643   6.890   3.685   5.296  0.3452  0.5812 -0.3642
 7384TIP3    H243644   6.752   3.675   5.233  0.0370  0.1872  0.3664
 7385TIP3   OH243645   1.980   5.851  16.716  0.1835  0.0653 -0.1072
 7385TIP3    H143646   1.939   5.775  16.675  0.2044 -0.7387  1.2929
 7385TIP3    H243647   1.909   5.895  16.763  0.2676  0.6378 -0.5046
 7386TIP3   OH243648   2.275   4.519   0.465  0.3548 -0.2825  0.5810
 7386TIP3    H143649   2.327   4.439   0.457  0.4259 -0.0381 -2.0504
 7386TIP3    H243650   2.184   4.490   0.453  0.5460  0.2439 -3.0172
 7387TIP3   OH243651   6.800   0.626   2.136 -0.3534 -0.1151  0.4955
 7387TIP3    H143652   6.756   0.669   2.209 -0.2591  0.0888  0.4330
 7387TIP3    H243653   6.854   0.559   2.177 -1.8294 -1.3637  0.4824
 7388TIP3   OH243654   3.067   5.784  16.404  0.1236  0.6344  0.4463
 7388TIP3    H143655   3.138   5.843  16.379 -0.1460  1.2180  1.0321
 7388TIP3    H243656   3.083   5.766  16.497  1.2266 -1.6640 -0.1277
 7389TIP3   OH243657   4.775   3.170  16.383  0.0363  0.4753 -0.2512
 7389TIP3    H143658   4.797   3.081  16.410  2.1612  1.7083  2.5965
 7389TIP3    H243659   4.683   3.165  16.357  0.0881 -2.5171 -0.2265
 7390TIP3   OH243660   4.173   0.764   6.739  0.1187  0.0335 -0.3392
 7390TIP3    H143661   4.114   0.834   6.768 -1.4821 -0.5130 -2.0268
 7390TIP3    H243662   4.237   0.756   6.809 -1.3953  1.1701  1.2715
 7391TIP3   OH243663   0.032   4.211  11.040 -0.5091  0.1966 -0.2278
 7391TIP3    H143664  -0.061   4.228  11.054 -0.7554  0.1049 -1.6471
 7391TIP3    H243665   0.037   4.117  11.023  0.1919 -0.3200  2.3024
 7392TIP3   OH243666   6.029   2.366  13.987 -0.0370  0.4424  0.0196
 7392TIP3    H143667   5.961   2.424  14.022 -1.9303 -0.0243 -2.5536
 7392TIP3    H243668   6.051   2.403  13.902  2.0207 -0.1950  0.2087
 7393TIP3   OH243669   3.979   1.281  11.622 -0.5415  0.0158 -0.0443
 7393TIP3    H143670   4.062   1.234  11.620  0.3949  1.2102  3.3523
 7393TIP3    H243671   3.931   1.242  11.695 -2.9915 -0.5421 -1.8238
 7394TIP3   OH243672   1.991   3.369   5.694 -0.0023  0.5539 -0.8907
 7394TIP3    H143673   1.989   3.324   5.779 -2.3827 -0.4954 -1.4341
 7394TIP3    H243674   2.048   3.445   5.709 -0.0153  0.1743  1.5273
 7395TIP3   OH243675   5.769   1.468   4.271  0.0879 -0.8702  0.3364
 7395TIP3    H143676   5.711   1.538   4.300  0.0025 -1.5381  1.8811
 7395TIP3    H243677   5.835   1.462   4.340  1.6406 -0.5728 -1.0573
 7396TIP3   OH243678   0.148   2.841   1.160  0.1026 -0.3708 -0.3692
 7396TIP3    H143679   0.131   2.932   1.136  0.9650 -0.3118 -0.7767
 7396TIP3    H243680   0.077   2.819   1.221 -0.3587  0.4328 -0.5967
 7397TIP3   OH243681   4.384   1.878  15.440 -0.8053  0.0493 -0.2800
 7397TIP3    H143682   4.354   1.857  15.351 -0.5105 -1.0859 -0.1269
 7397TIP3    H243683   4.328   1.950  15.468 -1.9152 -0.5787 -0.8173
 7398TIP3   OH243684   6.592   0.921   1.071 -0.4394 -0.1232  0.5144
 7398TIP3    H143685   6.609   0.831   1.100 -0.8313  0.2094  1.8648
 7398TIP3    H243686   6.511   0.945   1.115 -0.5346  0.7689 -0.1261
 7399TIP3   OH243687   3.145   1.313  10.460  0.0256  0.0594  1.0235
 7399TIP3    H143688   3.149   1.230  10.411  0.6911  0.3268  0.6231
 7399TIP3    H243689   3.131   1.380  10.394 -1.2756  0.2070  1.4187
 7400TIP3   OH243690   5.753   3.865   4.828  0.3418 -0.6111  0.6272
 7400TIP3    H143691   5.673   3.840   4.874  0.4178 -0.8057  0.6527
 7400TIP3    H243692   5.775   3.951   4.864 -0.7771  0.2114 -0.5628
 7401TIP3   OH243693   4.606   2.296   6.618 -0.3551 -0.5551 -0.5772
 7401TIP3    H143694   4.553   2.225   6.656  0.3295 -1.1310 -0.6906
 7401TIP3    H243695   4.686   2.297   6.670 -0.3489  0.1380 -0.5836
 7402TIP3   OH243696   6.459   4.010  11.429  0.6744 -0.4192  0.3021
 7402TIP3    H143697   6.522   4.017  11.501  0.5340 -0.1056  0.3967
 7402TIP3    H243698   6.426   4.099  11.417 -1.5400 -0.9336  1.8672
 7403TIP3   OH243699   2.879   1.062   1.347  0.0835  0.1137 -0.2391
 7403TIP3    H143700   2.944   1.123   1.381 -0.5845  0.8966 -0.3411
 7403TIP3    H243701   2.916   1.033   1.263  0.2527  0.6297 -0.3458
 7404TIP3   OH243702   6.633   5.680  13.274 -0.3950  0.4262  0.0637
 7404TIP3    H143703   6.568   5.669  13.204 -0.2182 -0.7029  0.0458
 7404TIP3    H243704   6.637   5.774  13.289 -0.4519  0.6971 -1.4422
 7405TIP3   OH243705   4.407   6.668   3.492 -0.1651  0.4028 -0.1582
 7405TIP3    H143706   4.497   6.658   3.462  0.2896 -1.3603  1.6047
 7405TIP3    H243707   4.402   6.758   3.526  1.6778 -0.1957  1.9132
 7406TIP3   OH243708   4.025   5.818   4.843  0.2488  0.2140 -0.4960
 7406TIP3    H143709   4.008   5.794   4.752 -0.5365  0.7354 -0.4965
 7406TIP3    H243710   4.085   5.893   4.838  1.2870 -0.6020 -0.5384
 7407TIP3   OH243711   0.716   0.701   4.482  0.2384  0.3722  0.1622
 7407TIP3    H143712   0.691   0.629   4.541  1.2197 -1.1272 -1.1525
 7407TIP3    H243713   0.794   0.739   4.522  1.2629 -1.0343 -0.3852
 7408TIP3   OH243714   2.166   6.083   1.919 -0.0323  0.0899 -0.6071
 7408TIP3    H143715   2.157   6.014   1.853 -2.0190  1.1149 -1.4979
 7408TIP3    H243716   2.246   6.130   1.893  1.6170 -2.0208  0.2746
 7409TIP3   OH243717   1.306   1.117   0.059  0.4923 -0.4575 -0.0735
 7409TIP3    H143718   1.287   1.036   0.108  0.7284 -0.7435 -0.4448
 7409TIP3    H243719   1.275   1.099  -0.030  1.7149 -0.6334 -0.4924
 7410TIP3   OH243720   0.543   1.504  12.578 -0.0641 -1.1204 -0.1663
 7410TIP3    H143721   0.623   1.557  12.586 -1.4199  1.0561 -0.3215
 7410TIP3    H243722   0.488   1.532  12.651 -1.2916 -1.4979 -0.9150
 7411TIP3   OH243723   0.316   2.749  13.446 -0.2012  0.2370 -0.2571
 7411TIP3    H143724   0.326   2.660  13.481  1.0781 -0.5717 -2.4530
 7411TIP3    H243725   0.257   2.739  13.371 -0.4188  1.3399 -0.2512
 7412TIP3   OH243726   6.718   1.610   6.702 -0.0813 -0.4993  0.4977
 7412TIP3    H143727   6.753   1.695   6.676 -0.7320  0.2550  1.9752
 7412TIP3    H243728   6.623   1.618   6.692 -0.1075 -1.3259 -0.0775
 7413TIP3   OH243729   1.261   1.698  14.700  0.0691 -0.4320  0.0695
 7413TIP3    H143730   1.174   1.661  14.715 -0.4806  1.0287  0.6668
 7413TIP3    H243731   1.273   1.694  14.605 -2.2749  2.6777 -0.5271
 7414TIP3   OH243732   0.700   2.200  10.853  0.0473 -0.1640  0.3036
 7414TIP3    H143733   0.607   2.184  10.838  0.6665 -1.8519 -2.5410
 7414TIP3    H243734   0.716   2.285  10.812 -0.5384  1.1630  2.6469
 7415TIP3   OH243735   0.363   4.692   4.660  0.2189 -0.1609  0.2375
 7415TIP3    H143736   0.383   4.783   4.685 -0.4944  0.1236 -0.2072
 7415TIP3    H243737   0.375   4.691   4.565  1.1371 -0.7773  0.3488
 7416TIP3   OH243738   0.492   5.031  15.694 -0.5048  0.5531  0.3300
 7416TIP3    H143739   0.548   5.097  15.735 -0.0743  0.6457 -0.3779
 7416TIP3    H243740   0.548   4.954  15.683 -0.8288  0.2731  0.5932
 7417TIP3   OH243741   5.887   2.655   1.607  0.3879  0.3137 -0.7923
 7417TIP3    H143742   5.818   2.621   1.550  0.3769 -0.2623 -0.4449
 7417TIP3    H243743   5.854   2.739   1.638 -0.2744 -0.0739 -0.4245
 7418TIP3   OH243744   4.996   4.619   5.180  0.4640  0.0587  0.6384
 7418TIP3    H143745   4.929   4.680   5.150 -0.0558  0.0936  1.8081
 7418TIP3    H243746   4.947   4.543   5.212  0.9906 -0.0896  1.1181
 7419TIP3   OH243747   5.045   6.470  14.540  0.8229  1.3977 -0.1397
 7419TIP3    H143748   5.096   6.389  14.546 -2.8440 -1.1957 -0.4028
 7419TIP3    H243749   5.060   6.500  14.451 -0.5534 -1.2088 -1.3626
 7420TIP3   OH243750   5.645   4.812   3.397  0.5349  0.0026 -0.6132
 7420TIP3    H143751   5.633   4.902   3.429  1.7967 -0.4171  1.2243
 7420TIP3    H243752   5.585   4.760   3.450  0.1218 -0.3102 -1.3760
 7421TIP3   OH243753   4.339   5.356   5.297 -0.0654 -0.4100  0.6340
 7421TIP3    H143754   4.367   5.326   5.210 -2.0365 -1.1063  0.1969
 7421TIP3    H243755   4.369   5.446   5.301  3.2340 -1.3872  0.7140
 7422TIP3   OH243756   1.860   5.167  15.816 -0.1887  0.3459  0.0765
 7422TIP3    H143757   1.910   5.115  15.753  0.2831 -0.6579  1.2437
 7422TIP3    H243758   1.914   5.167  15.895 -1.3505  0.4858  0.8890
 7423TIP3   OH243759   1.504   4.549   4.896 -0.0969 -0.5551 -0.0627
 7423TIP3    H143760   1.593   4.517   4.912 -0.1639 -0.4078  0.6441
 7423TIP3    H243761   1.506   4.579   4.805  1.0173  0.8347  0.3818
 7424TIP3   OH243762   3.793   4.567  16.548  0.1835  0.2627 -0.5610
 7424TIP3    H143763   3.771   4.478  16.520 -1.3374  1.5307 -3.9671
 7424TIP3    H243764   3.720   4.594  16.603  0.1494 -0.2267 -0.3586
 7425TIP3   OH243765   4.496   0.349   3.886  0.4740  0.0150  0.4557
 7425TIP3    H143766   4.531   0.266   3.919  1.5916  0.5890  0.7514
 7425TIP3    H243767   4.551   0.416   3.926  1.3799  0.7906 -1.9136
 7426TIP3   OH243768   2.816   1.590   3.888  0.5560 -0.0425  0.3222
 7426TIP3    H143769   2.866   1.630   3.816 -0.8064  2.2851  0.5682
 7426TIP3    H243770   2.803   1.661   3.951 -1.3158 -1.0657  1.1874
 7427TIP3   OH243771   2.454   4.666   1.177  0.6117  0.2146  0.2077
 7427TIP3    H143772   2.492   4.742   1.221  0.2960  1.6920 -1.9195
 7427TIP3    H243773   2.364   4.663   1.208  0.0577  1.9275 -1.0861
 7428TIP3   OH243774   5.276   1.143   5.159 -0.3640  0.6623 -0.1582
 7428TIP3    H143775   5.216   1.211   5.193 -0.3634  1.8181 -2.2984
 7428TIP3    H243776   5.320   1.110   5.237 -0.9569  2.5719  1.0771
 7429TIP3   OH243777   0.053   2.232   3.298 -0.5384  0.7261  0.2127
 7429TIP3    H143778   0.093   2.170   3.238  2.6898  2.0835  0.7505
 7429TIP3    H243779   0.042   2.184   3.379  0.2512  0.3545  0.1057
 7430TIP3   OH243780   1.283   3.087  13.714  0.1967  0.7780  0.0787
 7430TIP3    H143781   1.330   3.040  13.644 -1.5328  0.6016 -1.0040
 7430TIP3    H243782   1.195   3.099  13.680 -0.6027  0.9971  2.1195
 7431TIP3   OH243783   4.643   0.211   1.285  0.4478 -0.0800 -0.0474
 7431TIP3    H143784   4.674   0.249   1.203  1.4779 -0.5483  0.1051
 7431TIP3    H243785   4.548   0.208   1.276  0.3759  1.9978 -0.2759
 7432TIP3   OH243786   4.624   4.558   0.628  0.0600  0.2524 -0.4485
 7432TIP3    H143787   4.568   4.520   0.560 -2.6363 -1.2538  2.3477
 7432TIP3    H243788   4.597   4.650   0.633  0.7531  0.5522 -1.7691
 7433TIP3   OH243789   3.779   3.210  11.348 -0.1113 -0.4653 -0.3512
 7433TIP3    H143790   3.865   3.173  11.329  1.1383  1.5464  0.9924
 7433TIP3    H243791   3.785   3.302  11.320 -1.3593  0.0573  0.9310
 7434TIP3   OH243792   2.869   5.516   4.833  0.1517 -0.6215 -0.2481
 7434TIP3    H143793   2.848   5.608   4.816  1.4420 -0.3176 -0.2946
 7434TIP3    H243794   2.883   5.478   4.747 -0.5751 -0.9116 -0.2385
 7435TIP3   OH243795   2.481   5.523  11.476 -0.2835 -0.2971 -0.8057
 7435TIP3    H143796   2.545   5.594  11.483  0.8391 -1.4800  2.2146
 7435TIP3    H243797   2.522   5.459  11.417  1.1614 -0.8075  0.6856
 7436TIP3   OH243798   1.303   6.762  16.782 -0.1360 -0.1738 -0.2850
 7436TIP3    H143799   1.336   6.848  16.809  2.3558 -1.4971  1.2871
 7436TIP3    H243800   1.210   6.776  16.765 -0.6767  2.0973  3.4621
 7437TIP3   OH243801   2.049   6.602   5.516  0.0863 -0.2166 -0.1167
 7437TIP3    H143802   2.079   6.534   5.456 -0.3627 -0.6268  0.1195
 7437TIP3    H243803   1.982   6.559   5.569 -0.3414  0.4651 -0.0957
 7438TIP3   OH243804   3.265   3.724   5.114  0.3408  0.1345  0.5333
 7438TIP3    H143805   3.222   3.713   5.029  2.8449 -0.8436 -0.7050
 7438TIP3    H243806   3.234   3.809   5.145 -1.1191  0.2456 -1.0548
 7439TIP3   OH243807   0.991   5.071   5.137 -0.3161  0.3163 -0.0013
 7439TIP3    H143808   0.988   4.995   5.196 -2.7535 -0.9032 -1.5288
 7439TIP3    H243809   0.944   5.140   5.185 -0.1780  0.1085  0.4388
 7440TIP3   OH243810   6.681   4.723  16.496 -0.2994 -0.3428 -0.3203
 7440TIP3    H143811   6.629   4.803  16.490 -1.1043 -0.8943 -0.9283
 7440TIP3    H243812   6.760   4.742  16.446 -0.3682  0.1524 -0.2478
 7441TIP3   OH243813   1.604   6.694   1.233  0.0619 -0.0994  0.0390
 7441TIP3    H143814   1.629   6.634   1.303 -0.2411 -0.4929 -0.1852
 7441TIP3    H243815   1.687   6.722   1.194  0.1838 -1.2883 -0.6187
 7442TIP3   OH243816   2.212   6.651   1.743 -0.1433 -0.2914 -0.1392
 7442TIP3    H143817   2.174   6.690   1.664  1.9406  2.9969  0.2978
 7442TIP3    H243818   2.182   6.706   1.814  3.2787  1.0045  0.4830
 7443TIP3   OH243819   2.429   0.931  16.782 -0.0560  0.5066 -0.5947
 7443TIP3    H143820   2.387   0.845  16.776 -1.8656  1.3503 -0.4524
 7443TIP3    H243821   2.510   0.921  16.731 -0.4374 -1.1484 -0.9338
 7444TIP3   OH243822   4.083   2.923  13.151 -0.4998 -0.4206  0.0978
 7444TIP3    H143823   4.105   2.989  13.084 -2.0680  0.0944  0.0489
 7444TIP3    H243824   4.164   2.873  13.163  0.8790  1.7223  0.3868
 7445TIP3   OH243825   0.384   2.661  13.904  0.8149  0.1755 -0.2126
 7445TIP3    H143826   0.357   2.627  13.989  0.3005 -0.5240 -0.6385
 7445TIP3    H243827   0.310   2.717  13.877  1.2777  0.9526  0.0982
 7446TIP3   OH243828   1.516   2.407  16.645  0.0008 -0.0771 -0.2065
 7446TIP3    H143829   1.495   2.317  16.670 -0.3033 -0.0345 -0.3121
 7446TIP3    H243830   1.509   2.457  16.726 -1.2513  0.1112 -0.4108
 7447TIP3   OH243831   3.098   0.097   5.436  0.1673  0.1081 -0.3293
 7447TIP3    H143832   3.127   0.047   5.513 -1.2851 -2.6211 -1.4056
 7447TIP3    H243833   3.178   0.109   5.385  0.5905 -1.1945 -0.0354
 7448TIP3   OH243834   2.480   1.334  16.392  0.2016  0.0200  0.1554
 7448TIP3    H143835   2.390   1.369  16.397  0.1174 -0.1971  0.1572
 7448TIP3    H243836   2.523   1.389  16.327  0.2522  0.5457  0.6267
 7449TIP3   OH243837   6.364   2.198  12.365 -0.3331  0.5528 -0.2385
 7449TIP3    H143838   6.332   2.268  12.309  0.3510 -0.0061 -1.3711
 7449TIP3    H243839   6.325   2.118  12.329 -0.7491  0.2995  0.7583
 7450TIP3   OH243840   0.122   1.891   1.512  0.7521  0.2669  0.4623
 7450TIP3    H143841   0.029   1.873   1.528  0.2508 -0.6766 -2.6506
 7450TIP3    H243842   0.122   1.973   1.462  1.2911 -0.9018 -1.5803
 7451TIP3   OH243843   1.087   2.628  13.891 -0.0329 -0.5898  0.4446
 7451TIP3    H143844   1.022   2.698  13.898  1.4928  0.9056  0.4895
 7451TIP3    H243845   1.045   2.561  13.838 -1.0776  1.0025 -0.8689
 7452TIP3   OH243846   3.821   0.439   2.370  0.0817  0.6702 -0.1112
 7452TIP3    H143847   3.832   0.525   2.412 -0.1981  0.8609 -0.4284
 7452TIP3    H243848   3.729   0.437   2.344  0.1378  0.3506 -0.2809
 7453TIP3   OH243849   0.676   6.583  14.139 -0.4403 -0.2349  0.5223
 7453TIP3    H143850   0.600   6.569  14.196 -0.1750  0.6449  1.1226
 7453TIP3    H243851   0.749   6.545  14.188 -0.2480  0.3317  0.6891
 7454TIP3   OH243852   6.670   0.409   4.200  0.8101  0.1983  0.1660
 7454TIP3    H143853   6.659   0.488   4.252  1.5388  1.2574 -1.2236
 7454TIP3    H243854   6.765   0.396   4.196  0.6946 -0.9679  0.6530
 7455TIP3   OH243855   2.269   1.003   2.779 -0.1686  0.1266  0.0572
 7455TIP3    H143856   2.194   0.945   2.790 -0.6510  0.6894 -0.1662
 7455TIP3    H243857   2.288   1.035   2.867  0.5425 -0.8944  0.2860
 7456TIP3   OH243858   3.550   2.334  11.041 -0.0879 -0.1592  0.0137
 7456TIP3    H143859   3.529   2.388  10.965 -0.8084  2.6334  1.9887
 7456TIP3    H243860   3.645   2.322  11.037  0.2247  1.9824 -0.1684
 7457TIP3   OH243861   6.764   1.695   0.622 -0.7865 -0.1821  0.4826
 7457TIP3    H143862   6.795   1.607   0.639 -1.1655 -0.2826  0.6627
 7457TIP3    H243863   6.768   1.739   0.707 -2.6272 -0.6678  0.8740
 7458TIP3   OH243864   2.434   1.172   5.799 -0.0153  0.3267  0.4318
 7458TIP3    H143865   2.419   1.241   5.864 -2.3929 -0.3071  0.6197
 7458TIP3    H243866   2.416   1.091   5.845  1.4724 -0.3715 -0.1599
 7459TIP3   OH243867   1.444   6.053   3.645  0.3704 -1.0817  0.1450
 7459TIP3    H143868   1.441   6.117   3.716  0.7376 -0.5400 -0.3118
 7459TIP3    H243869   1.378   6.084   3.582  0.1543 -1.4710  0.1766
 7460TIP3   OH243870   1.580   1.019  15.008 -0.5048 -0.3159  0.4752
 7460TIP3    H143871   1.597   0.945  14.948 -1.5725 -1.1826  1.2152
 7460TIP3    H243872   1.640   1.004  15.081  1.7172  1.4296 -0.8717
 7461TIP3   OH243873   6.469   3.485   3.763 -0.1406 -0.7455  0.8930
 7461TIP3    H143874   6.428   3.474   3.848 -1.2213  0.0154  0.4916
 7461TIP3    H243875   6.468   3.397   3.725  2.0547 -1.4890  2.3578
 7462TIP3   OH243876   5.071   0.837   3.121 -0.4124 -0.6895 -0.6263
 7462TIP3    H143877   5.019   0.911   3.152  0.0989 -0.2702 -0.7502
 7462TIP3    H243878   5.161   0.869   3.122 -0.2029 -1.2586 -0.8431
 7463TIP3   OH243879   0.223   2.451   3.379 -0.2052  0.0089 -0.1275
 7463TIP3    H143880   0.172   2.374   3.406  0.8468 -0.3967  0.7813
 7463TIP3    H243881   0.186   2.523   3.430 -0.5512 -0.0814 -0.2473
 7464TIP3   OH243882   4.193   4.275   5.041 -0.3671  0.0331  0.1494
 7464TIP3    H143883   4.119   4.334   5.027  0.3106  0.9735  0.4398
 7464TIP3    H243884   4.239   4.273   4.956 -1.6242 -1.8865 -0.5628
 7465TIP3   OH243885   3.142   5.583   1.788  0.2419 -0.4267  0.0433
 7465TIP3    H143886   3.100   5.662   1.823  0.4453 -0.9369  1.5022
 7465TIP3    H243887   3.199   5.553   1.858  1.7188 -0.7577 -1.2386
 7466TIP3   OH243888   3.074   0.110  13.002 -0.3207  0.2227 -0.0154
 7466TIP3    H143889   3.052   0.129  13.093  2.6977  0.3802  0.7948
 7466TIP3    H243890   3.059   0.192  12.956 -0.4523  0.5740  0.6349
 7467TIP3   OH243891   0.801   0.149   1.500  0.1968 -0.0964  0.2862
 7467TIP3    H143892   0.800   0.190   1.414 -0.4305  0.2365  0.4400
 7467TIP3    H243893   0.709   0.134   1.520  0.3968 -1.1286  0.4576
 7468TIP3   OH243894   1.386   4.002  11.134  0.0497  0.0334 -0.5337
 7468TIP3    H143895   1.373   3.977  11.043  1.5741  0.4112 -0.8866
 7468TIP3    H243896   1.439   4.082  11.130 -1.1726  0.9530  0.6576
 7469TIP3   OH243897   0.748   1.873   4.340  0.1128 -0.0099  0.3106
 7469TIP3    H143898   0.753   1.803   4.274 -0.6655  0.0964  0.1315
 7469TIP3    H243899   0.775   1.831   4.422 -2.4591 -1.1476  0.6686
 7470TIP3   OH243900   3.143   0.425  12.873  0.4065 -0.3980  0.2813
 7470TIP3    H143901   3.067   0.441  12.928  0.6913  3.1758 -0.1705
 7470TIP3    H243902   3.217   0.461  12.922  1.3969 -1.3462 -0.4679
 7471TIP3   OH243903   2.271   6.424   3.824  0.5459  0.3042 -0.0823
 7471TIP3    H143904   2.227   6.481   3.888  0.8658  0.1678  0.2589
 7471TIP3    H243905   2.306   6.484   3.758 -1.7450  0.3386 -1.3983
 7472TIP3   OH243906   5.460   4.814   2.072 -0.5844 -0.1510 -0.7652
 7472TIP3    H143907   5.479   4.782   1.984  1.9274 -2.0984  0.3923
 7472TIP3    H243908   5.511   4.895   2.080 -1.8709  0.7744 -1.4823
 7473TIP3   OH243909   5.751   2.965  12.841  0.7895  0.4419  0.1516
 7473TIP3    H143910   5.695   2.905  12.890  1.4293 -1.1268 -0.9326
 7473TIP3    H243911   5.709   3.051  12.850 -3.0311 -0.9169 -2.3164
 7474TIP3   OH243912   1.412   2.619   2.232 -0.5864  0.0896 -0.1178
 7474TIP3    H143913   1.461   2.667   2.299 -1.4333  1.1443 -0.2305
 7474TIP3    H243914   1.322   2.621   2.263 -0.6099 -1.7818  0.0581
 7475TIP3   OH243915   5.924   5.680   5.767 -0.4241  0.0927  0.2068
 7475TIP3    H143916   5.955   5.601   5.813  0.0478 -0.1643 -0.5356
 7475TIP3    H243917   5.875   5.646   5.693  0.9580  0.4653 -0.9243
 7476TIP3   OH243918   0.736   6.159  12.707 -0.0838  0.1650 -0.1995
 7476TIP3    H143919   0.756   6.072  12.672 -0.5531  0.0212 -0.1070
 7476TIP3    H243920   0.806   6.215  12.671 -0.4556 -0.0143 -1.2388
 7477TIP3   OH243921   2.763   6.080   0.820  0.2448 -0.2484 -0.0195
 7477TIP3    H143922   2.757   6.014   0.751 -1.5841 -1.0639  0.8647
 7477TIP3    H243923   2.713   6.154   0.786 -0.8185 -0.7208  0.4661
 7478TIP3   OH243924   3.550   1.287  12.731  0.1648 -0.7179 -0.1315
 7478TIP3    H143925   3.612   1.228  12.774  0.3492 -0.6049 -0.2409
 7478TIP3    H243926   3.533   1.355  12.795 -0.1945 -0.9933  0.0652
 7479TIP3   OH243927   5.133   6.103  13.772 -0.7246  0.3986 -0.2217
 7479TIP3    H143928   5.078   6.174  13.806 -0.5108  0.9460 -1.0025
 7479TIP3    H243929   5.197   6.147  13.716 -1.5027 -0.5267 -1.9129
 7480TIP3   OH243930   1.236   5.296  11.412 -0.0245 -0.3527 -0.4511
 7480TIP3    H143931   1.225   5.280  11.318  2.2154 -1.9076 -0.5284
 7480TIP3    H243932   1.324   5.334  11.419  0.0275 -0.7031  1.0487
 7481TIP3   OH243933   5.892   2.797   2.560 -0.7695 -0.4495 -0.0859
 7481TIP3    H143934   5.850   2.757   2.637 -1.5998  1.3278  0.4320
 7481TIP3    H243935   5.985   2.803   2.584 -0.9376 -0.4017  0.5695
 7482TIP3   OH243936   2.796   3.056   4.690  0.9575 -0.0471  0.0189
 7482TIP3    H143937   2.794   3.021   4.601 -3.0338 -0.4684  0.0756
 7482TIP3    H243938   2.757   2.986   4.743 -0.9813  1.8801  1.2702
 7483TIP3   OH243939   5.277   6.258   4.149  0.0852 -0.6020  0.2603
 7483TIP3    H143940   5.367   6.223   4.148  0.5995  0.6357  1.0316
 7483TIP3    H243941   5.265   6.291   4.238 -1.2945 -1.0831  0.2805
 7484TIP3   OH243942   5.860   5.214  15.920 -0.0063  0.1598  0.1119
 7484TIP3    H143943   5.943   5.227  15.875 -0.4839 -2.0477 -1.5782
 7484TIP3    H243944   5.793   5.221  15.851 -0.8691 -1.9059  0.6421
 7485TIP3   OH243945   4.825   1.221  15.090  0.4124 -0.2735 -0.1639
 7485TIP3    H143946   4.886   1.175  15.148  3.7498  1.0575 -2.3229
 7485TIP3    H243947   4.871   1.227  15.006 -3.1120  0.1314 -2.2757
 7486TIP3   OH243948   3.984   3.474   0.015  0.5841 -0.3514 -0.2304
 7486TIP3    H143949   4.043   3.403  -0.010  1.5016 -0.7042  2.5715
 7486TIP3    H243950   3.904   3.430   0.043  0.7690 -0.2305  0.5123
 7487TIP3   OH243951   0.871   0.727   1.876  0.0998 -0.1591  0.0210
 7487TIP3    H143952   0.806   0.713   1.807 -0.0011 -0.9338  0.2602
 7487TIP3    H243953   0.951   0.751   1.829 -0.1510  0.0150 -0.3230
 7488TIP3   OH243954   3.918   6.529  15.623  0.1892 -0.4896  0.4855
 7488TIP3    H143955   3.995   6.496  15.575 -2.4250 -3.2923 -2.2678
 7488TIP3    H243956   3.899   6.613  15.582 -0.3849 -1.5864 -1.6431
 7489TIP3   OH243957   1.207   3.669  15.012  0.2813  0.0833 -0.2785
 7489TIP3    H143958   1.162   3.630  14.938 -0.8287 -0.7485  0.7833
 7489TIP3    H243959   1.292   3.697  14.978 -0.6238  0.7196 -2.0900
 7490TIP3   OH243960   5.956   1.545   5.969 -0.0541 -0.9278  0.2281
 7490TIP3    H143961   5.975   1.560   6.061 -0.2435 -4.3563  0.9747
 7490TIP3    H243962   5.861   1.548   5.963 -0.1134 -1.9560  0.4602
 7491TIP3   OH243963   0.410   1.450  13.167 -1.0847  0.2732  0.0623
 7491TIP3    H143964   0.492   1.486  13.133 -1.1829  0.6869  0.2616
 7491TIP3    H243965   0.371   1.406  13.091 -1.0377  0.7204 -0.2281
 7492TIP3   OH243966   6.477   1.187  11.855  0.1910 -0.0391 -0.3159
 7492TIP3    H143967   6.393   1.231  11.871  0.6530  2.2730 -3.3483
 7492TIP3    H243968   6.539   1.236  11.910  0.2577  1.4844 -1.6673
 7493TIP3   OH243969   1.248   3.311   3.193 -0.1487 -0.0738  0.0184
 7493TIP3    H143970   1.221   3.347   3.277  0.0122 -3.1202  1.4996
 7493TIP3    H243971   1.167   3.278   3.153  0.3049 -3.6257  1.6512
 7494TIP3   OH243972   4.620   4.580   5.494 -0.4832 -0.5849 -0.1209
 7494TIP3    H143973   4.659   4.552   5.576 -4.0440  0.9354  2.3411
 7494TIP3    H243974   4.570   4.503   5.464  0.8910 -1.1702 -1.0150
 7495TIP3   OH243975   1.740   0.404  16.950  0.0037  0.5107 -0.2315
 7495TIP3    H143976   1.670   0.381  17.012 -1.6718  1.9323 -1.4953
 7495TIP3    H243977   1.821   0.375  16.993 -1.2171  0.1239  1.9357
 7496TIP3   OH243978   3.907   0.885  15.381  0.7361 -0.5454 -0.3754
 7496TIP3    H143979   3.851   0.893  15.304  0.7649 -1.3275 -0.4814
 7496TIP3    H243980   3.885   0.801  15.419  0.1059  0.2148  0.9859
 7497TIP3   OH243981   5.999   0.421  16.646  0.1151  0.0764  0.5092
 7497TIP3    H143982   5.908   0.443  16.625  0.0117 -0.4889  0.3247
 7497TIP3    H243983   6.047   0.436  16.565 -0.0191 -0.6841  0.2765
 7498TIP3   OH243984   1.303   3.784  12.525 -0.4916  0.1558  0.1034
 7498TIP3    H143985   1.218   3.769  12.567  0.2930 -0.7671  1.4524
 7498TIP3    H243986   1.307   3.879  12.512 -1.8593  0.1840 -0.3253
 7499TIP3   OH243987   5.245   1.293  11.430  0.7307 -0.4425  0.2700
 7499TIP3    H143988   5.246   1.354  11.504  0.2396 -1.2298  0.9401
 7499TIP3    H243989   5.336   1.293  11.399  0.5048  1.5790 -0.5654
 7500TIP3   OH243990   1.824   5.430  11.033 -0.1132 -0.2837  0.1994
 7500TIP3    H143991   1.898   5.371  11.038  0.5264  0.5750  1.8258
 7500TIP3    H243992   1.847   5.492  10.963  0.6510 -0.1305  0.5695
 7501TIP3   OH243993   3.205   5.016  12.529 -0.2809  0.4238 -0.8980
 7501TIP3    H143994   3.254   5.039  12.450  1.5852  0.2601  0.1411
 7501TIP3    H243995   3.259   4.949  12.571 -0.5160  1.4835  1.1995
 7502TIP3   OH243996   1.643   0.260  16.649 -0.2691 -0.0405 -0.0292
 7502TIP3    H143997   1.601   0.190  16.698 -0.5760  0.3026  0.1936
 7502TIP3    H243998   1.585   0.276  16.574 -1.8617  2.1171  1.5530
 7503TIP3   OH243999   4.855   0.227  14.003  0.2159 -0.2938 -0.3834
 7503TIP3    H144000   4.846   0.191  13.915  2.5340 -0.3151 -0.6702
 7503TIP3    H244001   4.849   0.151  14.061  2.1340 -0.7915 -0.7892
 7504TIP3   OH244002   0.750   4.312  10.288 -0.0264 -0.3844 -0.1377
 7504TIP3    H144003   0.798   4.291  10.208  1.0729 -0.9851  0.6509
 7504TIP3    H244004   0.776   4.402  10.308 -0.3654 -0.2050 -0.4971
 7505TIP3   OH244005   3.888   6.548  15.887 -0.2088 -0.4402 -0.4312
 7505TIP3    H144006   3.906   6.541  15.794 -1.1872 -0.3509 -0.6361
 7505TIP3    H244007   3.918   6.636  15.911 -1.0793 -0.0022 -0.9286
 7506TIP3   OH244008   1.130   6.282   5.998  0.0945 -0.2157  0.7526
 7506TIP3    H144009   1.049   6.331   5.986  1.0877  1.4101  0.3685
 7506TIP3    H244010   1.176   6.327   6.069  0.7978 -0.9119  0.7563
 7507TIP3   OH244011   3.691   5.848  14.404 -0.0691  0.0210 -0.0664
 7507TIP3    H144012   3.768   5.817  14.356  0.4629  0.9544  0.1706
 7507TIP3    H244013   3.706   5.819  14.494 -0.4042 -0.5162 -0.1755
 7508TIP3   OH244014   3.469   3.655  14.447  0.1795 -0.4039 -0.5814
 7508TIP3    H144015   3.440   3.617  14.364 -1.2408 -1.7213  0.4660
 7508TIP3    H244016   3.491   3.746  14.426 -2.0903 -0.1184 -2.0265
 7509TIP3   OH244017   5.141   2.470  12.072 -0.5751  0.1282 -0.3196
 7509TIP3    H144018   5.174   2.560  12.061 -0.8578  0.3564  0.6410
 7509TIP3    H244019   5.052   2.482  12.106 -1.0635 -0.5060 -1.3177
 7510TIP3   OH244020   5.616   5.337  12.515  0.0887 -0.0876  0.5539
 7510TIP3    H144021   5.623   5.392  12.593  1.7034  0.6447 -0.0631
 7510TIP3    H244022   5.698   5.287  12.514  0.7421  0.9287 -1.3720
 7511TIP3   OH244023   2.086   4.604   4.876 -0.1271  0.3504 -0.2615
 7511TIP3    H144024   2.133   4.612   4.959  2.4348  0.3455 -1.6260
 7511TIP3    H244025   2.099   4.513   4.849 -0.3914  0.5141 -0.9679
 7512TIP3   OH244026   5.551   5.879  16.107 -0.0189 -0.2777  0.5172
 7512TIP3    H144027   5.604   5.895  16.029 -2.2005 -1.0629 -1.2573
 7512TIP3    H244028   5.540   5.783  16.109  1.7585 -0.5220  3.1037
 7513TIP3   OH244029   0.932   4.620  14.870 -0.0935  0.2423  0.3587
 7513TIP3    H144030   0.859   4.580  14.823  0.0238 -0.3718  0.6834
 7513TIP3    H244031   1.009   4.596  14.819  0.0105 -0.2358  0.7339
 7514TIP3   OH244032   0.575   3.725  11.810  0.2345 -0.2573 -0.0839
 7514TIP3    H144033   0.644   3.760  11.753 -1.2599 -0.0607 -1.8622
 7514TIP3    H244034   0.561   3.794  11.875  0.2012  0.6789 -1.0474
 7515TIP3   OH244035   1.456   0.977   1.758 -0.5905  0.4002  0.0367
 7515TIP3    H144036   1.471   1.058   1.710 -1.6978 -0.0628 -1.1358
 7515TIP3    H244037   1.543   0.952   1.790  0.4603  0.1072 -2.7761
 7516TIP3   OH244038   5.549   1.091   0.838  0.2717  0.4528  0.8297
 7516TIP3    H144039   5.467   1.070   0.794 -1.1165  0.5883  3.2256
 7516TIP3    H244040   5.617   1.069   0.773 -1.6176  1.5292 -1.7021
 7517TIP3   OH244041   2.131   2.340  14.084 -1.1655  0.1414  0.2850
 7517TIP3    H144042   2.066   2.363  14.017  0.0242  1.3089 -0.5139
 7517TIP3    H244043   2.092   2.370  14.166 -2.0761 -0.1010 -0.0502
 7518TIP3   OH244044   6.654   2.007   4.972  0.1789  0.1988  0.5558
 7518TIP3    H144045   6.576   1.998   4.916 -0.3869  1.7813  1.0186
 7518TIP3    H244046   6.626   2.068   5.041  1.7338  0.5159  0.9343
 7519TIP3   OH244047   3.019   4.533  10.447  0.0533 -0.2493 -0.1093
 7519TIP3    H144048   2.938   4.565  10.407 -0.4711 -0.7603  0.5250
 7519TIP3    H244049   3.002   4.441  10.465  0.3599 -0.0971  1.0562
 7520TIP3   OH244050   6.588   1.251  13.079  0.0231 -0.1013 -0.1097
 7520TIP3    H144051   6.629   1.165  13.075  0.9987  0.3949 -1.6317
 7520TIP3    H244052   6.504   1.240  13.035 -1.3205 -0.9549  2.4192
 7521TIP3   OH244053   3.516   3.395  12.372 -0.1196 -0.2563 -0.5409
 7521TIP3    H144054   3.505   3.350  12.456  0.1896 -1.4634 -1.1253
 7521TIP3    H244055   3.526   3.324  12.308 -3.5343  0.4857 -2.1146
 7522TIP3   OH244056   1.229   6.322  11.204  0.3241  0.6243 -0.1914
 7522TIP3    H144057   1.216   6.393  11.267 -1.5445 -0.5751  0.8766
 7522TIP3    H244058   1.150   6.323  11.150  1.1304  0.5297 -1.4125
 7523TIP3   OH244059   2.247   0.181  14.416 -0.2394 -0.2996 -0.5874
 7523TIP3    H144060   2.203   0.098  14.434 -1.1343  0.1173 -0.8115
 7523TIP3    H244061   2.213   0.241  14.483 -0.2909  0.1243 -0.9919
 7524TIP3   OH244062   3.958   6.155  13.674  0.5229 -0.0189  0.5782
 7524TIP3    H144063   4.011   6.075  13.669 -0.3773 -0.6437  0.8285
 7524TIP3    H244064   3.887   6.140  13.612  0.7878  0.9377  0.0231
 7525TIP3   OH244065   4.024   1.734   3.647 -0.3049  0.3024  0.0720
 7525TIP3    H144066   4.064   1.811   3.687 -0.9095  1.6449 -1.7571
 7525TIP3    H244067   3.932   1.758   3.636 -0.6784 -1.0038  0.1576
 7526TIP3   OH244068   1.308   3.721  11.274  0.0879  0.3784 -0.3371
 7526TIP3    H144069   1.368   3.700  11.203  1.3031  0.2534  0.7080
 7526TIP3    H244070   1.302   3.817  11.272  0.0461  0.3716 -0.6520
 7527TIP3   OH244071   2.581   2.995   2.033  0.3731  0.4845  0.6959
 7527TIP3    H144072   2.667   2.955   2.025 -0.8457 -2.1648 -0.6609
 7527TIP3    H244073   2.551   2.970   2.120  1.1303  1.8374  1.3665
 7528TIP3   OH244074   2.980   6.760  17.090 -0.2476  0.0080  0.0693
 7528TIP3    H144075   3.038   6.754  17.165  0.8378 -0.5160 -0.7763
 7528TIP3    H244076   2.984   6.851  17.063 -1.2973  0.3921  1.1200
 7529TIP3   OH244077   3.477   6.605   0.996  0.0049 -0.4030  0.1526
 7529TIP3    H144078   3.419   6.537   0.962  0.0249 -0.9463  1.1551
 7529TIP3    H244079   3.438   6.687   0.967  0.5497 -0.8276 -2.0013
 7530TIP3   OH244080   1.474   2.114  11.937 -0.0193 -0.7123  0.1743
 7530TIP3    H144081   1.448   2.105  12.029  1.0493  1.1722  0.7219
 7530TIP3    H244082   1.409   2.174  11.900  0.9892  0.5934  0.4267
 7531TIP3   OH244083   3.997   4.607  13.861  0.4917  0.6769  0.2565
 7531TIP3    H144084   4.043   4.530  13.825 -0.5691  0.4328 -0.6214
 7531TIP3    H244085   3.964   4.653  13.784 -0.9905  0.6879  0.8747
 7532TIP3   OH244086   1.182   3.040   0.946 -0.0610 -0.4278 -0.7637
 7532TIP3    H144087   1.154   3.083   1.027 -0.5583 -3.1802  0.6238
 7532TIP3    H244088   1.272   3.071   0.933  0.2981 -0.4922  1.2659
 7533TIP3   OH244089   2.908   0.233   3.881  0.0806  1.2821  0.7410
 7533TIP3    H144090   2.951   0.318   3.893  4.1985 -0.5971  0.7690
 7533TIP3    H244091   2.974   0.178   3.838 -2.8285 -1.6134 -0.4542
 7534TIP3   OH244092   5.061   0.005  11.011 -0.0436 -0.4216 -0.2379
 7534TIP3    H144093   5.135   0.019  10.952 -0.8767 -0.2048 -1.2623
 7534TIP3    H244094   5.026  -0.080  10.985  0.4754 -1.0267  0.9671
 7535TIP3   OH244095   1.163   6.432  12.757 -0.1588 -0.0687 -0.2148
 7535TIP3    H144096   1.143   6.368  12.824  1.0315 -1.2035 -0.8896
 7535TIP3    H244097   1.120   6.512  12.786 -0.9501 -0.9354  1.0943
 7536TIP3   OH244098   3.068   5.055   0.910 -0.0880  0.0685  0.4802
 7536TIP3    H144099   3.141   5.065   0.971  0.0407  0.9663  0.1926
 7536TIP3    H244100   3.100   4.993   0.845 -0.3317 -1.1224  1.4629
 7537TIP3   OH244101   4.575   0.338   2.147  0.0813 -0.3259 -0.6086
 7537TIP3    H144102   4.593   0.430   2.164  0.1680 -0.3157 -0.7526
 7537TIP3    H244103   4.505   0.339   2.082 -0.0059 -0.3633 -0.5165
 7538TIP3   OH244104   1.360   4.165   4.879  0.2980 -0.7695 -0.1367
 7538TIP3    H144105   1.450   4.189   4.903  0.6942 -0.4967 -1.7553
 7538TIP3    H244106   1.367   4.077   4.844 -0.2316 -1.0977  0.5607
 7539TIP3   OH244107   3.690   4.805   4.354 -0.5275  0.8477  0.6053
 7539TIP3    H144108   3.687   4.754   4.273  0.9518  2.4218 -0.4960
 7539TIP3    H244109   3.601   4.839   4.364 -0.0228  3.6705 -2.4902
 7540TIP3   OH244110   3.815   3.590   3.305 -0.2743 -0.4441 -0.2578
 7540TIP3    H144111   3.851   3.667   3.349 -2.5573 -0.1120  1.1943
 7540TIP3    H244112   3.813   3.522   3.372  0.2605 -1.3284 -1.1027
 7541TIP3   OH244113   1.209   3.292   6.134  0.0946  0.3429 -0.1113
 7541TIP3    H144114   1.188   3.205   6.102 -1.3750  1.2580 -1.7907
 7541TIP3    H244115   1.128   3.322   6.176  0.3093  1.2208 -0.3092
 7542TIP3   OH244116   2.930   1.575  11.966 -0.0245 -0.1716  0.0744
 7542TIP3    H144117   2.978   1.608  12.043  0.7123 -0.4593 -0.2528
 7542TIP3    H244118   2.840   1.604  11.981  0.0938 -0.2615  1.0721
 7543TIP3   OH244119   4.982   1.591   1.532 -0.2332 -0.6570  0.0338
 7543TIP3    H144120   4.995   1.609   1.439 -0.0641 -0.9797 -0.0090
 7543TIP3    H244121   4.942   1.504   1.534 -0.9385 -0.3286  0.2319
 7544TIP3   OH244122   5.432   2.858  12.677  0.2670  0.2442 -0.1856
 7544TIP3    H144123   5.467   2.913  12.608  1.0558  0.7467  0.5988
 7544TIP3    H244124   5.483   2.777  12.672  1.1137  0.7215  0.5323
 7545TIP3   OH244125   5.237   1.415  16.283  0.0829  0.0249  0.2257
 7545TIP3    H144126   5.207   1.450  16.367 -0.4292 -0.6328  0.3253
 7545TIP3    H244127   5.170   1.351  16.258 -0.5904  1.3355 -1.4767
 7546TIP3   OH244128   2.675   3.202   2.984  0.1776 -0.4875  0.3029
 7546TIP3    H144129   2.760   3.222   3.023 -0.4546 -1.3038  2.1989
 7546TIP3    H244130   2.650   3.283   2.939  2.0589 -0.3248 -0.5433
 7547TIP3   OH244131   3.039   6.040  16.164  0.2042  0.0542 -0.4622
 7547TIP3    H144132   3.029   6.101  16.237 -0.3783 -0.9259  0.3020
 7547TIP3    H244133   3.134   6.026  16.158  0.2709  0.3211 -0.0594
 7548TIP3   OH244134   3.442   0.918  11.513 -0.0724  0.1418  0.3018
 7548TIP3    H144135   3.453   0.987  11.447 -0.2895 -1.5383 -1.6013
 7548TIP3    H244136   3.347   0.912  11.525 -0.0499  0.2060  0.5154
 7549TIP3   OH244137   6.076   6.232   5.493 -0.2929 -0.0034  0.1177
 7549TIP3    H144138   6.039   6.235   5.405  0.6521  0.6682 -0.2729
 7549TIP3    H244139   6.110   6.321   5.508 -0.5481 -0.0708  1.2102
 7550TIP3   OH244140   5.634   4.646   4.170 -0.4001  0.2339  0.1862
 7550TIP3    H144141   5.651   4.621   4.080  0.0336  2.3907 -0.3757
 7550TIP3    H244142   5.682   4.582   4.222 -1.3422 -1.5638 -1.0381
 7551TIP3   OH244143   1.575   4.222  12.385 -0.9956  0.2834  0.5446
 7551TIP3    H144144   1.538   4.226  12.297  0.0832 -0.2912  0.0382
 7551TIP3    H244145   1.591   4.128  12.400 -0.2646  0.4614  0.9390
 7552TIP3   OH244146   4.999   2.097  14.667 -0.4189 -0.4102 -0.0503
 7552TIP3    H144147   4.939   2.023  14.654  0.2614 -0.4657 -4.0084
 7552TIP3    H244148   4.942   2.174  14.662 -0.7168 -0.5517  0.9348
 7553TIP3   OH244149   0.959   5.738  15.717  0.0805  0.5521 -0.0744
 7553TIP3    H144150   1.030   5.674  15.724 -1.2402 -1.2366 -1.7813
 7553TIP3    H244151   0.973   5.780  15.632 -1.5845 -0.8091 -1.0824
 7554TIP3   OH244152   0.218   2.839  11.805 -0.3321  0.2767  0.2277
 7554TIP3    H144153   0.173   2.759  11.832 -0.5021  0.3428  0.1469
 7554TIP3    H244154   0.204   2.900  11.877 -0.6223  0.3909  0.0794
 7555TIP3   OH244155   2.699   4.521   0.398 -0.2841 -0.7195  0.0618
 7555TIP3    H144156   2.732   4.431   0.397  1.5292 -0.1113  0.3901
 7555TIP3    H244157   2.760   4.568   0.455 -1.0642  0.7736 -0.2722
 7556TIP3   OH244158   2.303   1.178  13.200 -0.7003  0.4007  0.4561
 7556TIP3    H144159   2.364   1.248  13.223 -1.8519  1.5470  0.2116
 7556TIP3    H244160   2.279   1.138  13.284  0.3676 -0.0638  0.5481
 7557TIP3   OH244161   1.265   2.717   2.684 -0.2259  0.2549  0.6311
 7557TIP3    H144162   1.297   2.778   2.617 -0.4156  1.3010  1.4654
 7557TIP3    H244163   1.246   2.773   2.760 -1.7628 -0.6478  0.9485
 7558TIP3   OH244164   1.522   6.360  15.831 -0.4191 -0.0544 -0.1682
 7558TIP3    H144165   1.588   6.392  15.770 -1.0099  1.0618 -0.2438
 7558TIP3    H244166   1.438   6.379  15.788 -0.8708  1.2860  1.1930
 7559TIP3   OH244167   3.299   4.617  13.470  0.3685 -0.6148 -0.1765
 7559TIP3    H144168   3.223   4.601  13.414 -0.2816  0.4297  0.3741
 7559TIP3    H244169   3.374   4.617  13.410 -0.0145 -1.9421 -0.6897
 7560TIP3   OH244170   4.751   6.820  14.160 -0.4473  0.6353  0.1938
 7560TIP3    H144171   4.809   6.855  14.228 -0.6101  1.4958 -0.0891
 7560TIP3    H244172   4.753   6.726  14.173  1.9402  0.5111 -0.5021
 7561TIP3   OH244173   0.410   0.624  16.475 -0.1851 -0.4660  0.9874
 7561TIP3    H144174   0.497   0.664  16.487  0.6267 -2.1402  0.9876
 7561TIP3    H244175   0.409   0.595  16.384  0.2183 -2.4926  1.5630
 7562TIP3   OH244176   0.304   6.014   1.522  0.3379  0.5324 -0.0833
 7562TIP3    H144177   0.235   6.059   1.570  1.1777  0.4407  1.2684
 7562TIP3    H244178   0.378   6.074   1.524  0.8384 -0.0661  0.0009
 7563TIP3   OH244179   5.921   5.495   3.757  0.8086  0.2865  0.2797
 7563TIP3    H144180   5.855   5.504   3.825 -0.3772 -3.5008 -0.1230
 7563TIP3    H244181   5.884   5.432   3.695  3.7195 -0.0071 -1.3989
 7564TIP3   OH244182   0.780   4.515   5.706  0.4004  0.3146 -0.2241
 7564TIP3    H144183   0.807   4.506   5.615  0.0786 -2.0833 -0.1426
 7564TIP3    H244184   0.854   4.482   5.757 -0.2542 -0.4455  0.2644
 7565TIP3   OH244185   1.269   1.627   0.031 -0.7077 -0.1680  0.6283
 7565TIP3    H144186   1.324   1.702   0.007 -2.1453  0.7159 -0.0677
 7565TIP3    H244187   1.321   1.551   0.006  0.5066  0.6030  0.6967
 7566TIP3   OH244188   4.102   3.921  11.146  0.1213  0.1726  0.1012
 7566TIP3    H144189   4.058   3.985  11.090 -0.1340 -0.8505 -0.8994
 7566TIP3    H244190   4.190   3.914  11.110  0.0119 -0.3590 -0.0768
 7567TIP3   OH244191   6.797   0.021  13.434 -0.4779  0.2928  0.0477
 7567TIP3    H144192   6.852  -0.024  13.370 -0.8096 -0.2079  0.1098
 7567TIP3    H244193   6.780  -0.045  13.502 -0.2021  0.7916  0.6044
 7568TIP3   OH244194   5.282   2.814  16.054  0.1092  0.8472 -0.2276
 7568TIP3    H144195   5.305   2.903  16.084  2.1397  0.7429 -1.2637
 7568TIP3    H244196   5.205   2.791  16.105  0.3762  2.6613  1.1196
 7569TIP3   OH244197   1.886   5.838   2.480 -0.2350  0.1441  0.0813
 7569TIP3    H144198   1.821   5.783   2.525  0.3097 -0.0301  0.6690
 7569TIP3    H244199   1.883   5.809   2.389  0.6727 -1.4923  0.5393
 7570TIP3   OH244200   4.851   0.095   3.875 -0.8231  0.4732 -0.3641
 7570TIP3    H144201   4.810   0.025   3.926 -0.6789  0.9575  0.4520
 7570TIP3    H244202   4.805   0.095   3.792  0.3892 -1.7692 -1.0937
 7571TIP3   OH244203   3.842   3.206   5.027 -0.0878  0.0152 -0.4130
 7571TIP3    H144204   3.871   3.119   5.054 -0.4433  0.5655  1.8764
 7571TIP3    H244205   3.746   3.203   5.034 -0.1598  0.3766 -1.0977
 7572TIP3   OH244206   5.304   4.188  15.925  0.4214  0.4092 -0.2334
 7572TIP3    H144207   5.383   4.195  15.871 -0.0680  2.5700 -0.7909
 7572TIP3    H244208   5.288   4.094  15.933  1.2341 -0.0348 -2.8142
 7573TIP3   OH244209   0.031   3.604   2.597 -0.6642 -0.5258 -0.0938
 7573TIP3    H144210   0.022   3.670   2.666 -1.1133 -0.0510 -0.5977
 7573TIP3    H244211   0.063   3.526   2.642  0.9559  0.3589  0.3454
 7574TIP3   OH244212   1.924   4.850  11.943  0.2204  0.2068 -0.0817
 7574TIP3    H144213   1.949   4.912  12.011 -1.3864  1.8491 -0.9124
 7574TIP3    H244214   1.923   4.901  11.862  1.4469 -1.5498 -1.2904
 7575TIP3   OH244215   6.494   5.856  16.403 -0.3474  0.6543 -0.0911
 7575TIP3    H144216   6.466   5.797  16.333  2.4381 -0.4283 -0.4226
 7575TIP3    H244217   6.503   5.800  16.480 -0.8000  1.3266  0.4723
 7576TIP3   OH244218   4.863   0.130   5.824 -0.1566  0.5437 -0.4122
 7576TIP3    H144219   4.789   0.093   5.872  0.2876  1.6330  1.2073
 7576TIP3    H244220   4.909   0.054   5.787  0.5186 -0.5626  2.4511
 7577TIP3   OH244221   3.297   5.463  12.142  0.5482  0.4453 -0.0364
 7577TIP3    H144222   3.232   5.414  12.192  0.5935 -0.1927 -0.5949
 7577TIP3    H244223   3.377   5.410  12.147  0.6072  0.4761 -0.6184
 7578TIP3   OH244224   2.951   0.940  13.369  0.5211  0.3632 -0.0912
 7578TIP3    H144225   2.983   1.001  13.435  0.7588  0.6057 -0.4324
 7578TIP3    H244226   3.027   0.921  13.314  0.5244 -0.4611  0.1822
 7579TIP3   OH244227   0.549   0.752  15.611 -0.5058 -0.1482  0.0418
 7579TIP3    H144228   0.529   0.801  15.532 -0.1235  1.3292  0.8196
 7579TIP3    H244229   0.642   0.732  15.604  0.3182  2.7109  1.4718
 7580TIP3   OH244230   0.548   6.231  14.620  0.3850  0.2634 -0.0086
 7580TIP3    H144231   0.595   6.217  14.701  0.0499 -2.0994 -0.1539
 7580TIP3    H244232   0.498   6.151  14.606 -0.2908  0.9536 -2.0779
 7581TIP3   OH244233   6.556   4.313  16.760  0.0152 -0.6971  0.2114
 7581TIP3    H144234   6.517   4.380  16.817  1.2966  0.0238  0.2604
 7581TIP3    H244235   6.481   4.275  16.714 -0.6601  1.3700 -0.4768
 7582TIP3   OH244236   4.225   5.303  14.371 -0.6118 -0.0593 -0.0465
 7582TIP3    H144237   4.199   5.300  14.463 -0.4353 -2.5620 -0.0211
 7582TIP3    H244238   4.317   5.330  14.373 -0.5094 -0.4490  0.5327
 7583TIP3   OH244239   1.044   0.830  16.484  0.0729  0.0205 -0.6775
 7583TIP3    H144240   0.954   0.861  16.474  0.0926 -0.1208 -1.3309
 7583TIP3    H244241   1.098   0.902  16.451  0.2499  0.4772  0.5536
 7584TIP3   OH244242   0.993   3.056  12.618  0.0914 -0.2670  0.6547
 7584TIP3    H144243   0.928   3.124  12.635 -0.6968 -0.7160 -0.4428
 7584TIP3    H244244   1.044   3.051  12.699 -1.7443 -0.4576  1.8630
 7585TIP3   OH244245   5.457   5.117  13.248 -0.0615  0.6294  0.1545
 7585TIP3    H144246   5.468   5.158  13.162 -1.4453 -0.2698 -0.4999
 7585TIP3    H244247   5.415   5.033  13.228  0.3961  0.0314  1.6498
 7586TIP3   OH244248   5.758   2.786   3.232  0.4263 -0.1783 -0.9623
 7586TIP3    H144249   5.806   2.783   3.315  1.6016  2.5434 -1.4389
 7586TIP3    H244250   5.823   2.758   3.167 -0.0952 -1.0247 -1.1293
 7587TIP3   OH244251   2.195   2.993   4.040  0.0588  0.0460 -0.1512
 7587TIP3    H144252   2.274   3.027   3.998 -0.4421  1.3831 -0.0529
 7587TIP3    H244253   2.129   2.992   3.971  0.0451 -0.6830 -0.1350
 7588TIP3   OH244254   3.951   0.017  11.177 -0.1637 -0.2009 -0.6067
 7588TIP3    H144255   3.949   0.112  11.190  0.3153 -0.1002 -1.2120
 7588TIP3    H244256   4.040  -0.000  11.146 -1.2207 -0.3757 -3.9325
 7589TIP3   OH244257   0.120   1.693   2.478  0.3883 -0.3696  0.3596
 7589TIP3    H144258   0.201   1.727   2.441  1.6487 -0.8093  2.5442
 7589TIP3    H244259   0.123   1.599   2.460  0.2937 -0.3631  0.3097
 7590TIP3   OH244260   0.001   3.616   5.752  0.4571 -1.1023 -0.0720
 7590TIP3    H144261   0.075   3.630   5.812 -0.0184 -2.8148  0.9733
 7590TIP3    H244262  -0.005   3.521   5.743 -0.9866 -0.9546 -0.9547
 7591TIP3   OH244263   4.001   3.020   5.682  0.3428 -0.4189  0.4023
 7591TIP3    H144264   3.990   3.107   5.643  2.2312  0.2452  1.2418
 7591TIP3    H244265   4.089   2.994   5.658 -0.0125 -1.8884  0.6121
 7592TIP3   OH244266   4.584   2.660   1.705 -0.3239 -0.0113  0.1471
 7592TIP3    H144267   4.576   2.567   1.725 -1.6409  0.5469  2.6889
 7592TIP3    H244268   4.678   2.675   1.695 -0.0071 -1.3981  0.8047
 7593TIP3   OH244269   1.385   6.517   6.179 -0.3701  0.2980 -0.1576
 7593TIP3    H144270   1.442   6.594   6.175  1.3348 -0.8817  0.3455
 7593TIP3    H244271   1.399   6.473   6.096 -0.2704 -0.1834  0.1103
 7594TIP3   OH244272   2.552   4.565  11.841  0.2498  0.2483 -0.2345
 7594TIP3    H144273   2.580   4.609  11.921  0.2716  0.0666 -0.1395
 7594TIP3    H244274   2.625   4.506  11.820 -0.8479 -1.7514  1.1437
 7595TIP3   OH244275   4.655   1.583   3.880  0.5058 -0.3776  0.3726
 7595TIP3    H144276   4.615   1.528   3.948 -0.0739 -2.7909 -1.7755
 7595TIP3    H244277   4.592   1.654   3.868 -1.2516 -1.9059 -0.1062
 7596TIP3   OH244278   4.666   3.020   5.365 -0.4704 -0.3233  0.1620
 7596TIP3    H144279   4.745   3.037   5.314  1.0151 -1.3075  2.0480
 7596TIP3    H244280   4.639   3.106   5.396 -0.3484  0.0586 -0.7580
 7597TIP3   OH244281   3.401   2.083   2.667 -1.0606  0.3543 -0.2067
 7597TIP3    H144282   3.422   1.991   2.682 -0.6868  0.4399 -0.1949
 7597TIP3    H244283   3.485   2.124   2.646 -0.7104  1.2162  2.4315
 7598TIP3   OH244284   6.641   0.320  14.642 -0.0716  0.3003 -0.5742
 7598TIP3    H144285   6.627   0.306  14.736  0.3430 -0.2413 -0.5909
 7598TIP3    H244286   6.728   0.359  14.636  0.8797 -1.7300 -0.8712
 7599TIP3   OH244287   3.572   6.821  17.191  0.0124  0.2357 -0.7972
 7599TIP3    H144288   3.494   6.842  17.242 -0.2963  0.0694 -1.1945
 7599TIP3    H244289   3.643   6.825  17.254 -0.5406 -1.4346 -0.0107
 7600TIP3   OH244290   1.850   3.848   1.254 -0.2781 -0.3470  0.2194
 7600TIP3    H144291   1.850   3.756   1.283 -0.7404  0.1894  2.0320
 7600TIP3    H244292   1.758   3.866   1.233  0.0801 -0.8102 -2.0504
 7601TIP3   OH244293   3.639   1.940   4.703 -0.0505 -0.5934 -0.2928
 7601TIP3    H144294   3.699   2.015   4.695  1.1063 -1.3902  0.5394
 7601TIP3    H244295   3.692   1.864   4.678 -0.6165 -1.3569  0.7427
 7602TIP3   OH244296   3.865   5.199   1.048 -0.6649 -0.6337  0.4250
 7602TIP3    H144297   3.872   5.195   0.952 -0.6911 -0.5246  0.4183
 7602TIP3    H244298   3.771   5.204   1.064 -0.6516 -0.4670  0.4493
 7603TIP3   OH244299   1.655   6.052   6.089  0.2438 -0.1959 -0.4534
 7603TIP3    H144300   1.590   6.067   6.020  0.2797 -0.6579 -0.5889
 7603TIP3    H244301   1.613   6.086   6.169  0.0818  0.0655 -0.6488
 7604TIP3   OH244302   2.165   5.572  15.488 -0.5298 -0.1787  0.6602
 7604TIP3    H144303   2.138   5.625  15.413 -0.6945  0.4929  1.1944
 7604TIP3    H244304   2.099   5.589  15.555 -1.0349 -1.6691  0.5719
 7605TIP3   OH244305   1.640   3.846  13.779  0.1149 -0.3683 -0.3472
 7605TIP3    H144306   1.633   3.835  13.874  0.3397 -1.0714 -0.4023
 7605TIP3    H244307   1.646   3.756  13.745 -3.5942 -0.3998 -1.3603
 7606TIP3   OH244308   3.942   5.210   1.990  0.2419 -0.3026 -0.4917
 7606TIP3    H144309   4.026   5.254   1.977  1.1913 -1.3540  1.5937
 7606TIP3    H244310   3.877   5.276   1.968  1.6034  1.2143 -0.1600
 7607TIP3   OH244311   6.688   3.363  11.524 -0.0415 -0.2343  0.6523
 7607TIP3    H144312   6.778   3.333  11.509 -0.0324  0.8851 -1.8940
 7607TIP3    H244313   6.633   3.298  11.480 -0.2440  1.0414 -1.0501
 7608TIP3   OH244314   2.213   1.782   5.484 -0.1405  0.5824 -0.1640
 7608TIP3    H144315   2.296   1.790   5.438  0.0099 -1.8996 -0.4984
 7608TIP3    H244316   2.158   1.729   5.426 -0.9875 -0.0929  1.1976
 7609TIP3   OH244317   6.231   1.952   5.746 -0.4758 -0.3430  0.1062
 7609TIP3    H144318   6.318   1.915   5.758 -0.2955  0.4342  1.3602
 7609TIP3    H244319   6.178   1.879   5.713  0.9323 -0.4718 -1.9949
 7610TIP3   OH244320   0.558   3.519  17.098  0.0827  0.4176 -0.1651
 7610TIP3    H144321   0.491   3.588  17.094 -3.9848 -3.0446  0.7856
 7610TIP3    H244322   0.589   3.522  17.189 -0.0026  1.0295 -0.1511
 7611TIP3   OH244323   0.716   4.417   0.181  0.2577  0.0258 -0.1560
 7611TIP3    H144324   0.749   4.380   0.262 -0.6222 -1.3551 -0.4051
 7611TIP3    H244325   0.791   4.463   0.143  1.1838 -0.9162  0.5044
 7612TIP3   OH244326   5.240   1.095  14.372 -0.7057  0.5621  0.4987
 7612TIP3    H144327   5.163   1.112  14.318 -1.0611  0.8517  1.0871
 7612TIP3    H244328   5.205   1.058  14.453 -0.0462 -2.3619 -0.4041
 7613TIP3   OH244329   1.300   5.728   2.143 -0.3256  0.2160  0.2394
 7613TIP3    H144330   1.230   5.675   2.105  0.0212 -1.2836  1.5880
 7613TIP3    H244331   1.379   5.697   2.100 -0.2165  0.2184  0.4365
 7614TIP3   OH244332   3.225   3.555  15.396 -0.1189  0.4700  0.0720
 7614TIP3    H144333   3.242   3.647  15.414  0.5963  0.2609  0.4972
 7614TIP3    H244334   3.239   3.510  15.479 -2.2659  0.1854  0.3387
 7615TIP3   OH244335   0.252   3.873  11.520  0.4008  0.0194  0.3237
 7615TIP3    H144336   0.191   3.892  11.449  1.1829 -0.2516 -0.4445
 7615TIP3    H244337   0.198   3.867  11.599 -0.2794  1.9628  0.0362
 7616TIP3   OH244338   4.460   4.030   5.566  0.1741  0.3279  0.7708
 7616TIP3    H144339   4.402   4.085   5.619 -1.0886  1.5823 -1.7337
 7616TIP3    H244340   4.546   4.042   5.605 -0.8145  0.3397  3.1245
 7617TIP3   OH244341   2.213   3.428   2.120  0.3739  0.1819  0.0319
 7617TIP3    H144342   2.138   3.375   2.146 -0.0425  1.1257  0.8326
 7617TIP3    H244343   2.177   3.495   2.062  0.8140 -0.1135 -0.5957
 7618TIP3   OH244344   3.337   2.261  15.116 -0.0445  0.0457 -0.1277
 7618TIP3    H144345   3.363   2.273  15.025  1.8460 -1.4618  0.1489
 7618TIP3    H244346   3.390   2.324  15.165  0.8343 -0.8876  0.1461
 7619TIP3   OH244347   2.565   2.551   1.542 -0.5222  0.4886  0.3725
 7619TIP3    H144348   2.605   2.591   1.464  1.6070 -0.6442  0.8200
 7619TIP3    H244349   2.485   2.510   1.509 -0.0964  0.7545 -1.0715
 7620TIP3   OH244350   4.884   2.873   1.880  0.0808 -0.3150  0.3559
 7620TIP3    H144351   4.975   2.843   1.880 -0.9057 -3.6423 -0.5731
 7620TIP3    H244352   4.835   2.803   1.922 -2.2726  0.6111 -0.6692
 7621TIP3   OH244353   3.501   5.703   4.521 -0.4601 -0.4053  0.3160
 7621TIP3    H144354   3.457   5.727   4.602 -1.3959  0.9417 -0.5607
 7621TIP3    H244355   3.445   5.736   4.452  1.0403 -0.2344 -0.8726
 7622TIP3   OH244356   1.775   4.157   5.281 -0.1582  0.6098  0.7038
 7622TIP3    H144357   1.805   4.182   5.368  0.8901 -0.7923  0.7778
 7622TIP3    H244358   1.682   4.137   5.292  0.2090 -0.6006  1.7445
 7623TIP3   OH244359   4.795   1.415  12.119  0.5100  0.1341  0.1883
 7623TIP3    H144360   4.820   1.507  12.110 -2.2230  0.8465 -1.1218
 7623TIP3    H244361   4.705   1.418  12.152 -0.1724 -2.0046 -1.3062
 7624TIP3   OH244362   0.030   0.090   2.424  0.1060  0.3397  0.1291
 7624TIP3    H144363   0.013   0.033   2.349  2.3172  0.9624 -0.9129
 7624TIP3    H244364   0.060   0.172   2.386 -1.8636  1.8738  1.6363
 7625TIP3   OH244365   5.114   6.238  11.812 -0.0246  0.3806  0.3054
 7625TIP3    H144366   5.036   6.234  11.757  0.4340  0.1362 -0.3448
 7625TIP3    H244367   5.180   6.280  11.757  0.8660 -1.1858  0.1346
 7626TIP3   OH244368   4.518   6.323  13.772  0.1000 -0.1866  0.6306
 7626TIP3    H144369   4.582   6.276  13.719  1.2167  1.7040  0.1933
 7626TIP3    H244370   4.538   6.298  13.862  0.9680 -0.2263  0.4378
 7627TIP3   OH244371   3.566   3.775  16.060  0.8537 -0.3230 -0.0728
 7627TIP3    H144372   3.527   3.829  15.991 -2.0945  0.5656  2.0537
 7627TIP3    H244373   3.577   3.689  16.020  0.0459  0.3713 -1.8772
 7628TIP3   OH244374   5.056   2.214   6.562  0.6530  0.2344  0.3124
 7628TIP3    H144375   5.046   2.145   6.495 -2.9652  1.2830 -0.4703
 7628TIP3    H244376   5.121   2.179   6.623  0.5914 -2.8983 -1.2173
 7629TIP3   OH244377   3.653   5.945  15.828 -0.1566  0.3746 -0.5200
 7629TIP3    H144378   3.650   5.974  15.737  0.9741  1.3556 -0.2679
 7629TIP3    H244379   3.738   5.974  15.860  0.8493 -2.6986 -0.0290
 7630TIP3   OH244380   5.065   5.063   0.103  0.2413  0.1938  0.5103
 7630TIP3    H144381   5.002   5.053   0.175  0.4510 -0.9892  0.5407
 7630TIP3    H244382   5.139   5.109   0.143 -0.3116  0.9997  0.6380
 7631TIP3   OH244383   3.859   0.915   2.436  0.0891  0.0385  0.5630
 7631TIP3    H144384   3.924   0.861   2.392  0.5760  0.2050  1.0657
 7631TIP3    H244385   3.780   0.905   2.383  0.0475 -1.4692  0.8485
 7632TIP3   OH244386   0.544   2.497   5.156  0.3095  0.1766 -0.6491
 7632TIP3    H144387   0.506   2.417   5.193  2.6102 -1.7331 -2.1441
 7632TIP3    H244388   0.567   2.550   5.232  0.8932 -1.6577  0.5025
 7633TIP3   OH244389   5.848   6.433   3.463  0.7136 -0.1160 -0.7455
 7633TIP3    H144390   5.842   6.528   3.471 -0.8151 -0.3803  2.6600
 7633TIP3    H244391   5.922   6.409   3.519  0.7343 -1.0001 -1.1396
 7634TIP3   OH244392   1.337   1.994  11.094 -0.6230  0.1208 -0.2675
 7634TIP3    H144393   1.331   2.088  11.109 -0.8812 -0.0410  0.7314
 7634TIP3    H244394   1.296   1.955  11.172  1.0981 -0.8490  0.1985
 7635TIP3   OH244395   4.334   6.442  13.483 -0.0249 -0.4063 -0.1017
 7635TIP3    H144396   4.339   6.364  13.539  2.2156 -1.2780 -1.3795
 7635TIP3    H244397   4.320   6.407  13.395  2.0980  0.4994 -0.8619
 7636TIP3   OH244398   6.075   2.502   3.005  0.1043 -0.6388  0.1419
 7636TIP3    H144399   6.055   2.583   2.958  1.0000 -1.5423 -1.8918
 7636TIP3    H244400   6.022   2.435   2.963  0.1983 -1.3193  1.0727
 7637TIP3   OH244401   2.221   2.873  15.037 -0.5658  0.1688  0.2904
 7637TIP3    H144402   2.231   2.957  14.993  1.3903 -0.6073 -0.8270
 7637TIP3    H244403   2.137   2.839  15.004 -1.2973  1.5641  0.6288
 7638TIP3   OH244404   5.382   2.961   5.625  0.1022  0.3361 -0.1971
 7638TIP3    H144405   5.321   2.960   5.551  0.6883 -0.6384 -0.6954
 7638TIP3    H244406   5.326   2.972   5.702 -0.6686 -0.1629 -0.6690
 7639TIP3   OH244407   4.047   0.242   1.462 -0.1033 -0.8437  0.4315
 7639TIP3    H144408   4.086   0.271   1.379  0.3954  0.0489  0.9648
 7639TIP3    H244409   4.051   0.146   1.457  0.9294 -0.7937 -0.1230
 7640TIP3   OH244410   0.105   1.478   2.288  0.1102  0.0555 -0.0224
 7640TIP3    H144411   0.112   1.394   2.334  0.2853  0.4672  0.7087
 7640TIP3    H244412   0.015   1.480   2.256  0.1845 -0.5296 -0.2814
 7641TIP3   OH244413   4.121   0.297  12.473  0.4997  0.0040 -0.0750
 7641TIP3    H144414   4.037   0.297  12.427 -0.5726  0.0877  1.7885
 7641TIP3    H244415   4.126   0.383  12.513  1.1023 -0.2929  0.4993
 7642TIP3   OH244416   1.921   5.664   3.607  0.0602  0.5967  0.3935
 7642TIP3    H144417   1.943   5.601   3.538  2.5343  2.6180 -0.8765
 7642TIP3    H244418   1.975   5.638   3.682  2.2425  1.8972 -0.6183
 7643TIP3   OH244419   1.890   1.569  11.315  0.0052  0.6337 -0.6067
 7643TIP3    H144420   1.883   1.561  11.411 -1.5537 -1.6610 -0.8229
 7643TIP3    H244421   1.961   1.631  11.301  0.8903  0.3388  2.0318
 7644TIP3   OH244422   1.372   4.205  14.035  0.2735  0.0787 -0.2082
 7644TIP3    H144423   1.430   4.270  14.074  0.6772  0.2608 -1.0832
 7644TIP3    H244424   1.390   4.211  13.941  1.5616 -2.4491 -0.2173
 7645TIP3   OH244425   0.375   3.451  11.542  0.0820  0.0666 -0.2279
 7645TIP3    H144426   0.282   3.444  11.566  0.2235  1.5996  0.9331
 7645TIP3    H244427   0.384   3.540  11.507  1.3806  0.5025  1.1026
 7646TIP3   OH244428   2.721   5.971   2.270 -0.2177  0.0828 -0.1871
 7646TIP3    H144429   2.625   5.976   2.261 -0.3590 -1.2185  0.4910
 7646TIP3    H244430   2.752   6.050   2.226 -1.6960  1.4898  1.1374
 7647TIP3   OH244431   4.312   4.180  17.036 -0.2010  0.1484  0.4184
 7647TIP3    H144432   4.222   4.210  17.025 -0.2994 -0.4499 -0.4687
 7647TIP3    H244433   4.304   4.090  17.068  0.0459 -0.5023 -1.2508
 7648TIP3   OH244434   5.128   4.048   0.840 -0.1819 -0.1763 -0.0764
 7648TIP3    H144435   5.129   4.136   0.876  0.6740  1.0913 -2.9466
 7648TIP3    H244436   5.219   4.028   0.822 -0.5055 -1.0725 -0.8136
 7649TIP3   OH244437   1.592   3.938   0.782  0.3573 -0.1485 -0.4670
 7649TIP3    H144438   1.503   3.911   0.802  0.7312 -0.2322  1.3081
 7649TIP3    H244439   1.593   3.954   0.688 -1.4226 -0.5001 -0.5669
 7650TIP3   OH244440   3.883   4.082   6.365  0.0627 -0.0932 -0.2971
 7650TIP3    H144441   3.889   4.068   6.460 -0.7590  0.1380 -0.2049
 7650TIP3    H244442   3.931   4.164   6.350 -1.7674  1.1300  0.2617
 7651TIP3   OH244443   0.326   2.721  15.247 -0.4312  0.5309  0.3697
 7651TIP3    H144444   0.269   2.654  15.285 -0.9602  0.7572 -0.0080
 7651TIP3    H244445   0.277   2.752  15.170 -0.2560  1.4469  0.6233
 7652TIP3   OH244446   5.681   2.261  12.964 -0.2712 -0.2349 -0.4538
 7652TIP3    H144447   5.756   2.214  12.926 -0.5932 -1.4798  0.3614
 7652TIP3    H244448   5.637   2.301  12.889  1.1573  0.4640 -0.9521
 7653TIP3   OH244449   2.214   2.781   4.960  0.4451  0.2603  0.7623
 7653TIP3    H144450   2.201   2.868   4.922 -0.9752  0.5535  1.8301
 7653TIP3    H244451   2.302   2.784   4.997  1.0562  0.6504 -0.6432
 7654TIP3   OH244452   4.035   2.473   3.518 -1.0756 -0.0590 -0.6164
 7654TIP3    H144453   3.946   2.441   3.505 -2.0433  1.1146  2.2949
 7654TIP3    H244454   4.051   2.465   3.612  1.1686  1.5368 -0.7564
 7655TIP3   OH244455   4.359   4.671   5.212  0.2457 -0.3764 -0.0713
 7655TIP3    H144456   4.427   4.621   5.166 -0.2635 -1.3241  0.1693
 7655TIP3    H244457   4.285   4.671   5.151 -0.7403 -2.3876  1.0251
 7656TIP3   OH244458   6.179   6.010   3.144 -0.1106 -0.3124 -0.1465
 7656TIP3    H144459   6.229   6.055   3.076  0.7901 -0.4697  0.3932
 7656TIP3    H244460   6.212   5.920   3.143  1.8449  0.2776  2.2237
 7657TIP3   OH244461   1.521   6.731  12.154  0.4175  0.7957 -0.3050
 7657TIP3    H144462   1.492   6.663  12.092 -0.5211  0.3258  0.6073
 7657TIP3    H244463   1.606   6.699  12.186 -0.2814 -0.2833  0.5546
 7658TIP3   OH244464   1.983   5.301  11.288  0.2825 -0.1808  0.5757
 7658TIP3    H144465   2.068   5.337  11.314  0.9287 -0.8283 -0.5940
 7658TIP3    H244466   1.992   5.207  11.298 -0.1366 -0.2898  0.0039
 7659TIP3   OH244467   0.702   2.396   3.341  1.0274  0.4529  0.4970
 7659TIP3    H144468   0.644   2.424   3.270  0.6458  0.3573  0.7667
 7659TIP3    H244469   0.643   2.376   3.414  1.2637 -1.3380  0.2286
 7660TIP3   OH244470   4.619   6.513   1.680  0.0230  0.5698 -0.2961
 7660TIP3    H144471   4.652   6.427   1.706  1.0498  1.1831  0.4815
 7660TIP3    H244472   4.582   6.550   1.760  2.0406  1.9434  0.0789
 7661TIP3   OH244473   3.646   1.878  13.489  0.4279 -0.6035 -0.5728
 7661TIP3    H144474   3.674   1.963  13.522 -0.8956 -0.1101 -0.6366
 7661TIP3    H244475   3.629   1.893  13.396 -1.1436 -0.5501 -0.3057
 7662TIP3   OH244476   5.253   0.220   0.690  0.3201 -0.4516 -0.0215
 7662TIP3    H144477   5.344   0.239   0.669  0.4612 -0.7723  0.2940
 7662TIP3    H244478   5.209   0.305   0.686  0.6183 -0.3054 -0.2401
 7663TIP3   OH244479   6.090   4.405  11.253  0.0235  0.0883 -0.0596
 7663TIP3    H144480   6.142   4.335  11.214  0.5371  0.3365  0.1665
 7663TIP3    H244481   6.123   4.412  11.343 -0.7452 -0.0902  0.2408
 7664TIP3   OH244482   1.374   2.600   1.508  0.0307 -0.3369  0.4630
 7664TIP3    H144483   1.441   2.589   1.575 -0.0512 -0.3972  0.5354
 7664TIP3    H244484   1.398   2.681   1.463 -0.0948 -0.1273  0.7728
 7665TIP3   OH244485   2.245   3.394   2.848  0.0843 -0.0025 -0.1995
 7665TIP3    H144486   2.241   3.482   2.885 -0.4773  0.2876 -0.9342
 7665TIP3    H244487   2.161   3.354   2.874 -0.1663  0.0856 -0.8564
 7666TIP3   OH244488   6.611   1.955  12.510  0.0679 -0.2528  0.0365
 7666TIP3    H144489   6.536   1.952  12.450  0.1663  0.5255 -0.1338
 7666TIP3    H244490   6.674   1.893  12.473  0.0861  0.1465 -0.6221
 7667TIP3   OH244491   6.460   1.023   3.157 -0.1687  0.0808 -0.1448
 7667TIP3    H144492   6.502   0.955   3.211  1.9705 -0.4230 -2.2580
 7667TIP3    H244493   6.374   0.986   3.135  0.1973 -1.1113  0.3126
 7668TIP3   OH244494   3.134   2.611   4.252 -0.3846 -0.8014 -0.2323
 7668TIP3    H144495   3.118   2.642   4.341  1.3297  1.9009 -0.7425
 7668TIP3    H244496   3.164   2.689   4.205  0.4393 -2.5177 -2.7425
 7669TIP3   OH244497   0.512   6.379  12.399  0.4878 -0.6038  0.6907
 7669TIP3    H144498   0.526   6.296  12.354  2.5852  0.3109 -0.5061
 7669TIP3    H244499   0.470   6.436  12.334 -1.2708 -0.7709  1.6138
 7670TIP3   OH244500   3.097   3.201   1.714  0.3467  0.2950  0.1174
 7670TIP3    H144501   3.099   3.267   1.644 -2.1268 -1.2031 -1.5238
 7670TIP3    H244502   3.071   3.251   1.792 -0.7179  1.4492 -0.9159
 7671TIP3   OH244503   4.703   0.528   3.308 -0.5932  0.3901 -0.1460
 7671TIP3    H144504   4.655   0.540   3.390  0.0706 -2.2750  0.7500
 7671TIP3    H244505   4.770   0.596   3.310  1.2602 -1.2481  3.0811
 7672TIP3   OH244506   0.562   3.681   1.499 -0.5793  0.0085  0.2443
 7672TIP3    H144507   0.618   3.743   1.451  1.4687 -2.0869 -0.2548
 7672TIP3    H244508   0.609   3.663   1.580 -1.8761  0.1803  1.0677
 7673TIP3   OH244509   5.171   1.006  13.674 -0.1657  0.0054 -0.4007
 7673TIP3    H144510   5.191   1.074  13.739  1.2373  0.1771 -0.9751
 7673TIP3    H244511   5.075   1.002  13.673 -0.2395 -0.4896  2.1612
 7674TIP3   OH244512   3.286   5.709  11.954 -0.4393 -0.2052  0.0189
 7674TIP3    H144513   3.289   5.624  11.909  0.6439 -1.5811  2.4567
 7674TIP3    H244514   3.308   5.688  12.045 -0.9150  2.6187  0.8786
 7675TIP3   OH244515   6.678   6.119  12.911 -0.6952  0.0907 -0.1053
 7675TIP3    H144516   6.591   6.134  12.875 -0.1063 -0.2631 -1.7447
 7675TIP3    H244517   6.727   6.198  12.888  0.0053 -0.6197 -1.1134
 7676TIP3   OH244518   0.966   6.029  11.805  0.2683  0.1794  0.6750
 7676TIP3    H144519   0.896   5.990  11.754 -1.4933  2.2497  1.3436
 7676TIP3    H244520   0.941   6.121  11.815  2.5707  0.7776  1.8325
 7677TIP3   OH244521   6.324   5.021  13.607 -0.3965  0.0253  0.3696
 7677TIP3    H144522   6.358   4.935  13.582  0.6571  0.9771 -1.7284
 7677TIP3    H244523   6.241   5.002  13.651 -0.6129 -2.0308 -0.8059
 7678TIP3   OH244524   4.249   0.454   0.561 -0.1587  0.1467 -0.0735
 7678TIP3    H144525   4.324   0.432   0.615 -0.2615 -2.6665 -0.9507
 7678TIP3    H244526   4.286   0.485   0.478  0.2492 -3.6456 -1.4830
 7679TIP3   OH244527   2.990   0.437  15.502 -0.1059 -0.2747  0.3711
 7679TIP3    H144528   3.072   0.401  15.468 -0.9015 -0.0245 -2.0744
 7679TIP3    H244529   2.928   0.364  15.497  0.1351 -0.7730  3.2118
 7680TIP3   OH244530   0.449   5.336   1.814 -0.4338 -0.3854  0.0193
 7680TIP3    H144531   0.477   5.401   1.750 -0.2566 -0.7309 -0.2577
 7680TIP3    H244532   0.441   5.385   1.896 -0.9850  0.1324 -0.3330
 7681TIP3   OH244533   3.119   5.988   4.803  0.1945  0.6746  0.3648
 7681TIP3    H144534   3.108   6.013   4.711  2.3945 -0.9675 -0.4589
 7681TIP3    H244535   3.036   6.009   4.844 -1.5428 -0.1699 -2.4207
 7682TIP3   OH244536   3.762   4.330  14.473 -0.4397  0.2718 -0.7830
 7682TIP3    H144537   3.844   4.347  14.519  0.0074 -3.8247  0.2893
 7682TIP3    H244538   3.693   4.348  14.537 -0.0816 -0.6172 -0.1348
 7683TIP3   OH244539   3.899   1.535   0.012 -0.5916 -0.2061  0.6494
 7683TIP3    H144540   3.867   1.461  -0.040 -1.3535  0.4878  0.1036
 7683TIP3    H244541   3.822   1.566   0.060 -0.2227  0.0801  1.0679
 7684TIP3   OH244542   3.678   4.653  11.898 -0.3971 -0.4674 -0.3146
 7684TIP3    H144543   3.761   4.701  11.892 -1.2089  0.8513 -1.9472
 7684TIP3    H244544   3.643   4.676  11.984  1.7533 -2.5906  1.2675
 7685TIP3   OH244545   5.002   1.807  16.706  0.0448  0.4009 -0.0706
 7685TIP3    H144546   5.097   1.794  16.700  0.3727  2.8269 -0.9611
 7685TIP3    H244547   4.986   1.820  16.799  0.6782  0.5896  0.0169
 7686TIP3   OH244548   6.458   1.064   6.414  0.3277  0.3268  0.2273
 7686TIP3    H144549   6.513   0.989   6.436 -0.0210 -0.0398 -0.1239
 7686TIP3    H244550   6.511   1.140   6.437  0.3156 -0.0260  1.4833
 7687TIP3   OH244551   3.935   2.415  12.550 -0.3951 -0.1965 -0.1026
 7687TIP3    H144552   3.972   2.499  12.579 -0.4240 -0.3753  0.4607
 7687TIP3    H244553   3.896   2.435  12.465 -2.0242  0.8259  0.8253
 7688TIP3   OH244554   3.978   1.944  11.137 -0.9762 -0.3129  0.3292
 7688TIP3    H144555   4.039   1.933  11.064 -1.0012  2.3124 -0.2124
 7688TIP3    H244556   4.031   1.936  11.215 -0.4457 -0.6071 -0.0585
 7689TIP3   OH244557   1.730   6.448  11.839  0.1457  0.6118  0.0058
 7689TIP3    H144558   1.791   6.505  11.885 -0.9908  1.4112  0.5532
 7689TIP3    H244559   1.692   6.393  11.907 -0.5083  0.8378 -0.1675
 7690TIP3   OH244560   4.771   5.682  13.548  0.1645 -0.3410 -0.6747
 7690TIP3    H144561   4.715   5.612  13.581 -0.9699  0.3447 -1.0818
 7690TIP3    H244562   4.849   5.637  13.516  0.0512 -1.2782  0.2952
 7691TIP3   OH244563   0.412   2.891   5.452  0.5643  0.4049  0.5476
 7691TIP3    H144564   0.321   2.902   5.424 -0.3946 -3.4355  1.5445
 7691TIP3    H244565   0.462   2.892   5.371 -0.9964 -1.7202 -0.5495
 7692TIP3   OH244566   2.031   2.334   2.616 -0.1327 -0.0418  0.1545
 7692TIP3    H144567   2.121   2.330   2.647 -0.3165  1.7525  1.0547
 7692TIP3    H244568   1.983   2.272   2.672  0.4788 -0.7971 -0.1505
 7693TIP3   OH244569   1.292   4.152  15.769  0.5984  0.1198  0.3550
 7693TIP3    H144570   1.220   4.107  15.723  0.2983  1.1631 -0.2230
 7693TIP3    H244571   1.249   4.201  15.839  0.4848  2.1042 -1.0180
 7694TIP3   OH244572   3.019   6.478  17.093 -0.3852  0.4444  0.3974
 7694TIP3    H144573   2.940   6.425  17.103 -0.1425  0.0436  0.2142
 7694TIP3    H244574   2.986   6.567  17.074 -0.7984  0.0265 -1.0218
 7695TIP3   OH244575   3.376   3.741  16.750  0.3669  0.3032  0.2097
 7695TIP3    H144576   3.338   3.678  16.810  2.8174 -1.9238 -0.4185
 7695TIP3    H244577   3.336   3.721  16.666  1.7288 -1.0436 -0.1540
 7696TIP3   OH244578   6.386   0.145   2.327 -0.3657 -0.3624  0.1102
 7696TIP3    H144579   6.454   0.199   2.286 -1.4232 -0.9905 -2.7413
 7696TIP3    H244580   6.420   0.055   2.319 -0.9217 -0.5588 -0.1004
 7697TIP3   OH244581   3.051   4.379  13.477 -0.0780  0.0170 -0.0549
 7697TIP3    H144582   3.029   4.423  13.559  0.5203 -0.5044  0.3916
 7697TIP3    H244583   3.094   4.298  13.503  1.4189  0.4874 -0.8681
 7698TIP3   OH244584   6.665   5.508   2.773 -0.0167  0.2158  0.2472
 7698TIP3    H144585   6.688   5.416   2.790  0.7200  0.5586  1.1856
 7698TIP3    H244586   6.581   5.503   2.728  0.8894 -1.0006 -1.4245
 7699TIP3   OH244587   1.181   4.584  16.500  0.4296  0.1285  0.3069
 7699TIP3    H144588   1.210   4.638  16.575 -1.9028  1.2403  0.4942
 7699TIP3    H244589   1.086   4.595  16.499  0.1159 -2.2802 -1.0405
 7700TIP3   OH244590   4.734   5.599  13.255 -0.3718  0.0327  0.1421
 7700TIP3    H144591   4.808   5.651  13.287  0.0167 -0.8876  0.7686
 7700TIP3    H244592   4.775   5.528  13.205 -0.8976  0.3281 -0.7298
 7701TIP3   OH244593   6.238   2.379  11.597 -0.0357  0.4507 -0.1833
 7701TIP3    H144594   6.306   2.315  11.616 -0.1189  1.2842  3.9528
 7701TIP3    H244595   6.279   2.464  11.613 -0.9074  1.2820 -1.9883
 7702TIP3   OH244596   5.976   1.586  16.011  0.0445 -0.2439 -0.2229
 7702TIP3    H144597   5.912   1.515  16.015 -0.7859  0.3764 -1.8681
 7702TIP3    H244598   5.990   1.600  15.918  1.0373  1.0244  0.0940
 7703TIP3   OH244599   3.226   4.860   4.733  0.2068  0.2540 -0.2741
 7703TIP3    H144600   3.244   4.806   4.810 -0.8808 -1.3344 -1.0867
 7703TIP3    H244601   3.153   4.916   4.760  1.4323  1.4893  0.6203
 7704TIP3   OH244602   3.181   1.686   3.485  0.1160  0.2941 -0.6264
 7704TIP3    H144603   3.141   1.641   3.411 -2.6935 -0.1213  0.9678
 7704TIP3    H244604   3.129   1.766   3.495 -0.1786 -0.0797  1.3522
 7705TIP3   OH244605   5.928   3.924   6.233 -0.7782 -0.0866 -0.2637
 7705TIP3    H144606   5.886   4.003   6.199  1.1993  0.3692 -1.9217
 7705TIP3    H244607   5.897   3.917   6.323 -1.3994  2.3158 -0.2064
 7706TIP3   OH244608   0.053   1.488   5.059 -0.2748  0.3148  0.2716
 7706TIP3    H144609   0.024   1.553   5.123  1.0766 -0.3396  1.5916
 7706TIP3    H244610   0.025   1.524   4.975 -1.1527  1.7183  1.1278
 7707TIP3   OH244611   0.642   5.752   5.515 -0.1844  0.0099 -0.0426
 7707TIP3    H144612   0.615   5.804   5.439  1.1527  2.2688  0.9507
 7707TIP3    H244613   0.609   5.799   5.590  1.3075 -0.4078  0.9228
 7708TIP3   OH244614   2.193   3.983  10.702  0.4261  1.1372  0.0251
 7708TIP3    H144615   2.260   4.018  10.645  0.6599 -0.8480 -1.0164
 7708TIP3    H244616   2.161   3.905  10.657 -0.4243  0.3199  1.9029
 7709TIP3   OH244617   6.296   5.679  16.783  0.2159  0.0880  0.3283
 7709TIP3    H144618   6.296   5.749  16.849  1.2075  1.5250 -1.1176
 7709TIP3    H244619   6.236   5.710  16.715  1.3486 -0.0283 -0.7486
 7710TIP3   OH244620   5.514   6.819  11.287 -0.3466  0.5124 -0.4844
 7710TIP3    H144621   5.571   6.755  11.244 -0.1505  0.3967 -0.0568
 7710TIP3    H244622   5.457   6.766  11.343  2.3240  0.8861  2.8921
 7711TIP3   OH244623   3.186   3.955   5.250 -0.4827 -0.1782  0.1801
 7711TIP3    H144624   3.173   3.964   5.345  0.9608 -3.1459  0.8042
 7711TIP3    H244625   3.247   4.025   5.227  0.5535 -0.4612  1.8702
 7712TIP3   OH244626   5.498   1.444   4.112  0.0459  0.6286 -0.0845
 7712TIP3    H144627   5.501   1.420   4.204  1.7278 -0.9716 -0.4970
 7712TIP3    H244628   5.571   1.396   4.072 -0.9459  0.8600 -2.3350
 7713TIP3   OH244629   1.875   1.630  14.664 -0.3431  0.0134  0.4116
 7713TIP3    H144630   1.875   1.668  14.576 -0.1954  0.6335  0.6769
 7713TIP3    H244631   1.805   1.565  14.662 -1.3242  1.0436  0.2774
 7714TIP3   OH244632   3.474   4.031   6.162 -0.1570 -0.3695 -0.2867
 7714TIP3    H144633   3.402   4.092   6.148 -0.5117 -0.3640  1.3460
 7714TIP3    H244634   3.434   3.944   6.163  0.0994 -0.5039 -0.8875
 7715TIP3   OH244635   2.361   5.557   3.605  0.0412  0.0855 -0.3828
 7715TIP3    H144636   2.319   5.625   3.658  1.2884  0.5401  0.0574
 7715TIP3    H244637   2.430   5.603   3.558  1.7306 -1.0479  0.8611
 7716TIP3   OH244638   2.975   3.480  10.279 -0.3422 -0.1108  0.1974
 7716TIP3    H144639   2.906   3.512  10.337 -0.1139 -1.2862  1.1365
 7716TIP3    H244640   2.970   3.385  10.284  0.8734 -0.2230 -0.2878
 7717TIP3   OH244641   5.078   2.724  13.708  0.3836 -0.0918  0.2157
 7717TIP3    H144642   5.032   2.722  13.792 -0.1772 -0.2112 -0.0842
 7717TIP3    H244643   5.113   2.636  13.697  1.4361  0.2342  0.8431
 7718TIP3   OH244644   0.102   2.887   5.006  1.0860 -0.0539 -0.1479
 7718TIP3    H144645   0.145   2.858   4.926 -1.6351 -0.9037 -1.4193
 7718TIP3    H244646   0.054   2.811   5.037 -0.4421  1.1114  0.4950
 7719TIP3   OH244647   4.173   3.253   3.728  0.0973  0.4007 -0.1989
 7719TIP3    H144648   4.171   3.188   3.658  0.8538  0.9637 -0.7705
 7719TIP3    H244649   4.236   3.219   3.792  1.8917  1.3621 -1.3559
 7720TIP3   OH244650   3.549   1.041   1.634 -0.1045 -0.2695  0.3314
 7720TIP3    H144651   3.501   1.098   1.574  1.0009  0.7635  0.3896
 7720TIP3    H244652   3.481   0.998   1.687 -1.0032  0.1024 -0.4976
 7721TIP3   OH244653   1.221   1.175  17.026 -0.4864  0.2449 -0.3251
 7721TIP3    H144654   1.155   1.119  16.986 -0.5146 -0.2691  0.4225
 7721TIP3    H244655   1.301   1.158  16.977 -0.5218 -0.3736 -0.1755
 7722TIP3   OH244656   0.089   3.642  13.322  0.5328  0.1442 -0.2367
 7722TIP3    H144657   0.090   3.707  13.393 -1.1083 -0.4450  0.3564
 7722TIP3    H244658   0.051   3.688  13.247  0.1552  0.1006 -0.0692
 7723TIP3   OH244659   4.016   0.546   2.631 -0.7644 -0.3080 -0.1710
 7723TIP3    H144660   4.045   0.461   2.597  0.1515 -0.3491  0.6830
 7723TIP3    H244661   4.001   0.531   2.724  1.7855  0.9964  0.5414
 7724TIP3   OH244662   6.162   0.576  14.218 -0.0575  0.5908  0.1948
 7724TIP3    H144663   6.246   0.539  14.243 -0.6087  0.6729  2.3510
 7724TIP3    H244664   6.097   0.522  14.263 -1.0417  2.0155  0.5530
 7725TIP3   OH244665   6.275   1.400   5.893  0.1623 -0.4490  0.5547
 7725TIP3    H144666   6.288   1.363   5.981  1.0620  2.2418  1.6742
 7725TIP3    H244667   6.358   1.386   5.848 -0.7424 -3.0874 -0.4908
 7726TIP3   OH244668   1.041   5.658   3.275 -0.2198  0.1673  0.1487
 7726TIP3    H144669   1.094   5.637   3.352 -1.8002 -1.4988  0.8717
 7726TIP3    H244670   1.067   5.594   3.209 -0.4979  0.1086  0.0953
 7727TIP3   OH244671   4.289   0.677  13.293  0.1392 -0.4558 -0.5991
 7727TIP3    H144672   4.345   0.633  13.357  0.2345 -0.6141 -0.7912
 7727TIP3    H244673   4.346   0.742  13.252  0.2783 -0.8491 -1.0358
 7728TIP3   OH244674   1.173   1.326  14.727 -0.1209 -0.2089 -0.2492
 7728TIP3    H144675   1.190   1.350  14.635 -2.0690 -1.0906 -0.8974
 7728TIP3    H244676   1.259   1.309  14.764  0.6060 -1.8904 -2.5118
 7729TIP3   OH244677   3.554   0.294  11.446 -0.6517 -0.2489  0.5866
 7729TIP3    H144678   3.597   0.379  11.455 -1.2120 -0.1157  2.6316
 7729TIP3    H244679   3.463   0.315  11.425 -0.2092 -0.4800 -1.8348
 7730TIP3   OH244680   0.914   3.922   0.883 -0.1126  0.1757  0.3319
 7730TIP3    H144681   0.907   3.845   0.940 -1.1619 -0.5451 -0.7100
 7730TIP3    H244682   0.920   3.996   0.942  1.6888 -0.7346  1.3869
 7731TIP3   OH244683   5.125   6.524   6.114 -0.1039 -0.2623 -0.0295
 7731TIP3    H144684   5.201   6.465   6.118  0.7330  0.8246  1.9954
 7731TIP3    H244685   5.138   6.583   6.188 -3.4480 -0.6204  0.9827
 7732TIP3   OH244686   6.605   5.699   2.452 -0.1722  0.0397  0.5538
 7732TIP3    H144687   6.651   5.615   2.451 -0.5357 -0.1869 -1.7848
 7732TIP3    H244688   6.513   5.675   2.446 -0.4056  0.5923  1.6883
 7733TIP3   OH244689   1.275   5.891   3.902 -0.2728  0.2425 -0.5808
 7733TIP3    H144690   1.310   5.803   3.892 -1.1888 -0.4048  1.3060
 7733TIP3    H244691   1.233   5.910   3.819 -2.6326 -2.3467 -0.1472
 7734TIP3   OH244692   3.123   6.409   1.183  0.5787 -0.2206 -0.0647
 7734TIP3    H144693   3.175   6.330   1.165  0.0168 -0.4515 -0.7121
 7734TIP3    H244694   3.068   6.419   1.106  0.9526  1.0704 -0.1761
 7735TIP3   OH244695   0.975   4.143   3.938 -0.7741  0.1384 -0.4446
 7735TIP3    H144696   0.964   4.232   3.971  0.9972  0.1531  0.2407
 7735TIP3    H244697   1.050   4.149   3.879 -0.0872 -1.0239  0.2699
 7736TIP3   OH244698   3.471   4.921   6.564  0.2346 -0.4854 -0.3247
 7736TIP3    H144699   3.388   4.880   6.539 -0.5969  1.6208 -1.2590
 7736TIP3    H244700   3.487   4.890   6.653 -1.8635 -0.5050  0.0992
 7737TIP3   OH244701   5.512   4.614  13.921  0.1364  0.4910  0.0198
 7737TIP3    H144702   5.564   4.684  13.961  1.9824  0.0753 -1.4929
 7737TIP3    H244703   5.431   4.657  13.894  1.4426  2.2552 -1.3822
 7738TIP3   OH244704   0.916   4.781   4.907  0.1865  0.0907  0.3872
 7738TIP3    H144705   0.987   4.739   4.956  0.8543  1.2915  0.4738
 7738TIP3    H244706   0.906   4.725   4.829  1.0256 -0.2586  0.5135
 7739TIP3   OH244707   1.628   4.174   2.199  0.3446  0.0434  0.6360
 7739TIP3    H144708   1.694   4.226   2.244 -1.4059  1.5429  1.6273
 7739TIP3    H244709   1.545   4.211   2.228 -0.9574  0.2569 -2.8206
 7740TIP3   OH244710   2.652   4.016   6.269 -0.2778  0.4719  0.3297
 7740TIP3    H144711   2.610   3.930   6.272  0.7130 -0.0131  0.8176
 7740TIP3    H244712   2.604   4.064   6.201  1.9936 -1.9781 -3.3408
 7741TIP3   OH244713   4.987   2.019   4.376 -0.7704 -0.3101  0.3006
 7741TIP3    H144714   5.025   2.106   4.385  0.1180 -0.5856 -0.6142
 7741TIP3    H244715   4.914   2.030   4.316  0.7859 -0.5631 -1.7405
 7742TIP3   OH244716   1.481   2.433  14.252 -0.1753 -0.1113 -0.5959
 7742TIP3    H144717   1.398   2.444  14.206 -0.6715  0.1183  0.3385
 7742TIP3    H244718   1.482   2.502  14.318  1.7082  1.2298 -1.9165
 7743TIP3   OH244719   1.366   2.016  13.234  0.8277  0.3419 -0.1364
 7743TIP3    H144720   1.322   1.943  13.191  2.2234 -0.4076 -0.3598
 7743TIP3    H244721   1.447   1.978  13.268  0.1968  1.0907  2.4306
 7744TIP3   OH244722   3.189   0.017  16.454  0.3331 -0.5124 -0.8902
 7744TIP3    H144723   3.136  -0.059  16.477 -0.5093  0.2914 -0.0602
 7744TIP3    H244724   3.268   0.009  16.508 -1.0773  0.7021  1.5323
 7745TIP3   OH244725   3.128   4.885  13.902  0.3728 -0.2253  0.6240
 7745TIP3    H144726   3.082   4.962  13.868  1.2911 -0.2858 -0.8087
 7745TIP3    H244727   3.166   4.843  13.825  1.5536 -1.0216  1.6036
 7746TIP3   OH244728   6.562   5.487  14.851 -0.3124 -0.0810  0.3440
 7746TIP3    H144729   6.522   5.513  14.768  2.9741 -2.2688 -2.2354
 7746TIP3    H244730   6.656   5.499  14.837  0.6165 -3.2132  2.6279
 7747TIP3   OH244731   5.378   5.752   5.127 -0.2250 -0.0219 -0.0379
 7747TIP3    H144732   5.366   5.788   5.039 -1.4480 -0.3148 -0.0090
 7747TIP3    H244733   5.412   5.664   5.111 -1.7145 -0.5801 -0.2936
 7748TIP3   OH244734   1.894   6.223   2.055 -0.7767 -0.4303 -0.2502
 7748TIP3    H144735   1.875   6.201   2.146  1.5192 -0.1160  0.3699
 7748TIP3    H244736   1.898   6.319   2.053 -0.3455 -0.4470 -0.5444
 7749TIP3   OH244737   1.071   5.540  10.960 -0.6368 -0.2310  0.0036
 7749TIP3    H144738   1.012   5.611  10.987  0.4731  0.4364  0.7809
 7749TIP3    H244739   1.138   5.584  10.908  1.1500 -0.3000  2.0664
 7750TIP3   OH244740   5.972   2.467   0.462  0.7979 -0.0727 -0.2534
 7750TIP3    H144741   5.997   2.537   0.522 -2.6352 -0.0019  1.2808
 7750TIP3    H244742   6.007   2.387   0.503 -0.3214  0.1328  1.1746
 7751TIP3   OH244743   4.325   0.794   4.971  1.2377 -0.0590  0.2182
 7751TIP3    H144744   4.280   0.831   4.896 -0.2400  0.3363  1.2720
 7751TIP3    H244745   4.256   0.776   5.035  2.6541  1.8234  2.4362
 7752TIP3   OH244746   3.130   5.950  12.900  0.1348  0.0357 -0.0671
 7752TIP3    H144747   3.039   5.959  12.928 -0.0257  1.2607 -0.8830
 7752TIP3    H244748   3.130   5.875  12.841 -0.2250 -0.3331  0.3919
 7753TIP3   OH244749   6.099   5.509  11.681  0.5001 -0.1572 -0.4859
 7753TIP3    H144750   6.177   5.455  11.693 -0.3862 -1.1126  1.3672
 7753TIP3    H244751   6.125   5.575  11.616  2.9476 -0.2190  0.3320
 7754TIP3   OH244752   0.832   1.581   5.141  0.0581 -0.3140 -0.7845
 7754TIP3    H144753   0.752   1.593   5.089  0.3911  1.0693 -1.0139
 7754TIP3    H244754   0.821   1.639   5.216  0.5972 -0.5731 -0.5011
 7755TIP3   OH244755   3.726   0.305  10.520 -0.4519  0.0756 -0.0403
 7755TIP3    H144756   3.775   0.371  10.471 -0.4243  0.4470  0.4885
 7755TIP3    H244757   3.635   0.317  10.491 -0.8483  1.9208  1.7445
 7756TIP3   OH244758   6.448   0.398   1.241 -0.3650 -0.8546 -0.7354
 7756TIP3    H144759   6.414   0.413   1.330  0.2853  1.1716 -0.7815
 7756TIP3    H244760   6.390   0.449   1.185 -0.7946 -2.1598 -1.5168
 7757TIP3   OH244761   1.260   1.454  15.404  0.3059 -0.0100  0.7138
 7757TIP3    H144762   1.202   1.502  15.463  1.4073  2.3304  0.0024
 7757TIP3    H244763   1.325   1.518  15.376  1.8591 -1.9234 -0.3782
 7758TIP3   OH244764   6.817   4.549   2.963  0.2830 -0.2746 -0.2510
 7758TIP3    H144765   6.894   4.544   2.907 -0.2567  1.4552 -1.2238
 7758TIP3    H244766   6.743   4.541   2.903 -0.2934 -0.4453  0.4739
 7759TIP3   OH244767   5.550   5.831  12.474 -0.5515 -0.4303  0.2250
 7759TIP3    H144768   5.606   5.772  12.524  1.1376  0.8963 -0.0060
 7759TIP3    H244769   5.482   5.775  12.437 -0.3574 -1.8335  1.8893
 7760TIP3   OH244770   4.261   1.528  13.828  0.2389 -0.6364 -0.2484
 7760TIP3    H144771   4.340   1.474  13.832 -0.5250 -1.8896 -1.3602
 7760TIP3    H244772   4.292   1.617  13.847  1.6221 -1.3454  1.0300
 7761TIP3   OH244773   1.265   4.762   1.032  0.7475 -0.0163 -0.0189
 7761TIP3    H144774   1.207   4.833   1.061  0.5068  0.9491 -2.6309
 7761TIP3    H244775   1.213   4.683   1.045 -0.0281  0.5469  0.4109
 7762TIP3   OH244776   4.604   1.523  16.087 -0.6388  0.1723  0.4181
 7762TIP3    H144777   4.543   1.515  16.014 -0.1228 -0.0649  0.0041
 7762TIP3    H244778   4.592   1.612  16.119 -0.2703  0.5547 -0.4950
 7763TIP3   OH244779   1.337   5.014  12.046  0.0293  0.4353 -0.2788
 7763TIP3    H144780   1.326   4.948  12.114  0.9546 -0.3833 -0.8917
 7763TIP3    H244781   1.432   5.024  12.037  0.0184 -0.6508 -2.4861
 7764TIP3   OH244782   2.168   1.220  12.330 -0.2163 -0.0153  1.0205
 7764TIP3    H144783   2.219   1.149  12.368 -0.4124 -0.5692  0.2807
 7764TIP3    H244784   2.107   1.246  12.399  0.3708 -0.0393  1.5567
 7765TIP3   OH244785   5.030   5.710   5.647 -0.3775  0.3927 -0.7241
 7765TIP3    H144786   4.979   5.773   5.697  0.6824 -0.7671  1.9985
 7765TIP3    H244787   4.986   5.626   5.661  1.5494 -0.4435  0.8020
 7766TIP3   OH244788   4.584   4.789   4.931 -0.3016 -0.1586  0.4610
 7766TIP3    H144789   4.492   4.785   4.904 -0.3882  2.6489  0.1179
 7766TIP3    H244790   4.614   4.875   4.903  2.2400 -0.6968  1.2861
 7767TIP3   OH244791   4.917   3.484  16.767 -0.1024 -0.5388 -0.5235
 7767TIP3    H144792   5.003   3.460  16.733  0.5997  0.5302  0.4091
 7767TIP3    H244793   4.934   3.560  16.823 -1.6259 -0.4428 -0.1478
 7768TIP3   OH244794   6.436   0.769  14.937  0.9091  0.5521 -0.2848
 7768TIP3    H144795   6.507   0.772  15.002 -1.7918  0.9220  2.9659
 7768TIP3    H244796   6.414   0.861  14.922  1.4790  0.4651 -1.8287
 7769TIP3   OH244797   2.469   0.885  12.683 -0.2791  0.6082  0.0684
 7769TIP3    H144798   2.504   0.873  12.594  0.4604 -0.6070  0.5010
 7769TIP3    H244799   2.478   0.799  12.724 -1.8403  0.8091  0.9028
 7770TIP3   OH244800   3.736   1.848  16.046 -0.0983  0.0112 -0.4041
 7770TIP3    H144801   3.646   1.875  16.064 -0.1881  0.8535 -1.9179
 7770TIP3    H244802   3.785   1.930  16.043  0.4705 -0.3397 -0.7839
 7771TIP3   OH244803   1.891   4.030  15.964  0.3937 -0.1453 -0.6129
 7771TIP3    H144804   1.834   3.960  15.996  0.6248  0.0451  0.2618
 7771TIP3    H244805   1.962   3.984  15.920  0.7973 -0.5127  0.3738
 7772TIP3   OH244806   3.482   1.771  15.293  0.4826  0.6089 -0.4980
 7772TIP3    H144807   3.518   1.752  15.379  0.1403 -0.4086 -0.5742
 7772TIP3    H244808   3.545   1.734  15.232  0.0003  0.0358 -0.6548
 7773TIP3   OH244809   5.013   0.949   2.354  0.4290 -0.4567 -0.3572
 7773TIP3    H144810   5.060   0.963   2.272  1.2211 -0.5936  0.0693
 7773TIP3    H244811   4.926   0.921   2.327 -0.3513  2.4572 -1.2376
 7774TIP3   OH244812   5.331   6.136   0.441 -0.2516  0.1946  0.7665
 7774TIP3    H144813   5.287   6.187   0.508 -0.3883  1.9654 -0.6060
 7774TIP3    H244814   5.357   6.200   0.375  0.2260 -1.4209 -0.6838
 7775TIP3   OH244815   0.542   4.190  12.714  0.2184  0.1841 -0.4524
 7775TIP3    H144816   0.618   4.247  12.720 -0.0181  0.5871 -1.1676
 7775TIP3    H244817   0.532   4.171  12.621 -0.1599 -0.4098 -0.3015
 7776TIP3   OH244818   0.559   3.259   6.025  0.0629  0.3774  0.4529
 7776TIP3    H144819   0.526   3.211   5.949  1.2484 -0.3071  0.3363
 7776TIP3    H244820   0.591   3.190   6.084  2.4974  0.9808 -0.0356
 7777TIP3   OH244821   4.512   1.652  14.190 -0.7204  0.1414  0.1662
 7777TIP3    H144822   4.602   1.683  14.186 -0.7292  0.0644 -1.2440
 7777TIP3    H244823   4.518   1.558  14.172 -1.0792  0.1158  0.1687
 7778TIP3   OH244824   4.134   0.620   1.268 -0.4575  0.6906 -0.4905
 7778TIP3    H144825   4.149   0.707   1.231 -2.4752  1.0288 -0.6315
 7778TIP3    H244826   4.045   0.624   1.302 -0.2881 -1.0827  0.2490
 7779TIP3   OH244827   4.013   3.201   4.812 -0.3946 -0.9969 -0.6976
 7779TIP3    H144828   3.958   3.200   4.891 -0.1443 -2.3257 -0.5134
 7779TIP3    H244829   3.991   3.120   4.766  0.8664 -1.1957 -1.0027
 7780TIP3   OH244830   1.425   1.886  14.006 -0.0540  0.0262 -0.0546
 7780TIP3    H144831   1.366   1.955  14.035 -2.0245 -1.3406 -0.5900
 7780TIP3    H244832   1.430   1.897  13.911  0.8990  0.3803  0.0316
 7781TIP3   OH244833   0.703   3.702  12.691  0.2293  0.7071 -0.9750
 7781TIP3    H144834   0.623   3.666  12.729  1.1688 -0.0631  0.3410
 7781TIP3    H244835   0.770   3.637  12.709  0.9321  0.7088 -3.2500
 7782TIP3   OH244836   5.116   5.101  15.828  0.2162  0.1827 -0.0609
 7782TIP3    H144837   5.125   5.193  15.854 -1.6240  0.6560 -0.9648
 7782TIP3    H244838   5.031   5.074  15.863  0.9260 -1.3393  0.5763
 7783TIP3   OH244839   1.047   4.429  16.209 -0.4764 -0.2232 -0.5077
 7783TIP3    H144840   0.973   4.490  16.209  1.0184  1.7181  0.5181
 7783TIP3    H244841   1.017   4.355  16.262 -1.4913  0.8327  0.4729
 7784TIP3   OH244842   2.407   3.522   0.170  0.1096 -0.0864  0.8692
 7784TIP3    H144843   2.312   3.509   0.168 -0.0758  1.0721 -1.1733
 7784TIP3    H244844   2.427   3.547   0.260 -1.4737 -0.5483  1.3737
 7785TIP3   OH244845   1.735   5.419   3.469 -0.0110 -0.3206 -0.3118
 7785TIP3    H144846   1.670   5.376   3.414  0.6245 -0.1873 -1.1876
 7785TIP3    H244847   1.806   5.442   3.409  1.1266 -1.0192  0.7197
 7786TIP3   OH244848   1.867   3.286  15.625  0.3949  0.2457 -0.5561
 7786TIP3    H144849   1.840   3.332  15.704 -0.5666 -1.8797  0.4292
 7786TIP3    H244850   1.786   3.273  15.576  0.6672 -0.2424 -0.8838
 7787TIP3   OH244851   0.063   5.051  14.964  0.1787  0.0960 -0.0311
 7787TIP3    H144852   0.017   4.967  14.963  0.6497 -0.1898  0.8017
 7787TIP3    H244853  -0.005   5.116  14.978 -0.0593 -0.2567  0.4724
 7788TIP3   OH244854   1.173   1.737   4.783  0.0244  0.8497 -0.3896
 7788TIP3    H144855   1.106   1.700   4.841 -2.1168  1.2582 -2.4456
 7788TIP3    H244856   1.229   1.662   4.760 -0.9581  0.0331 -0.1944
 7789TIP3   OH244857   0.556   6.676   2.964  0.3501 -0.1839 -0.2332
 7789TIP3    H144858   0.617   6.719   3.024  0.9598  0.0036 -0.9765
 7789TIP3    H244859   0.476   6.727   2.970 -0.2884 -1.3152  1.9168
 7790TIP3   OH244860   1.926   5.793  15.501  0.4131 -0.5200  0.0518
 7790TIP3    H144861   1.928   5.726  15.569  1.5123  0.7191  1.3296
 7790TIP3    H244862   2.017   5.822  15.494  0.0368  0.5316 -0.7614
 7791TIP3   OH244863   0.525   5.149  13.346  0.4649 -0.2847 -0.1936
 7791TIP3    H144864   0.601   5.206  13.340 -0.3614  1.2657  2.4226
 7791TIP3    H244865   0.467   5.178  13.275 -0.4449  3.1275  1.7098
 7792TIP3   OH244866   2.713   4.558  16.301 -0.3461 -0.6269 -0.1029
 7792TIP3    H144867   2.625   4.521  16.304 -0.4099 -0.6510 -1.5838
 7792TIP3    H244868   2.709   4.623  16.231  0.6110 -0.0691  0.3435
 7793TIP3   OH244869   1.438   4.205  15.392  0.0386  0.0525  0.2354
 7793TIP3    H144870   1.458   4.145  15.464  0.0400  0.6543  0.7476
 7793TIP3    H244871   1.402   4.283  15.435  2.1169  1.3479 -0.2114
 7794TIP3   OH244872   0.395   1.294   5.886  0.2407 -0.2010  0.0143
 7794TIP3    H144873   0.334   1.290   5.959  1.0006  1.2822  0.7999
 7794TIP3    H244874   0.373   1.376   5.841  0.8454 -0.2607 -0.4036
 7795TIP3   OH244875   6.025   1.908  14.816  1.0682  0.2836 -0.2076
 7795TIP3    H144876   6.119   1.891  14.816  0.6456 -2.5867 -0.6257
 7795TIP3    H244877   5.999   1.903  14.724  0.4091  0.3785 -0.0315
 7796TIP3   OH244878   4.732   0.945  12.372  0.2357 -0.7208  0.1788
 7796TIP3    H144879   4.808   0.903  12.332  1.1431  0.9169  0.0732
 7796TIP3    H244880   4.735   0.919  12.464  0.7071 -0.9722  0.0944
 7797TIP3   OH244881   3.115   2.980  12.110 -0.5376  0.1324 -0.2685
 7797TIP3    H144882   3.177   2.975  12.037 -0.0684  0.9263  0.0572
 7797TIP3    H244883   3.047   3.040  12.080 -1.3075 -0.9420 -0.7253
 7798TIP3   OH244884   3.668   2.415  12.857 -0.1621 -0.6837 -0.0282
 7798TIP3    H144885   3.602   2.433  12.790 -0.1888  1.4062  0.4957
 7798TIP3    H244886   3.636   2.460  12.935  0.8559 -1.4107  0.8400
 7799TIP3   OH244887   5.590   3.114  14.352  0.7470 -0.2524  1.0006
 7799TIP3    H144888   5.673   3.070  14.334 -0.0379 -2.1341  1.7415
 7799TIP3    H244889   5.556   3.136  14.266  1.9696  0.5267  0.6830
 7800TIP3   OH244890   3.625   1.768  15.513  0.5619  0.0022  0.0816
 7800TIP3    H144891   3.680   1.844  15.497 -0.5471  0.7323 -0.4297
 7800TIP3    H244892   3.654   1.734  15.597  0.7168  1.3210  0.5744
 7801TIP3   OH244893   3.505   2.575   0.271  0.4372  0.3478 -0.5143
 7801TIP3    H144894   3.584   2.616   0.307  0.9110 -1.6347  0.8927
 7801TIP3    H244895   3.433   2.629   0.304  1.0452  0.2938  0.9812
 7802TIP3   OH244896   6.367   1.032   4.993  0.0329 -0.2598  0.2779
 7802TIP3    H144897   6.298   1.095   4.972 -1.4052 -2.0834 -0.8782
 7802TIP3    H244898   6.340   0.994   5.076 -0.2768 -0.8303 -0.0753
 7803TIP3   OH244899   3.769   4.132  11.228  0.1556 -0.3274  0.3557
 7803TIP3    H144900   3.686   4.089  11.206 -1.4892  2.1758  1.2379
 7803TIP3    H244901   3.791   4.183  11.150 -0.2295  0.5517  0.8058
 7804TIP3   OH244902   1.649   2.592   3.419  0.2365 -0.2154 -0.0630
 7804TIP3    H144903   1.724   2.560   3.469  1.3234  0.4146 -1.2610
 7804TIP3    H244904   1.611   2.661   3.473  1.3908  0.4483 -0.0806
 7805TIP3   OH244905   2.573   0.297  15.271  0.1270  0.1481  0.1961
 7805TIP3    H144906   2.487   0.337  15.254  0.1343  0.3502  0.6177
 7805TIP3    H244907   2.636   0.363  15.241  0.1840 -0.9212 -2.3504
 7806TIP3   OH244908   6.763   3.802  13.120 -0.0733 -0.2109 -0.0453
 7806TIP3    H144909   6.686   3.796  13.177  0.3586 -1.6304  0.4325
 7806TIP3    H244910   6.733   3.769  13.036 -0.4266  0.8886 -0.3737
 7807TIP3   OH244911   4.504   2.594  16.188  0.0140 -0.4320  0.2824
 7807TIP3    H144912   4.433   2.588  16.124 -0.6172  0.1642  0.9137
 7807TIP3    H244913   4.584   2.578  16.137 -0.2722  2.0714 -1.1012
 7808TIP3   OH244914   4.022   0.294  16.514  0.0501  0.0398 -0.4842
 7808TIP3    H144915   4.077   0.218  16.535  0.4902  0.0890 -1.4141
 7808TIP3    H244916   3.974   0.312  16.595  1.4508  0.0360  0.3814
 7809TIP3   OH244917   6.274   6.394   5.142 -0.2630 -0.7263 -0.7421
 7809TIP3    H144918   6.242   6.473   5.186  0.5434 -0.1383 -1.1901
 7809TIP3    H244919   6.214   6.325   5.170 -0.7574 -0.0292 -0.0492
 7810TIP3   OH244920   4.271   1.292  12.576 -0.2631 -0.4632 -0.2262
 7810TIP3    H144921   4.197   1.261  12.629  0.1656 -2.2082 -0.5858
 7810TIP3    H244922   4.238   1.295  12.487 -0.2104 -0.1378 -0.2380
 7811TIP3   OH244923   6.245   0.199  14.886  0.5001 -0.3373 -0.2625
 7811TIP3    H144924   6.305   0.241  14.824  0.4500  0.0643 -0.0465
 7811TIP3    H244925   6.278   0.226  14.972  0.7345 -1.1145 -0.1004
 7812TIP3   OH244926   3.669   5.500   4.575 -0.1146  0.2662 -0.3030
 7812TIP3    H144927   3.713   5.486   4.490 -0.7374  0.3084 -0.6374
 7812TIP3    H244928   3.610   5.573   4.559 -1.5210 -0.8388 -0.3225
 7813TIP3   OH244929   4.685   2.868  14.344  0.1606 -0.6086 -0.7313
 7813TIP3    H144930   4.623   2.939  14.329  0.7869  0.1959  0.3376
 7813TIP3    H244931   4.636   2.803  14.394  0.3232  0.3094  0.6725
 7814TIP3   OH244932   1.023   2.482   6.273  0.2631 -0.2470 -0.1855
 7814TIP3    H144933   1.084   2.414   6.244  0.9988  0.5107 -0.4683
 7814TIP3    H244934   0.987   2.449   6.355 -0.3686 -1.5485 -0.9403
 7815TIP3   OH244935   5.129   3.040   3.093 -0.3855 -0.0143  0.7619
 7815TIP3    H144936   5.169   3.070   3.012 -1.6937 -0.5491 -0.1210
 7815TIP3    H244937   5.194   3.059   3.161  0.4362  1.1070 -0.2997
 7816TIP3   OH244938   0.529   6.011  17.189  0.0709 -0.4279 -0.8933
 7816TIP3    H144939   0.501   5.966  17.269 -0.9510 -1.1364 -1.6290
 7816TIP3    H244940   0.545   6.101  17.217 -0.3485 -0.6467  0.0971
 7817TIP3   OH244941   0.282   3.771   1.937 -0.5751 -0.3350  0.2220
 7817TIP3    H144942   0.220   3.817   1.993  1.1413  0.4827  1.5421
 7817TIP3    H244943   0.245   3.779   1.849 -1.6826  1.2515  0.7896
 7818TIP3   OH244944   2.095   0.463   1.647 -0.2125 -0.1615 -0.0315
 7818TIP3    H144945   2.030   0.527   1.618  0.7883  2.4235  2.8573
 7818TIP3    H244946   2.045   0.382   1.661 -1.9257  0.4857 -1.8992
 7819TIP3   OH244947   4.080   6.611  13.326  0.1194  0.2470  0.0326
 7819TIP3    H144948   4.049   6.699  13.348  1.5356  0.9672 -0.7554
 7819TIP3    H244949   4.164   6.625  13.283  1.0645 -1.5901  1.1876
 7820TIP3   OH244950   4.964   6.150   5.901 -0.4064  0.1980 -0.1896
 7820TIP3    H144951   4.987   6.065   5.861 -0.7342  0.3140 -0.6442
 7820TIP3    H244952   4.873   6.164   5.874 -0.5824  0.3624  0.4743
 7821TIP3   OH244953   5.403   2.992  13.548 -0.3431 -0.3753  0.3818
 7821TIP3    H144954   5.350   3.026  13.476 -1.7356 -2.0219  0.5499
 7821TIP3    H244955   5.345   2.996  13.624  0.3399 -0.7091  0.9257
 7822TIP3   OH244956   2.563   6.123  14.137 -0.1725  0.4477  0.9311
 7822TIP3    H144957   2.558   6.202  14.083  1.1839  0.7376  1.1917
 7822TIP3    H244958   2.474   6.087  14.135 -1.0349  2.4143  1.4884
 7823TIP3   OH244959   6.442   6.773  16.502  0.2471 -0.1291 -0.2956
 7823TIP3    H144960   6.445   6.727  16.586 -0.6436 -1.1852 -0.8245
 7823TIP3    H244961   6.534   6.781  16.476  0.4678 -0.7466  0.2690
 7824TIP3   OH244962   4.962   1.877  12.787  0.9739  0.0690 -0.0467
 7824TIP3    H144963   4.892   1.914  12.734  1.7160 -0.0237 -1.1198
 7824TIP3    H244964   4.999   1.951  12.834  1.2073  0.3956 -0.7281
 7825TIP3   OH244965   0.905   1.160  11.959 -0.0621  0.0608 -0.5662
 7825TIP3    H144966   0.936   1.088  12.013  2.3036  1.5205  0.1770
 7825TIP3    H244967   0.810   1.160  11.972 -0.2210 -3.0478 -0.8558
 7826TIP3   OH244968   6.638   0.658  13.223 -0.6031 -0.1460  0.1982
 7826TIP3    H144969   6.655   0.591  13.156  1.7370  1.2110 -0.6612
 7826TIP3    H244970   6.554   0.697  13.196 -1.3743 -1.8210  0.0056
 7827TIP3   OH244971   5.451   5.599   1.526  0.4317  0.8262  0.2570
 7827TIP3    H144972   5.506   5.624   1.601 -1.0323 -0.0175  1.6787
 7827TIP3    H244973   5.514   5.574   1.458  1.8576 -0.3903  1.9085
 7828TIP3   OH244974   1.270   0.282  13.109  0.2826 -0.4677  0.0942
 7828TIP3    H144975   1.263   0.251  13.199 -0.2409  0.7482  0.4882
 7828TIP3    H244976   1.184   0.264  13.071  0.2649 -0.3154  0.0607
 7829TIP3   OH244977   6.183   5.795  13.460 -0.7242 -0.3749 -0.3086
 7829TIP3    H144978   6.272   5.823  13.484 -0.9964 -1.8427  3.0544
 7829TIP3    H244979   6.151   5.864  13.403  1.6179  1.6339  0.5919
 7830TIP3   OH244980   2.612   2.637   1.266 -0.1456  0.4354 -0.0266
 7830TIP3    H144981   2.608   2.703   1.197  0.5737  0.4321 -0.0747
 7830TIP3    H244982   2.647   2.559   1.224  3.2633  1.2741  0.9192
 7831TIP3   OH244983   4.418   6.318   4.319  0.1723 -0.3389 -0.5004
 7831TIP3    H144984   4.392   6.409   4.301  1.6866  0.1658 -0.3250
 7831TIP3    H244985   4.371   6.295   4.399 -0.1223  0.3522 -0.4693
 7832TIP3   OH244986   4.575   3.434  15.111 -0.2586  0.2440 -0.5079
 7832TIP3    H144987   4.569   3.449  15.016 -1.7212 -0.8665 -0.6265
 7832TIP3    H244988   4.557   3.520  15.149  0.4831  0.7382 -1.2224
 7833TIP3   OH244989   2.868   2.825  11.569 -0.6665  0.1148  0.9095
 7833TIP3    H144990   2.934   2.774  11.615 -2.0750 -0.7058  2.1015
 7833TIP3    H244991   2.858   2.904  11.623  1.1982  1.5766 -0.7008
 7834TIP3   OH244992   3.689   2.528   5.345 -0.4828  0.3684 -0.0357
 7834TIP3    H144993   3.613   2.479   5.377  0.1523 -0.0519  0.8502
 7834TIP3    H244994   3.759   2.464   5.341 -0.7534  0.1269 -3.3556
 7835TIP3   OH244995   2.120   6.356   2.543 -0.2097  0.4079  0.0695
 7835TIP3    H144996   2.135   6.381   2.452 -1.6897  0.0693 -0.3046
 7835TIP3    H244997   2.055   6.286   2.538  0.6530 -0.5219  1.3242
 7836TIP3   OH244998   1.163   1.812   2.922 -0.5769 -0.3010  0.1826
 7836TIP3    H144999   1.144   1.775   3.009  0.2249  0.0111  0.5039
 7836TIP3    H245000   1.178   1.736   2.867  0.0844 -0.4821  0.6037
 7837TIP3   OH245001   2.679   4.352   4.396 -0.4676  0.0727 -0.1088
 7837TIP3    H145002   2.739   4.354   4.321 -0.6163 -0.3725 -0.2453
 7837TIP3    H245003   2.662   4.444   4.416 -0.2162  0.1966 -0.4521
 7838TIP3   OH245004   4.156   4.084  14.575 -0.6516 -0.4909 -0.1094
 7838TIP3    H145005   4.168   4.043  14.660  0.6434  0.9954  0.4697
 7838TIP3    H245006   4.173   4.014  14.512 -1.0509 -1.4598  0.8313
 7839TIP3   OH245007   1.059   2.425  11.557  0.1649  0.0939  0.1296
 7839TIP3    H145008   1.004   2.436  11.479  1.0880 -1.7823 -0.8434
 7839TIP3    H245009   1.038   2.338  11.589  2.8690 -0.9410 -0.6013
 7840TIP3   OH245010   3.599   5.058  12.171  0.5109  0.1241 -0.5921
 7840TIP3    H145011   3.672   5.019  12.123  0.3428  0.6324 -1.2797
 7840TIP3    H245012   3.582   5.141  12.125 -1.3613 -0.6017 -1.2841
 7841TIP3   OH245013   5.429   2.524   3.218 -0.2968 -0.1583  0.1910
 7841TIP3    H145014   5.492   2.540   3.148  0.5924  0.9403  1.2109
 7841TIP3    H245015   5.389   2.609   3.235 -0.4709 -0.4046  1.0487
 7842TIP3   OH245016   5.517   6.117  13.740  0.2138 -0.1914 -0.0884
 7842TIP3    H145017   5.476   6.176  13.803 -1.2859 -1.5902  0.2998
 7842TIP3    H245018   5.516   6.166  13.658 -0.0241  0.7285  0.4510
 7843TIP3   OH245019   2.238   6.131  11.911  0.4720 -0.2755 -0.2465
 7843TIP3    H145020   2.150   6.137  11.873  0.9961 -1.9706 -1.8713
 7843TIP3    H245021   2.254   6.218  11.947 -1.6269  0.2578 -0.4433
 7844TIP3   OH245022   2.090   1.969  12.245  0.2743  0.2843  0.5826
 7844TIP3    H145023   2.013   1.986  12.299  0.6036  0.3564  1.0420
 7844TIP3    H245024   2.148   2.044  12.262  0.2834  0.4248 -0.0565
 7845TIP3   OH245025   2.472   2.164   5.419 -1.0057  0.2325  0.2073
 7845TIP3    H145026   2.474   2.163   5.323  0.4265 -0.3192  0.2173
 7845TIP3    H245027   2.475   2.257   5.441  1.4083  0.3306 -0.3015
 7846TIP3   OH245028   1.326   3.323  10.554  0.3553  0.6504  0.0689
 7846TIP3    H145029   1.315   3.264  10.629  0.4804  0.9684  0.3448
 7846TIP3    H245030   1.279   3.280  10.482  1.5243 -0.4160 -0.0877
 7847TIP3   OH245031   4.766   5.355  16.819 -0.1313  0.0062  0.1498
 7847TIP3    H145032   4.708   5.296  16.867  1.0107 -0.4237  1.0797
 7847TIP3    H245033   4.730   5.358  16.731 -2.6097  1.2178  1.1128
 7848TIP3   OH245034   1.103   5.199   2.016  0.3524  0.1418 -0.5064
 7848TIP3    H145035   1.118   5.268   1.952 -0.2959  0.3403 -0.4567
 7848TIP3    H245036   1.170   5.133   1.998 -1.3841 -1.0672 -3.1311
 7849TIP3   OH245037   0.322   1.965   4.333 -0.1720  0.9271  0.2970
 7849TIP3    H145038   0.331   1.871   4.316  1.2573  1.2151 -0.7466
 7849TIP3    H245039   0.332   1.974   4.427 -0.2344  0.0377  0.3920
 7850TIP3   OH245040   6.176   2.899  11.952  0.2241  0.3964 -0.5207
 7850TIP3    H145041   6.181   2.902  11.856 -0.0182  0.2762 -0.5364
 7850TIP3    H245042   6.268   2.893  11.979  0.2442 -0.8746 -0.7969
 7851TIP3   OH245043   2.741   1.069  15.202 -0.2981 -0.6048  0.6938
 7851TIP3    H145044   2.811   1.133  15.217 -0.8811  0.1958  0.0712
 7851TIP3    H245045   2.664   1.108  15.244 -0.9704 -0.2744 -0.7867
 7852TIP3   OH245046   5.212   2.141   6.190  0.3338 -0.7986 -0.0958
 7852TIP3    H145047   5.198   2.227   6.230  1.8526 -1.1372  1.2357
 7852TIP3    H245048   5.149   2.084   6.234  0.2598 -0.6538 -0.0128
 7853TIP3   OH245049   0.276   6.604   3.876 -0.0532 -0.3235 -0.1365
 7853TIP3    H145050   0.278   6.564   3.963  0.4597  0.3842  0.1901
 7853TIP3    H245051   0.189   6.642   3.869  0.4871  1.1756  0.8101
 7854TIP3   OH245052   5.269   3.843  13.840 -0.1745  0.4679 -0.0283
 7854TIP3    H145053   5.234   3.829  13.928  0.6087 -1.6763  0.0067
 7854TIP3    H245054   5.262   3.757  13.798  1.6921  0.8444 -1.2108
 7855TIP3   OH245055   4.322   5.043   3.422  0.0172 -0.2610 -0.3914
 7855TIP3    H145056   4.352   5.052   3.512 -0.0077 -0.6290 -0.3451
 7855TIP3    H245057   4.310   5.133   3.392 -0.5785 -0.1396  0.1761
 7856TIP3   OH245058   4.472   1.218   5.591 -0.3879 -0.6558  0.4954
 7856TIP3    H145059   4.406   1.149   5.593 -1.4263  0.3045  0.9435
 7856TIP3    H245060   4.439   1.284   5.652  0.0982  0.6338 -0.5701
 7857TIP3   OH245061   0.235   5.959   5.033 -0.3519  0.0115  0.2868
 7857TIP3    H145062   0.250   6.020   5.105 -0.5934 -1.5018  1.6530
 7857TIP3    H245063   0.140   5.950   5.028 -0.3262 -0.0930 -0.0840
 7858TIP3   OH245064   1.643   0.155   2.111 -0.6411 -0.2404  0.5009
 7858TIP3    H145065   1.671   0.243   2.088  0.5595 -0.1401  2.1597
 7858TIP3    H245066   1.551   0.152   2.084  0.0328  0.5121 -2.1783
 7859TIP3   OH245067   6.026   1.266   6.177 -0.6671  0.0178  0.2388
 7859TIP3    H145068   6.018   1.171   6.171 -1.2980  0.1033 -0.3957
 7859TIP3    H245069   5.939   1.299   6.154 -0.2794  0.7755 -0.1880
 7860TIP3   OH245070   0.881   2.134   0.185  0.2410  0.7387 -0.2363
 7860TIP3    H145071   0.844   2.138   0.273  0.3521 -0.0264 -0.1437
 7860TIP3    H245072   0.866   2.221   0.148  1.3700  1.5172  1.0067
 7861TIP3   OH245073   6.781   2.907  16.657 -0.3014 -0.1679  0.1285
 7861TIP3    H145074   6.757   2.922  16.749 -0.6532 -1.6268  0.2967
 7861TIP3    H245075   6.748   2.820  16.638  1.0469 -0.4705 -0.9616
 7862TIP3   OH245076   0.073   3.380  12.657  0.3755 -0.1534  0.4551
 7862TIP3    H145077   0.061   3.412  12.746  0.0779 -1.1995  0.7998
 7862TIP3    H245078   0.128   3.302  12.667  0.9589  0.1336 -0.3539
 7863TIP3   OH245079   5.436   0.096   5.628 -0.2044 -0.1321 -0.1796
 7863TIP3    H145080   5.342   0.110   5.632 -0.2697 -0.6120  0.0069
 7863TIP3    H245081   5.468   0.123   5.714 -0.1160  0.4169 -0.3815
 7864TIP3   OH245082   0.808   3.578  12.370 -0.5292  0.1831 -0.1385
 7864TIP3    H145083   0.842   3.555  12.457 -1.4009  0.7334  0.3663
 7864TIP3    H245084   0.866   3.533  12.309  0.0766 -0.2488  0.7310
 7865TIP3   OH245085   6.347   5.390   5.889 -0.1981  0.2460 -0.2919
 7865TIP3    H145086   6.367   5.371   5.798  0.1313  0.2674 -0.2256
 7865TIP3    H245087   6.425   5.435   5.922 -0.1621 -0.0981  0.1028
 7866TIP3   OH245088   5.688   4.785   1.126  0.2122 -0.0411  0.1491
 7866TIP3    H145089   5.681   4.690   1.138  0.5152 -0.2452 -1.1516
 7866TIP3    H245090   5.612   4.820   1.173  0.2487 -0.9029  0.8738
 7867TIP3   OH245091   4.663   3.142  14.963  0.4763  0.5344 -0.1596
 7867TIP3    H145092   4.745   3.189  14.983  0.6902  0.4351 -0.8023
 7867TIP3    H245093   4.639   3.172  14.876  0.1460  0.1017 -0.2164
 7868TIP3   OH245094   1.453   5.148   2.115 -0.1605  0.4372 -0.5586
 7868TIP3    H145095   1.398   5.106   2.049 -0.3195 -0.2125 -0.0210
 7868TIP3    H245096   1.392   5.185   2.178 -0.0030  0.7907 -0.6112
 7869TIP3   OH245097   6.393   3.160  16.490 -0.7345 -0.1803  0.3382
 7869TIP3    H145098   6.385   3.255  16.496  1.6813 -0.0141  1.9275
 7869TIP3    H245099   6.482   3.145  16.459 -0.5529 -1.9453  1.5660
 7870TIP3   OH245100   4.857   4.060   3.560  0.1638 -0.2208  0.4667
 7870TIP3    H145101   4.857   4.154   3.539 -0.6211  0.1285  1.8581
 7870TIP3    H245102   4.786   4.025   3.507  1.4747 -0.3712 -1.2745
 7871TIP3   OH245103   3.916   4.851  12.856  0.4509  0.4997  0.0756
 7871TIP3    H145104   3.929   4.906  12.933 -1.2714  1.2288 -0.1101
 7871TIP3    H245105   3.932   4.762  12.887 -2.3724  0.5064  1.9523
 7872TIP3   OH245106   3.335   1.974   0.106 -0.1818  0.6621  0.1280
 7872TIP3    H145107   3.400   2.034   0.142  0.8994 -1.5113  2.1170
 7872TIP3    H245108   3.332   1.994   0.013  0.8740  3.0393  0.5387
 7873TIP3   OH245109   6.174   0.959   3.204 -0.1205 -0.3867  0.4099
 7873TIP3    H145110   6.148   1.004   3.285 -1.4124 -2.3400  1.1510
 7873TIP3    H245111   6.098   0.908   3.179  0.8357 -1.1284 -1.1289
 7874TIP3   OH245112   2.877   6.204   5.168  0.2967 -0.1535 -0.4217
 7874TIP3    H145113   2.960   6.181   5.210  1.0566  1.9341 -0.6600
 7874TIP3    H245114   2.846   6.281   5.215  0.8946  1.9296 -3.2066
 7875TIP3   OH245115   3.086   1.324  16.051 -0.4835  0.0136  0.3854
 7875TIP3    H145116   3.018   1.391  16.060  0.8664  1.4523  0.2949
 7875TIP3    H245117   3.119   1.335  15.962 -1.8959 -2.4713 -0.5244
 7876TIP3   OH245118   0.601   5.414   1.441  0.2009 -0.7892  0.6646
 7876TIP3    H145119   0.574   5.463   1.518 -2.3114 -1.7120  0.4829
 7876TIP3    H245120   0.647   5.338   1.476  0.3528 -0.4723  1.1623
 7877TIP3   OH245121   5.490   3.783  12.873 -0.0178 -0.8112 -0.2844
 7877TIP3    H145122   5.534   3.700  12.890  0.8955 -0.4487 -0.7779
 7877TIP3    H245123   5.399   3.768  12.897  0.2178 -1.8310  0.0041
 7878TIP3   OH245124   2.369   0.518  13.826  0.0085 -0.2430 -0.2934
 7878TIP3    H145125   2.444   0.522  13.766  1.8473 -1.0675  1.8251
 7878TIP3    H245126   2.322   0.439  13.799  0.4633 -0.2752 -1.0199
 7879TIP3   OH245127   3.979   6.674  11.457 -1.1556  0.5381  0.3715
 7879TIP3    H145128   4.071   6.702  11.462 -0.8025 -0.7349  1.8212
 7879TIP3    H245129   3.930   6.756  11.454 -0.0188  1.2850  1.2107
 7880TIP3   OH245130   6.133   4.940   0.184 -0.6949 -0.0264  0.6133
 7880TIP3    H145131   6.178   4.861   0.155 -0.0575  0.2326  0.8918
 7880TIP3    H245132   6.160   5.007   0.122 -2.8571 -0.4466 -0.9030
 7881TIP3   OH245133   2.556   2.079  12.538 -0.8711 -0.0375  0.0181
 7881TIP3    H145134   2.495   2.144  12.503 -0.0360  1.9249  1.9876
 7881TIP3    H245135   2.521   2.058  12.625  0.2277 -0.3436  0.4002
 7882TIP3   OH245136   4.820   6.242  16.252  0.5800 -0.2690  0.4993
 7882TIP3    H145137   4.897   6.204  16.294  1.2853  1.5931  1.0092
 7882TIP3    H245138   4.856   6.294  16.180 -0.0875  1.3458  1.2838
 7883TIP3   OH245139   5.399   1.573   2.396 -0.7318 -0.3206  0.4075
 7883TIP3    H145140   5.484   1.537   2.369 -0.7155 -0.6603  0.8977
 7883TIP3    H245141   5.369   1.623   2.320  0.2942  0.5126  0.5306
 7884TIP3   OH245142   4.334   0.081  17.175 -0.2529  0.4859 -0.1669
 7884TIP3    H145143   4.393   0.025  17.123 -1.0637  0.0761 -0.6744
 7884TIP3    H245144   4.328   0.162  17.125 -1.0367  0.0894 -0.7458
 7885TIP3   OH245145   0.303   2.998  15.485 -0.4555 -0.4031 -0.0565
 7885TIP3    H145146   0.300   2.946  15.566  0.9641  0.3716  0.5227
 7885TIP3    H245147   0.266   2.940  15.418 -1.6079 -1.0899  1.1178
 7886TIP3   OH245148   0.283   5.675  11.199 -0.3578  0.5284  0.2827
 7886TIP3    H145149   0.342   5.636  11.264  0.1943  1.2667  0.2376
 7886TIP3    H245150   0.258   5.759  11.237 -2.8183 -0.4962  1.1192
 7887TIP3   OH245151   4.887   0.626   1.072  0.3524 -0.0114  0.5338
 7887TIP3    H145152   4.830   0.658   1.002  1.2314  2.3940  0.8286
 7887TIP3    H245153   4.976   0.645   1.043  1.0552 -2.8037  0.5246
 7888TIP3   OH245154   5.827   2.150  16.107  0.2171 -0.1301 -0.5788
 7888TIP3    H145155   5.734   2.151  16.083 -0.1690 -0.6223  0.8305
 7888TIP3    H245156   5.848   2.058  16.121  0.0840  0.1656  2.0633
 7889TIP3   OH245157   5.913   2.921  14.039 -0.5820 -0.1690  0.3091
 7889TIP3    H145158   5.910   2.893  13.948  0.5331  0.2324  0.1310
 7889TIP3    H245159   5.878   3.010  14.038 -0.0471  0.0445  0.1734
 7890TIP3   OH245160   6.438   3.288  16.139 -0.8515 -0.3147  0.0535
 7890TIP3    H145161   6.418   3.271  16.047 -2.2263  0.2470  0.2285
 7890TIP3    H245162   6.534   3.289  16.143 -0.7415  1.1165 -1.6601
 7891TIP3   OH245163   3.927   3.337  11.656  0.3165 -0.2560 -0.9513
 7891TIP3    H145164   3.964   3.333  11.568  3.0654 -0.7257  0.1140
 7891TIP3    H245165   3.981   3.276  11.707  0.9672  2.3182  1.7327
 7892TIP3   OH245166   6.499   0.258  13.326 -0.4412  0.4705 -0.5535
 7892TIP3    H145167   6.449   0.319  13.272 -1.8999 -0.7442 -0.6388
 7892TIP3    H245168   6.585   0.299  13.336 -0.6600  1.4823 -2.4378
 7893TIP3   OH245169   6.072   0.483  12.324 -0.2617  0.0555 -0.0226
 7893TIP3    H145170   6.100   0.457  12.237 -0.6213  0.0124 -0.1260
 7893TIP3    H245171   5.994   0.537  12.309  0.9881  1.9984  0.1094
 7894TIP3   OH245172   2.525   6.750  13.176  0.3852 -0.2952  0.1246
 7894TIP3    H145173   2.573   6.690  13.118  0.7780  0.3527 -0.2354
 7894TIP3    H245174   2.439   6.759  13.135 -0.7896 -2.9042  1.7297
 7895TIP3   OH245175   1.690   2.611   5.157 -0.1839 -0.7441  0.3233
 7895TIP3    H145176   1.751   2.651   5.094  2.1937 -1.6751  1.8917
 7895TIP3    H245177   1.709   2.518   5.152  0.3499 -0.8032  2.6562
 7896TIP3   OH245178   1.291   3.668  13.780  0.0497  0.1589 -0.5940
 7896TIP3    H145179   1.206   3.625  13.784  0.8823 -1.6437 -1.1004
 7896TIP3    H245180   1.274   3.759  13.803 -2.1605  0.0626 -1.6485
 7897TIP3   OH245181   2.606   3.697   4.332  0.4628 -0.3983 -0.5822
 7897TIP3    H145182   2.668   3.717   4.402  0.1279  0.8640 -0.6223
 7897TIP3    H245183   2.594   3.603   4.337  0.2172 -0.2958  1.2644
 7898TIP3   OH245184   0.993   0.013   3.532  0.1363  0.0967  0.1997
 7898TIP3    H145185   1.039   0.092   3.503  0.8096 -1.1129 -2.3112
 7898TIP3    H245186   1.055  -0.058   3.516 -1.0389 -1.1254  0.8786
 7899TIP3   OH245187   5.592   5.299  17.085 -0.2745 -0.9879  0.5786
 7899TIP3    H145188   5.631   5.317  17.171  2.0503 -2.5083 -0.0606
 7899TIP3    H245189   5.651   5.236  17.045 -1.6413 -0.8043 -1.9159
 7900TIP3   OH245190   3.634   4.948   2.159 -0.5598  0.3960 -0.5508
 7900TIP3    H145191   3.687   4.897   2.097 -1.2330 -1.3175  0.2224
 7900TIP3    H245192   3.699   4.995   2.212  0.3756 -2.6101  1.1954
 7901TIP3   OH245193   4.816   3.054  14.626  0.0516  0.1672  0.1030
 7901TIP3    H145194   4.743   3.091  14.677 -2.3138 -3.0819 -0.5689
 7901TIP3    H245195   4.889   3.050  14.688 -1.0801  1.2675  1.5829
 7902TIP3   OH245196   3.789   4.773   5.917 -0.3384 -0.3518 -0.4834
 7902TIP3    H145197   3.721   4.777   5.983 -1.0592 -0.5626 -1.2014
 7902TIP3    H245198   3.856   4.716   5.955  0.6070  1.8129  1.2534
 7903TIP3   OH245199   3.320   6.292   4.665 -0.4105 -0.0071  0.4614
 7903TIP3    H145200   3.318   6.218   4.726 -0.7317 -1.7703 -1.5830
 7903TIP3    H245201   3.236   6.337   4.680 -0.9646 -1.0465  0.6083
 7904TIP3   OH245202   3.473   1.150  13.472  0.3890 -0.5872 -0.1954
 7904TIP3    H145203   3.510   1.139  13.559 -0.2181 -1.0604  0.0135
 7904TIP3    H245204   3.549   1.159  13.414  0.7869  0.6892  0.4884
 7905TIP3   OH245205   4.141   4.929   4.767 -0.4623  0.9076  0.8664
 7905TIP3    H145206   4.183   4.969   4.691  0.2998  0.3705  0.9872
 7905TIP3    H245207   4.061   4.889   4.732  1.3019 -1.9497 -0.3403
 7906TIP3   OH245208   2.887   5.215   2.359 -0.6095  1.0048  0.2108
 7906TIP3    H145209   2.850   5.268   2.288 -2.2342  1.8570  1.6144
 7906TIP3    H245210   2.840   5.244   2.437  0.2181 -0.8042  1.4456
 7907TIP3   OH245211   4.594   2.623   4.471  0.0792  0.2296  0.0337
 7907TIP3    H145212   4.511   2.644   4.513 -0.4933 -1.1955 -0.3407
 7907TIP3    H245213   4.587   2.661   4.384  0.7018  1.9521  0.6888
 7908TIP3   OH245214   6.530   2.669  16.934  0.1573 -0.6696 -0.1345
 7908TIP3    H145215   6.572   2.584  16.920 -2.0585 -1.7039 -0.9661
 7908TIP3    H245216   6.513   2.702  16.846 -1.9289 -0.9549  0.1054
 7909TIP3   OH245217   4.378   5.438  16.364 -0.3509  0.4734 -0.0586
 7909TIP3    H145218   4.347   5.431  16.274  1.6496 -1.9130 -0.6738
 7909TIP3    H245219   4.470   5.462  16.356 -0.6301  2.3985  1.4992
 7910TIP3   OH245220   4.371   0.445  14.729 -0.2505  0.1976 -0.3253
 7910TIP3    H145221   4.410   0.499  14.660 -1.3554  0.6510 -0.6236
 7910TIP3    H245222   4.295   0.405  14.687 -0.0770 -0.7167  0.2176
 7911TIP3   OH245223   2.848   5.455  15.169  0.4184  0.5845 -0.8089
 7911TIP3    H145224   2.935   5.481  15.139 -0.0898  0.3615 -2.5793
 7911TIP3    H245225   2.841   5.362  15.145 -1.4598  1.3453 -3.7372
 7912TIP3   OH245226   3.726   3.791   6.212  0.1466 -0.0165 -0.3733
 7912TIP3    H145227   3.795   3.745   6.259 -1.0530 -1.6086 -0.0760
 7912TIP3    H245228   3.657   3.804   6.277  0.5115  2.4727 -0.3859
 7913TIP3   OH245229   0.337   3.795  12.293 -0.2645 -0.3304 -0.3649
 7913TIP3    H145230   0.301   3.811  12.206  0.0651  1.0850 -0.2643
 7913TIP3    H245231   0.335   3.880  12.337 -1.3582 -1.1865  1.3914
 7914TIP3   OH245232   0.335   0.291   1.100  0.1420 -0.2551 -0.8067
 7914TIP3    H145233   0.306   0.200   1.093  1.8293 -0.8651 -0.5427
 7914TIP3    H245234   0.423   0.285   1.138 -0.6902  1.6542  1.6645
 7915TIP3   OH245235   1.282   3.653   2.312  0.5202 -0.1710  0.7249
 7915TIP3    H145236   1.345   3.712   2.272 -0.7715  0.2404 -0.7753
 7915TIP3    H245237   1.201   3.704   2.320 -0.2719 -1.3399  0.5386
 7916TIP3   OH245238   6.801   1.104  16.231  0.4148 -0.7305  0.4471
 7916TIP3    H145239   6.746   1.117  16.308  1.3520 -0.3699  1.0794
 7916TIP3    H245240   6.880   1.062  16.265  0.8691 -0.5143 -0.3102
 7917TIP3   OH245241   6.450   4.938  14.574 -0.4099 -0.2198  0.7056
 7917TIP3    H145242   6.361   4.902  14.563 -0.3073 -0.2834  0.0971
 7917TIP3    H245243   6.450   5.019  14.524  0.0870 -0.5731  0.1178
 7918TIP3   OH245244   3.510   1.507  17.213  0.1960  0.1601  0.0536
 7918TIP3    H145245   3.506   1.525  17.120  1.4764  1.1828  0.1589
 7918TIP3    H245246   3.566   1.576  17.248 -0.0167 -0.3780  1.5331
 7919TIP3   OH245247   6.268   1.539  12.808 -0.1456 -0.9173 -0.6878
 7919TIP3    H145248   6.270   1.622  12.855 -0.3689 -1.7152  0.7892
 7919TIP3    H245249   6.348   1.539  12.756 -0.0420  0.1267 -0.5490
 7920TIP3   OH245250   5.317   5.503   3.841 -0.4020  0.0263 -0.0482
 7920TIP3    H145251   5.367   5.580   3.814 -2.0269  1.3168  0.5095
 7920TIP3    H245252   5.309   5.451   3.761  0.5907  0.4969 -0.4651
 7921TIP3   OH245253   1.832   4.452   4.632  1.1408 -0.0719  0.0722
 7921TIP3    H145254   1.765   4.385   4.636  1.1849 -0.1042  0.2498
 7921TIP3    H245255   1.811   4.513   4.703  1.0706  0.1303 -0.1196
 7922TIP3   OH245256   4.584   6.603  10.752 -0.2880 -0.1072  0.6590
 7922TIP3    H145257   4.497   6.642  10.740  0.2476  0.9237  0.0229
 7922TIP3    H245258   4.636   6.636  10.680  0.4301 -1.3888  0.5496
 7923TIP3   OH245259   6.238   0.586   0.227  0.8413 -0.3185 -0.1791
 7923TIP3    H145260   6.242   0.558   0.136 -1.8269 -0.1031 -0.4323
 7923TIP3    H245261   6.155   0.632   0.235  1.2382  0.1405  2.2509
 7924TIP3   OH245262   4.259   5.297   3.325 -0.0183  0.5250  0.2066
 7924TIP3    H145263   4.241   5.389   3.344  1.8090  1.0092 -0.1302
 7924TIP3    H245264   4.243   5.288   3.231 -1.8680  0.0270  0.5383
 7925TIP3   OH245265   0.340   1.704   3.953 -0.1466 -0.0830 -0.7373
 7925TIP3    H145266   0.391   1.785   3.962 -0.3730 -0.1159  1.0758
 7925TIP3    H245267   0.382   1.658   3.880  2.3760 -0.0505  0.5956
 7926TIP3   OH245268   3.231   6.648  14.291 -0.2168  0.5473  0.4563
 7926TIP3    H145269   3.191   6.566  14.263  1.0259  0.6793 -2.0368
 7926TIP3    H245270   3.325   6.629  14.296  0.0716  1.7194  0.0584
 7927TIP3   OH245271   3.251   1.109   4.210 -0.1155 -0.5024 -0.0555
 7927TIP3    H145272   3.275   1.111   4.303  0.0314  1.5551 -0.1038
 7927TIP3    H245273   3.217   1.196   4.192  0.6220 -0.6002 -2.1454
 7928TIP3   OH245274   3.209   4.362  12.794  0.3905 -0.2092  0.1632
 7928TIP3    H145275   3.232   4.454  12.806  1.4123 -0.6538  2.0613
 7928TIP3    H245276   3.263   4.333  12.721  0.0738  0.6775 -0.4417
 7929TIP3   OH245277   4.971   4.214   4.359  0.0874 -1.1014 -0.0655
 7929TIP3    H145278   4.894   4.200   4.413 -1.5719 -1.5911 -2.3754
 7929TIP3    H245279   4.969   4.142   4.295  0.8888  0.3784 -1.8554
 7930TIP3   OH245280   6.011   6.561  15.584 -0.0575  0.0021  0.7037
 7930TIP3    H145281   6.064   6.599  15.654  0.1389  0.4184  0.3273
 7930TIP3    H245282   6.008   6.628  15.517 -0.6521 -0.2109  0.5130
 7931TIP3   OH245283   2.940   5.292  15.454 -0.7305 -0.1751  0.4589
 7931TIP3    H145284   3.020   5.339  15.430  0.0726 -0.5247  2.2846
 7931TIP3    H245285   2.905   5.340  15.529 -2.3450  0.0575 -0.4065
 7932TIP3   OH245286   5.164   0.039   0.874 -0.0506 -0.0415 -0.5027
 7932TIP3    H145287   5.076   0.073   0.884  0.2729  0.7867 -0.3743
 7932TIP3    H245288   5.206   0.098   0.811  0.9027  0.5643  0.6641
 7933TIP3   OH245289   0.751   1.610  13.616  0.0067 -0.0442  0.2926
 7933TIP3    H145290   0.737   1.704  13.603 -1.9766 -0.0551  1.8295
 7933TIP3    H245291   0.769   1.576  13.529  1.0673  1.7864 -0.2652
 7934TIP3   OH245292   4.029   0.024   3.559  0.1987 -0.5252  0.2700
 7934TIP3    H145293   4.077   0.107   3.563  1.0294 -0.8446 -1.7287
 7934TIP3    H245294   4.097  -0.043   3.555 -0.4443 -1.1809  0.0522
 7935TIP3   OH245295   5.682   3.113   1.297 -0.5891  0.2576  0.2813
 7935TIP3    H145296   5.719   3.029   1.273 -0.2059  0.2177  0.9893
 7935TIP3    H245297   5.742   3.178   1.259 -1.1661  0.2346 -0.7146
 7936TIP3   OH245298   2.276   1.235  10.710  0.0839 -0.2659 -0.3578
 7936TIP3    H145299   2.227   1.277  10.780 -1.6205 -0.7404 -1.1966
 7936TIP3    H245300   2.212   1.225  10.639  1.3475 -1.1500 -1.4230
 7937TIP3   OH245301   3.652   3.712  17.112 -0.3350 -0.1267  0.2365
 7937TIP3    H145302   3.656   3.621  17.143 -0.6575  0.4942  2.2185
 7937TIP3    H245303   3.619   3.761  17.187 -2.0026  1.3742 -1.3802
 7938TIP3   OH245304   4.038   0.696   2.396 -0.3953 -0.4922 -0.6442
 7938TIP3    H145305   4.128   0.710   2.367 -0.0674  1.0645  0.9293
 7938TIP3    H245306   4.047   0.671   2.488 -1.6099  1.2212 -0.0241
 7939TIP3   OH245307   3.458   0.725   2.021  0.6898 -0.2893  0.3384
 7939TIP3    H145308   3.507   0.769   2.091  0.9624  0.8907 -0.5577
 7939TIP3    H245309   3.442   0.794   1.956  1.3429 -1.5601 -1.2405
 7940TIP3   OH245310   4.038   1.087   0.862  0.6798 -0.5069 -0.2760
 7940TIP3    H145311   4.014   1.106   0.953  0.6435  1.2013 -0.6032
 7940TIP3    H245312   4.072   0.998   0.864 -1.9779 -1.5944  0.8979
 7941TIP3   OH245313   3.346   2.587  14.373 -0.0055  0.1041  0.2691
 7941TIP3    H145314   3.364   2.669  14.326 -0.5160  0.1079  0.0734
 7941TIP3    H245315   3.320   2.615  14.461 -1.7794  0.2639 -0.2605
 7942TIP3   OH245316   2.533   1.785   5.464 -0.2470 -0.2541  0.3296
 7942TIP3    H145317   2.508   1.718   5.529  0.8396 -0.2694  0.7521
 7942TIP3    H245318   2.627   1.797   5.477 -0.4049  1.3170  0.2064
 7943TIP3   OH245319   2.465   3.263  11.991 -0.4322 -0.3451 -0.4886
 7943TIP3    H145320   2.480   3.170  11.972  0.0012 -0.5019  0.5758
 7943TIP3    H245321   2.373   3.278  11.967 -0.0780 -0.6403 -2.1711
 7944TIP3   OH245322   5.431   4.425   5.451  0.1428 -0.0604  0.2085
 7944TIP3    H145323   5.353   4.480   5.440 -0.8310 -1.5305 -0.4780
 7944TIP3    H245324   5.412   4.346   5.400  2.4235 -0.1249 -0.6468
 7945TIP3   OH245325   5.800   0.180  16.380  0.4267  0.1992 -0.1684
 7945TIP3    H145326   5.727   0.144  16.329  0.3913  0.8217 -0.5691
 7945TIP3    H245327   5.760   0.214  16.460  0.4487 -0.5597  0.1722
 7946TIP3   OH245328   4.899   3.188   5.582  0.3661  0.0233  0.9709
 7946TIP3    H145329   4.951   3.268   5.573 -0.3988  0.4882  0.6545
 7946TIP3    H245330   4.840   3.189   5.506  1.3489 -1.5893  0.1167
 7947TIP3   OH245331   5.498   4.534   3.095  0.3102  0.2437  0.7248
 7947TIP3    H145332   5.564   4.476   3.133  1.7362  1.6676  0.5291
 7947TIP3    H245333   5.472   4.592   3.166 -2.3917 -1.5987  1.4060
 7948TIP3   OH245334   1.229   3.137  12.827 -0.0895  0.4181  0.2575
 7948TIP3    H145335   1.284   3.212  12.848  0.2443 -0.6145  3.6996
 7948TIP3    H245336   1.278   3.090  12.759  0.4784  2.3683 -0.7682
 7949TIP3   OH245337   5.177   4.872   5.040 -0.3464 -0.5066 -0.1014
 7949TIP3    H145338   5.151   4.914   5.122  1.6095  1.3703 -0.3560
 7949TIP3    H245339   5.265   4.840   5.056  0.1200  0.0009 -1.4799
 7950TIP3   OH245340   1.432   0.533  13.815  0.0879 -0.1224  0.3518
 7950TIP3    H145341   1.439   0.458  13.755 -0.2640  0.0388  0.1096
 7950TIP3    H245342   1.380   0.597  13.768  1.6095  0.8692 -0.0228
 7951TIP3   OH245343   4.254   5.130  13.073 -0.0663 -0.0020  0.5333
 7951TIP3    H145344   4.212   5.051  13.106 -1.1654  0.1595 -0.4105
 7951TIP3    H245345   4.290   5.104  12.988 -0.3682  0.4856  0.2536
 7952TIP3   OH245346   2.680   0.826   4.948 -0.1071 -0.3042 -0.4290
 7952TIP3    H145347   2.761   0.842   4.996 -0.5960  0.4564  0.1748
 7952TIP3    H245348   2.701   0.843   4.857  0.9921 -2.2896 -0.6094
 7953TIP3   OH245349   0.710   0.501   5.818 -0.4048 -0.6319 -0.1086
 7953TIP3    H145350   0.795   0.457   5.821  0.4979  0.7727 -2.2611
 7953TIP3    H245351   0.684   0.509   5.910  2.1997 -0.3689  0.7133
 7954TIP3   OH245352   1.690   1.340   5.703 -0.2948 -0.5679  0.5905
 7954TIP3    H145353   1.714   1.431   5.691 -2.5118  0.1686  1.2562
 7954TIP3    H245354   1.594   1.339   5.698 -0.4126 -2.6221  1.9422
 7955TIP3   OH245355   1.613   2.278  11.223  0.5664 -0.1572  0.2121
 7955TIP3    H145356   1.697   2.252  11.184  0.0280 -0.3180 -0.8807
 7955TIP3    H245357   1.548   2.252  11.158 -0.5259 -1.8107  1.8717
 7956TIP3   OH245358   0.506   4.439  15.333 -0.2140  0.5369 -0.1016
 7956TIP3    H145359   0.505   4.345  15.313 -1.6673  0.1942  1.3565
 7956TIP3    H245360   0.597   4.466  15.317  0.0334 -0.9056 -1.3942
 7957TIP3   OH245361   5.383   1.821   4.590 -0.2405  0.1487  0.2987
 7957TIP3    H145362   5.293   1.806   4.619 -0.5924 -0.2637 -0.9151
 7957TIP3    H245363   5.434   1.826   4.670 -1.4692  1.2411  1.0460
 7958TIP3   OH245364   4.819   0.120  10.118  0.4446  0.1377  0.0846
 7958TIP3    H145365   4.907   0.098  10.085  1.2393  0.0823  2.1091
 7958TIP3    H245366   4.777   0.036  10.132  0.0851  0.1629 -0.7695
 7959TIP3   OH245367   5.152   1.392   1.219 -0.1674 -0.0138 -0.1291
 7959TIP3    H145368   5.107   1.469   1.256  0.7269  0.2916  0.3493
 7959TIP3    H245369   5.128   1.394   1.126  0.2367  1.1345 -0.2299
 7960TIP3   OH245370   6.402   2.570   1.150 -0.2416 -0.4858  0.1188
 7960TIP3    H145371   6.314   2.609   1.147 -0.5000 -0.8005  2.0167
 7960TIP3    H245372   6.428   2.561   1.059 -2.2715 -0.5768 -0.4952
 7961TIP3   OH245373   0.992   4.952   2.156  0.3318  0.1640  0.0836
 7961TIP3    H145374   0.989   4.857   2.167  0.3782  0.2220  0.6156
 7961TIP3    H245375   0.901   4.976   2.137  0.0570  0.1624  1.2836
 7962TIP3   OH245376   1.796   6.541   5.350  0.0375  0.0759 -0.3595
 7962TIP3    H145377   1.872   6.560   5.294 -1.0570  1.5168 -1.4436
 7962TIP3    H245378   1.767   6.627   5.380 -0.1407 -0.5872  1.4930
 7963TIP3   OH245379   6.645   0.922  14.128 -0.1774 -0.8057 -0.5161
 7963TIP3    H145380   6.566   0.912  14.181  1.3028 -0.1149  1.9962
 7963TIP3    H245381   6.654   1.016  14.115  1.0291 -0.7348  0.6160
 7964TIP3   OH245382   4.019   6.363  14.824 -0.4227 -0.0982  0.1816
 7964TIP3    H145383   3.984   6.408  14.747  0.0335 -0.0362  0.0119
 7964TIP3    H245384   3.967   6.398  14.897  0.1914  1.0145  0.1095
 7965TIP3   OH245385   6.621   3.727   5.996 -0.2077  0.6270 -0.1164
 7965TIP3    H145386   6.658   3.702   5.912  1.0158 -0.5345  0.7285
 7965TIP3    H245387   6.619   3.823   5.994  1.7655  0.6947 -0.6774
 7966TIP3   OH245388   4.638   0.710  12.032 -0.1939 -0.0950 -0.1215
 7966TIP3    H145389   4.699   0.657  12.083 -0.2522 -0.6057 -0.5657
 7966TIP3    H245390   4.572   0.739  12.095 -1.1471 -2.0140 -0.1583
 7967TIP3   OH245391   0.354   3.120   2.647  0.0350  0.1511  0.1112
 7967TIP3    H145392   0.315   3.035   2.666 -0.7103  0.2822 -0.7495
 7967TIP3    H245393   0.362   3.122   2.551 -0.9888  1.4605  0.0154
 7968TIP3   OH245394   4.323   0.421  15.832  0.3433 -0.1071 -0.3113
 7968TIP3    H145395   4.257   0.397  15.767 -1.3304  1.3517  0.7701
 7968TIP3    H245396   4.356   0.337  15.865 -1.5387 -0.8898 -0.3419
 7969TIP3   OH245397   0.628   5.954  15.567  0.0495  0.3707  0.2500
 7969TIP3    H145398   0.630   5.875  15.620 -1.9455  0.7645  0.9754
 7969TIP3    H245399   0.639   6.026  15.630  1.2316  0.7252 -0.3254
 7970TIP3   OH245400   2.403   3.800  12.131  0.7137 -0.0314  0.2971
 7970TIP3    H145401   2.450   3.800  12.215  0.7779 -2.0841  0.3080
 7970TIP3    H245402   2.351   3.720  12.133 -0.4755  0.6797 -0.9960
 7971TIP3   OH245403   1.107   3.986  11.966 -0.5675 -0.4041 -0.1089
 7971TIP3    H145404   1.078   4.065  11.920 -2.5966 -0.1228  1.4935
 7971TIP3    H245405   1.027   3.934  11.977  0.0717 -1.0510  1.9302
 7972TIP3   OH245406   1.946   1.848  16.587  0.3541  0.9556  0.4771
 7972TIP3    H145407   1.961   1.922  16.645  1.1319  1.5978 -0.5096
 7972TIP3    H245408   1.968   1.881  16.499 -0.8355  0.0360 -0.2002
 7973TIP3   OH245409   0.855   4.417   2.407  0.8622 -0.5551 -0.3615
 7973TIP3    H145410   0.775   4.364   2.407  1.3242 -1.3115  1.1481
 7973TIP3    H245411   0.824   4.508   2.406  0.0601 -0.7650 -3.7288
 7974TIP3   OH245412   2.027   5.713  16.237  0.7437  0.5604 -0.2745
 7974TIP3    H145413   2.079   5.640  16.202  0.1805  0.7390 -1.5098
 7974TIP3    H245414   2.023   5.695  16.331  0.6332 -1.0014 -0.5415
 7975TIP3   OH245415   1.700   5.592  13.324  0.4532  0.4838 -0.1159
 7975TIP3    H145416   1.753   5.616  13.248  0.9683 -0.3880 -0.0333
 7975TIP3    H245417   1.717   5.661  13.388 -0.1411  1.3395 -0.8458
 7976TIP3   OH245418   0.006   5.106  15.367  0.6323  0.4965  0.3594
 7976TIP3    H145419   0.004   5.161  15.445 -0.2827 -0.0780  0.7594
 7976TIP3    H245420   0.075   5.041  15.385  0.4617  0.3998  0.6665
 7977TIP3   OH245421   3.793   1.800  13.897  0.4996  0.5060  1.1161
 7977TIP3    H145422   3.881   1.837  13.910  0.1748  1.4409  0.7933
 7977TIP3    H245423   3.761   1.782  13.985  0.7809  0.7402  1.2684
 7978TIP3   OH245424   4.933   6.146   4.464  0.1127 -0.1086 -0.3272
 7978TIP3    H145425   4.940   6.061   4.506  0.6797  0.2074  0.2425
 7978TIP3    H245426   5.023   6.171   4.444  0.3783  1.9321  2.7567
 7979TIP3   OH245427   4.430   3.773   5.743 -0.5495  0.5751 -0.2279
 7979TIP3    H145428   4.484   3.750   5.818 -0.2428  0.5607 -0.4523
 7979TIP3    H245429   4.491   3.811   5.679 -0.5174 -0.9017 -1.1206
 7980TIP3   OH245430   4.808   6.720   2.679  0.3741  0.4321 -0.2914
 7980TIP3    H145431   4.805   6.658   2.752  0.0673  0.4751 -0.2640
 7980TIP3    H245432   4.842   6.801   2.717 -0.4518  0.6695 -0.0294
 7981TIP3   OH245433   5.137   5.704   2.019 -0.0536  0.0583  0.4083
 7981TIP3    H145434   5.118   5.711   2.112 -2.5002  1.2072 -0.0674
 7981TIP3    H245435   5.204   5.637   2.012 -1.0161 -1.2788  2.8666
 7982TIP3   OH245436   2.927   1.967   5.247 -0.5294  0.6161 -0.1198
 7982TIP3    H145437   2.895   2.047   5.205 -0.9188  0.0099 -0.9882
 7982TIP3    H245438   2.880   1.896   5.204 -0.7698 -0.0486  1.1817
 7983TIP3   OH245439   4.974   3.321   3.287 -0.6533  0.5977 -0.4480
 7983TIP3    H145440   5.027   3.287   3.359 -1.1348 -0.2805 -0.4945
 7983TIP3    H245441   4.898   3.263   3.283 -0.0933 -0.0782 -2.3767
 7984TIP3   OH245442   0.902   0.609   5.243  0.1915  0.4292 -0.5979
 7984TIP3    H145443   0.836   0.575   5.182 -0.6095  0.2630  0.3402
 7984TIP3    H245444   0.852   0.662   5.305  0.6036 -1.3690  1.3837
 7985TIP3   OH245445   1.545   3.133   4.439 -0.1307 -0.0894  0.5312
 7985TIP3    H145446   1.483   3.136   4.511 -0.3808 -0.0163  0.3137
 7985TIP3    H245447   1.535   3.046   4.401 -1.8994  0.7521 -1.0696
 7986TIP3   OH245448   1.270   1.486   5.228  0.0700 -0.0895  0.1282
 7986TIP3    H145449   1.271   1.526   5.315 -2.8621 -0.6384  0.5206
 7986TIP3    H245450   1.247   1.557   5.169 -1.4211 -0.3538  0.3351
 7987TIP3   OH245451   1.349   5.092   0.081  0.1338 -0.3581 -0.4013
 7987TIP3    H145452   1.308   5.008   0.060 -0.1135 -0.3896  0.2004
 7987TIP3    H245453   1.332   5.104   0.174 -0.3523  0.6468 -0.6135
 7988TIP3   OH245454   0.529   5.109  14.344 -0.2312 -0.1239  0.3440
 7988TIP3    H145455   0.440   5.087  14.372 -0.9890 -0.4266 -2.0767
 7988TIP3    H245456   0.555   5.037  14.287  1.1523  0.4822  0.1611
 7989TIP3   OH245457   4.720   1.442   5.837 -0.0499  0.4754  0.0878
 7989TIP3    H145458   4.715   1.375   5.769 -1.9255  0.5782  0.0734
 7989TIP3    H245459   4.677   1.402   5.913  0.0121  1.1778  0.5038
 7990TIP3   OH245460   1.329   4.704   1.699  0.6484  0.5937 -0.4039
 7990TIP3    H145461   1.294   4.761   1.632 -1.1226  0.1159  0.0603
 7990TIP3    H245462   1.319   4.753   1.781  1.2884  0.5255 -0.2740
 7991TIP3   OH245463   4.977   0.515  15.004 -0.0076 -0.2762  0.4929
 7991TIP3    H145464   4.927   0.544  15.080 -1.9466 -0.5574 -0.6092
 7991TIP3    H245465   4.916   0.524  14.931  1.6563 -0.4106 -0.9786
 7992TIP3   OH245466   0.117   1.451  11.069  0.1397  0.1302  0.6432
 7992TIP3    H145467   0.141   1.480  10.981  1.5760  0.2742  1.0672
 7992TIP3    H245468   0.126   1.529  11.123 -1.4040  0.2124  0.8227
 7993TIP3   OH245469   2.559   2.071  16.360 -0.5070  0.3401  0.4363
 7993TIP3    H145470   2.495   2.142  16.358  0.8845  1.6544  0.6038
 7993TIP3    H245471   2.610   2.087  16.439  1.3703  0.6107 -0.7530
 7994TIP3   OH245472   3.787   2.643   3.354  0.8477 -0.3188  0.0282
 7994TIP3    H145473   3.771   2.550   3.337  0.4626  0.0886 -1.9714
 7994TIP3    H245474   3.843   2.671   3.282 -1.7809  1.7653 -1.3668
 7995TIP3   OH245475   2.366   5.334  13.034 -0.3123 -0.2878 -0.1471
 7995TIP3    H145476   2.286   5.282  13.048 -0.7431 -0.3205 -2.3919
 7995TIP3    H245477   2.429   5.272  12.997 -0.3661  0.4507 -1.5208
 7996TIP3   OH245478   5.467   5.468   4.596 -0.7611  0.3834  0.3557
 7996TIP3    H145479   5.510   5.383   4.605 -1.0184  0.4378  2.5479
 7996TIP3    H245480   5.390   5.462   4.653 -1.5940  1.5873 -0.6001
 7997TIP3   OH245481   5.151   1.787  12.300  0.1263  0.3684  0.4825
 7997TIP3    H145482   5.139   1.835  12.382 -0.0706 -1.4347  1.5712
 7997TIP3    H245483   5.235   1.742  12.311  0.1410  0.1696 -0.3565
 7998TIP3   OH245484   2.834   0.343  15.231  0.2737 -0.1249 -0.1746
 7998TIP3    H145485   2.843   0.310  15.320  2.1640  3.5947  1.1927
 7998TIP3    H245486   2.923   0.341  15.195  0.0972  1.4412 -0.7636
 7999TIP3   OH245487   1.317   2.851   1.167  0.2749  0.3173 -0.2529
 7999TIP3    H145488   1.384   2.842   1.236  2.0397 -0.4763 -1.9820
 7999TIP3    H245489   1.366   2.882   1.091 -0.7949 -2.6749 -2.3170
 8000TIP3   OH245490   6.192   1.102   1.285  0.6555  0.1473 -0.3367
 8000TIP3    H145491   6.099   1.099   1.263  0.7879 -0.1254 -0.8724
 8000TIP3    H245492   6.200   1.174   1.347 -0.1711 -0.8230  0.9536
 8001TIP3   OH245493   2.158   0.128   0.040 -0.5701  0.4461 -0.1759
 8001TIP3    H145494   2.142   0.162   0.128 -0.7465 -1.7517  0.6947
 8001TIP3    H245495   2.252   0.143   0.026  0.7426 -3.5050  2.5262
 8002TIP3   OH245496   1.567   2.270  10.819  0.1667  0.3673  0.1886
 8002TIP3    H145497   1.653   2.230  10.831  0.3459  0.4358 -0.7788
 8002TIP3    H245498   1.585   2.364  10.818  0.1272  0.3736 -0.2903
 8003TIP3   OH245499   2.278   3.303  15.410  0.4971  0.2409  0.5011
 8003TIP3    H145500   2.311   3.253  15.336 -3.2292 -0.3915 -0.9599
 8003TIP3    H245501   2.273   3.239  15.481 -0.4772 -0.4809 -0.1890
 8004TIP3   OH245502   2.702   3.249  13.479 -0.4441  1.1556 -0.0445
 8004TIP3    H145503   2.740   3.238  13.392  1.6920 -2.2489  1.1383
 8004TIP3    H245504   2.747   3.326  13.515  1.3492  0.4681 -0.7009
 8005TIP3   OH245505   5.560   5.567  14.910 -0.2017 -0.3254 -0.5431
 8005TIP3    H145506   5.500   5.634  14.941 -0.1371 -0.9816  1.0759
 8005TIP3    H245507   5.607   5.609  14.837 -1.4948  0.7087 -0.8208
 8006TIP3   OH245508   3.234   3.385   0.243 -0.1573  0.0254 -0.0931
 8006TIP3    H145509   3.257   3.464   0.193  0.1466 -0.0048 -0.0013
 8006TIP3    H245510   3.250   3.409   0.334 -1.5740  0.3791  0.0747
 8007TIP3   OH245511   1.164   2.204   4.842  0.5625  0.4131  0.0264
 8007TIP3    H145512   1.131   2.262   4.774  1.4359  1.2847  0.3177
 8007TIP3    H245513   1.086   2.177   4.890  0.1133  1.2195 -0.2222
 8008TIP3   OH245514   3.112   3.570   3.541  0.1968  0.4068 -0.2163
 8008TIP3    H145515   3.120   3.662   3.563  0.0162  0.7162 -1.3975
 8008TIP3    H245516   3.200   3.543   3.517 -0.0263  0.6845 -1.3896
 8009TIP3   OH245517   4.137   5.818   6.233  0.4674  0.1342  0.3413
 8009TIP3    H145518   4.090   5.744   6.195  0.7367  0.6904 -1.1069
 8009TIP3    H245519   4.070   5.869   6.277  0.1024 -0.3406  0.3464
 8010TIP3   OH245520   0.067   2.162  14.274  0.6944 -0.0915  0.4310
 8010TIP3    H145521   0.068   2.169  14.369  0.1499  1.4010  0.3634
 8010TIP3    H245522   0.158   2.173  14.248  0.9959 -1.5512  0.8204
 8011TIP3   OH245523   6.575   4.551   0.389  0.1932  0.3997 -0.5957
 8011TIP3    H145524   6.556   4.472   0.338  0.5894  0.0947 -0.2776
 8011TIP3    H245525   6.578   4.621   0.324 -0.9113  0.2816 -0.7865
 8012TIP3   OH245526   3.634   5.929  14.756 -0.3541  0.1938 -0.6108
 8012TIP3    H145527   3.545   5.893  14.755 -0.5129  0.5891 -1.3171
 8012TIP3    H245528   3.651   5.955  14.666  1.2179 -1.6014 -0.8893
 8013TIP3   OH245529   0.714   3.866   4.853 -0.3084 -0.3357  0.1393
 8013TIP3    H145530   0.743   3.831   4.937 -3.2699 -1.4425  0.8269
 8013TIP3    H245531   0.658   3.940   4.876  0.2176  0.4408 -0.9777
 8014TIP3   OH245532   3.427   4.557  12.706 -0.3905 -0.0011 -0.4001
 8014TIP3    H145533   3.410   4.550  12.612 -0.8649 -0.6128 -0.2710
 8014TIP3    H245534   3.347   4.594  12.743  0.2664  1.4951 -0.3965
 8015TIP3   OH245535   0.707   1.723   1.729  0.6393 -0.0916  0.0620
 8015TIP3    H145536   0.747   1.725   1.815  2.4576 -0.5767 -0.7243
 8015TIP3    H245537   0.664   1.638   1.724  1.0057 -0.2939  0.3030
 8016TIP3   OH245538   5.919   3.382  13.767 -0.4190 -0.8761  0.0295
 8016TIP3    H145539   5.845   3.443  13.771 -0.5490 -0.9550 -0.9462
 8016TIP3    H245540   5.889   3.312  13.710  0.1000 -1.3605  0.3378
 8017TIP3   OH245541   4.599   1.619   4.710  1.3344 -0.8664 -0.4745
 8017TIP3    H145542   4.529   1.591   4.770  0.0208  0.5978 -1.2461
 8017TIP3    H245543   4.627   1.538   4.668  0.7875 -1.6276  0.5565
 8018TIP3   OH245544   4.161   6.568   3.529  0.5996  0.2798  0.0678
 8018TIP3    H145545   4.252   6.577   3.499  0.6833 -0.6172  0.0345
 8018TIP3    H245546   4.166   6.591   3.622  0.3149  3.1724 -0.5198
 8019TIP3   OH245547   2.483   1.915  15.204  0.4869  0.0063 -0.3028
 8019TIP3    H145548   2.501   1.905  15.298 -0.3867 -1.9705 -0.3018
 8019TIP3    H245549   2.400   1.962  15.201  1.1374  1.2106 -0.1443
 8020TIP3   OH245550   5.891   4.089   1.376  0.2863  0.4024 -0.0467
 8020TIP3    H145551   5.872   4.064   1.466 -0.9816  0.3046 -0.3226
 8020TIP3    H245552   5.982   4.118   1.378  0.2641  0.4496  1.2652
 8021TIP3   OH245553   0.526   4.482   4.700 -0.0762 -0.5449  0.1858
 8021TIP3    H145554   0.468   4.558   4.700 -0.9644 -1.2026 -0.7322
 8021TIP3    H245555   0.471   4.409   4.730  0.5918 -0.9650  0.4374
 8022TIP3   OH245556   3.531   6.135   5.230  0.8182 -0.3317  0.4662
 8022TIP3    H145557   3.568   6.057   5.190 -0.5411 -0.3644 -0.8238
 8022TIP3    H245558   3.598   6.203   5.218  1.0845 -0.7446 -0.4167
 8023TIP3   OH245559   1.059   5.560  12.887  0.1254  0.4101 -0.2316
 8023TIP3    H145560   1.061   5.486  12.827 -0.1796 -0.1078  0.3701
 8023TIP3    H245561   1.079   5.636  12.834 -0.6345  0.0291 -1.0831
 8024TIP3   OH245562   5.761   6.279   5.156  0.8071  0.8428  0.2166
 8024TIP3    H145563   5.734   6.271   5.065  0.0052  1.7712  0.3478
 8024TIP3    H245564   5.680   6.296   5.204  1.4189  2.1001  0.8612
 8025TIP3   OH245565   3.761   6.646   6.427  0.0411  0.1443  0.2674
 8025TIP3    H145566   3.826   6.576   6.434 -1.6753 -1.5664 -0.0441
 8025TIP3    H245567   3.719   6.649   6.513 -1.0675 -0.4335 -0.2378
 8026TIP3   OH245568   6.543   1.657  15.717  0.1491 -0.6378 -0.5027
 8026TIP3    H145569   6.548   1.749  15.695 -0.5426 -0.6213 -0.6328
 8026TIP3    H245570   6.476   1.652  15.786 -1.3661 -1.2720 -1.9580
 8027TIP3   OH245571   0.711   1.900   0.358  0.3418 -0.0170 -0.3912
 8027TIP3    H145572   0.674   1.930   0.441 -0.1345 -0.0298 -0.5942
 8027TIP3    H245573   0.802   1.928   0.360  0.4152 -0.2934  0.2715
 8028TIP3   OH245574   6.421   3.005  13.738  0.7657  0.1310  0.2664
 8028TIP3    H145575   6.451   2.924  13.779  0.0095 -1.5220 -2.2134
 8028TIP3    H245576   6.401   3.063  13.811  0.9833 -2.0457  2.1616
 8029TIP3   OH245577   1.929   1.136   0.952  0.4306  0.2054  0.1875
 8029TIP3    H145578   1.964   1.224   0.961  3.3651 -0.6320 -1.7015
 8029TIP3    H245579   1.841   1.148   0.916  1.0666  2.3455 -0.7784
 8030TIP3   OH245580   5.011   0.986   4.291  0.5132 -0.8241  0.1131
 8030TIP3    H145581   4.991   1.000   4.198  1.9270 -0.3167 -0.1408
 8030TIP3    H245582   5.063   1.063   4.316  0.1927 -0.9785  1.3199
 8031TIP3   OH245583   5.936   4.046  12.312 -0.0515  0.2229 -0.4285
 8031TIP3    H145584   5.938   4.075  12.403  0.1516 -0.5377 -0.1806
 8031TIP3    H245585   5.844   4.027  12.295  0.1156 -1.2981  0.1838
 8032TIP3   OH245586   1.618   1.759   1.009  0.1442 -0.1882 -0.0784
 8032TIP3    H145587   1.565   1.755   0.929  1.6497 -0.2665 -1.1166
 8032TIP3    H245588   1.583   1.834   1.057  0.4673  1.1218 -1.7744
 8033TIP3   OH245589   4.435   2.767   4.886  0.6258  0.1076 -0.0798
 8033TIP3    H145590   4.388   2.714   4.821  3.3918 -0.7897 -1.5075
 8033TIP3    H245591   4.391   2.852   4.884 -0.3875 -0.4064 -1.9543
 8034TIP3   OH245592   6.239   3.613  15.593  0.0041  0.1593 -0.8113
 8034TIP3    H145593   6.169   3.667  15.629 -0.0843 -0.4493 -0.0470
 8034TIP3    H245594   6.315   3.632  15.647 -0.7865 -2.7381  1.5465
 8035TIP3   OH245595   0.242   6.436   0.413 -0.0287  0.3368 -0.9613
 8035TIP3    H145596   0.197   6.351   0.415 -0.8274  0.7495  1.0837
 8035TIP3    H245597   0.249   6.461   0.505  0.5451  2.3159 -1.5020
 8036TIP3   OH245598   1.029   2.268  13.880  0.1999  0.5771  0.0732
 8036TIP3    H145599   0.961   2.335  13.869 -1.8578 -1.5024 -0.6532
 8036TIP3    H245600   1.105   2.303  13.834 -0.6981  2.5339 -0.0042
 8037TIP3   OH245601   2.575   3.004   5.633 -0.0038  0.2014 -0.4439
 8037TIP3    H145602   2.622   3.005   5.550  3.9762 -2.9284  1.4497
 8037TIP3    H245603   2.624   3.064   5.689 -0.1680 -0.7233  0.7302
 8038TIP3   OH245604   4.449   6.097  12.488  0.0932  0.4690 -0.4936
 8038TIP3    H145605   4.383   6.095  12.557  0.2487  1.2531 -0.3154
 8038TIP3    H245606   4.532   6.105  12.535  0.2388  0.5146 -0.7569
 8039TIP3   OH245607   6.370   4.410  14.896 -0.1264  0.4505  1.0162
 8039TIP3    H145608   6.388   4.475  14.828  1.3128 -1.0311 -0.1108
 8039TIP3    H245609   6.340   4.461  14.971  1.6296  2.4770  0.4248
 8040TIP3   OH245610   0.994   0.150   2.068  0.0195 -0.4340 -0.2373
 8040TIP3    H145611   1.076   0.174   2.026  1.2793 -3.7185 -0.0259
 8040TIP3    H245612   0.944   0.104   2.000 -0.8608 -0.0029  0.1041
 8041TIP3   OH245613   5.459   0.510   0.613 -0.0708  0.3995 -0.3288
 8041TIP3    H145614   5.429   0.583   0.668  1.5468  0.6196  0.3208
 8041TIP3    H245615   5.486   0.552   0.531  3.8092  1.1279  1.1047
 8042TIP3   OH245616   1.622   4.805  14.423  0.3784 -0.2077 -0.2234
 8042TIP3    H145617   1.601   4.792  14.331  1.8193  0.1275 -0.6189
 8042TIP3    H245618   1.569   4.739  14.469 -0.4475 -0.2941 -1.2536
 8043TIP3   OH245619   3.026   5.671  15.371 -0.2315  0.3271  0.5698
 8043TIP3    H145620   3.063   5.587  15.344 -0.9964  0.0577  0.3237
 8043TIP3    H245621   3.100   5.731  15.373 -0.0376  0.2278 -1.5996
 8044TIP3   OH245622   0.749   5.815   0.970 -0.4011  0.0926 -0.2290
 8044TIP3    H145623   0.782   5.847   0.885  1.6324 -0.5482  0.2576
 8044TIP3    H245624   0.699   5.888   1.005  0.2473  1.0437 -1.1952
 8045TIP3   OH245625   1.622   0.514  16.394 -0.3042  0.3281 -0.0696
 8045TIP3    H145626   1.642   0.605  16.372  2.0881 -0.0108  0.4372
 8045TIP3    H245627   1.555   0.520  16.462 -1.8894  1.5864 -1.6392
 8046TIP3   OH245628   5.598   5.799   3.205 -0.0181 -0.2056  0.2020
 8046TIP3    H145629   5.604   5.755   3.290  1.0115  3.0084  1.9534
 8046TIP3    H245630   5.542   5.874   3.221  1.3385  1.2749 -1.5578
 8047TIP3   OH245631   5.754   0.626   1.949  0.2392  0.9862 -0.7131
 8047TIP3    H145632   5.825   0.625   2.014  0.3256  2.1177 -0.7572
 8047TIP3    H245633   5.698   0.698   1.977 -1.6659 -0.7123  0.0854
 8048TIP3   OH245634   6.468   5.696   3.897  0.4461  0.1104 -0.5333
 8048TIP3    H145635   6.454   5.666   3.807 -0.4578 -0.6386 -0.1588
 8048TIP3    H245636   6.461   5.617   3.950  1.0553  0.5318  0.1987
 8049TIP3   OH245637   2.405   6.374  11.260  0.4129 -0.3231 -0.1597
 8049TIP3    H145638   2.388   6.293  11.309 -0.2480  0.9591  1.8268
 8049TIP3    H245639   2.497   6.394  11.279  1.5660 -2.1462 -3.1447
 8050TIP3   OH245640   2.088   0.153   3.049  0.2720 -0.0913 -0.5875
 8050TIP3    H145641   2.088   0.211   2.973  1.2511 -0.2235 -0.7006
 8050TIP3    H245642   2.005   0.171   3.093  0.0333  0.5307 -1.2760
 8051TIP3   OH245643   3.511   0.289  13.440 -0.0928  0.1115  0.5014
 8051TIP3    H145644   3.430   0.237  13.438  1.1356 -1.9183 -0.3680
 8051TIP3    H245645   3.575   0.234  13.393  1.5937  1.9802  0.5049
 8052TIP3   OH245646   6.562   0.569  11.901 -1.0177  0.1211  0.7910
 8052TIP3    H145647   6.632   0.552  11.838 -0.2689 -0.2825  1.7009
 8052TIP3    H245648   6.569   0.662  11.921 -1.0381  0.1773  0.5331
 8053TIP3   OH245649   0.617   5.966  12.401  0.2253  0.3096 -0.2972
 8053TIP3    H145650   0.620   5.955  12.306 -0.9442 -1.0904 -0.2068
 8053TIP3    H245651   0.524   5.981  12.420  0.7383  3.2175  0.4140
 8054TIP3   OH245652   4.419   5.518   1.932 -0.4830  0.4060  0.7144
 8054TIP3    H145653   4.438   5.522   2.026  1.4725  0.5881  0.3455
 8054TIP3    H245654   4.390   5.429   1.917 -1.9722  0.6969  1.6741
 8055TIP3   OH245655   3.360   4.954   1.551 -0.1053  0.2767 -0.3588
 8055TIP3    H145656   3.411   4.970   1.471  2.8311 -1.0062  1.1013
 8055TIP3    H245657   3.334   4.862   1.544  2.0635 -0.5195  1.0195
 8056TIP3   OH245658   3.966   3.488  13.863  0.0181  0.1765 -0.3629
 8056TIP3    H145659   3.953   3.499  13.958 -0.0800  0.5358 -0.4146
 8056TIP3    H245660   3.885   3.522  13.825  0.4566  0.9502 -0.6228
 8057TIP3   OH245661   0.006   3.949  14.196  0.1845  0.3462  0.0958
 8057TIP3    H145662  -0.045   4.029  14.182 -0.1334  0.5946  2.3341
 8057TIP3    H245663  -0.059   3.882  14.218  0.4606 -0.5314 -1.5946
 8058TIP3   OH245664   5.366   6.477  16.285 -0.4107  0.7953 -0.1877
 8058TIP3    H145665   5.296   6.515  16.233 -0.5625 -0.0023 -0.5810
 8058TIP3    H245666   5.325   6.404  16.331  0.0244  0.6886  0.0375
 8059TIP3   OH245667   1.526   6.140   0.679  0.5686 -0.3798 -0.4875
 8059TIP3    H145668   1.499   6.232   0.670  4.3772  1.0044  0.1961
 8059TIP3    H245669   1.468   6.105   0.747  0.2063  2.1670  0.6461
 8060TIP3   OH245670   2.094   0.537  12.943  0.2755 -0.0701  0.3963
 8060TIP3    H145671   2.186   0.562  12.935  0.4712 -0.0624  2.2750
 8060TIP3    H245672   2.048   0.594  12.881  1.4613  0.3281 -0.1402
 8061TIP3   OH245673   5.129   0.331   6.240 -0.0441 -0.1144  0.3998
 8061TIP3    H145674   5.216   0.295   6.256  1.1260  2.1369 -0.4017
 8061TIP3    H245675   5.096   0.281   6.165  0.1541 -1.5716  1.2487
 8062TIP3   OH245676   1.963   4.380   0.650 -0.2872 -0.2411 -0.4328
 8062TIP3    H145677   1.961   4.475   0.652 -2.4148 -0.2372 -0.7739
 8062TIP3    H245678   1.954   4.358   0.557 -2.4296 -0.7529 -0.1403
 8063TIP3   OH245679   5.343   1.527  11.581  0.5023  0.1590 -0.1431
 8063TIP3    H145680   5.339   1.566  11.494 -0.5202 -0.3979 -0.3674
 8063TIP3    H245681   5.267   1.563  11.627 -0.1296 -1.0977 -0.1664
 8064TIP3   OH245682   0.246   2.371  11.883  0.3574  0.1249  0.1587
 8064TIP3    H145683   0.321   2.413  11.926  0.9572  1.9163 -2.4544
 8064TIP3    H245684   0.173   2.429  11.901  0.1418 -0.2502  0.5101
 8065TIP3   OH245685   1.627   5.121  13.784  0.6148  0.0632 -0.6848
 8065TIP3    H145686   1.541   5.141  13.748  0.1932  0.7432  0.6319
 8065TIP3    H245687   1.681   5.102  13.708 -0.4050  0.7754 -1.6188
 8066TIP3   OH245688   3.356   6.766  12.334 -0.1847  0.3062  0.2870
 8066TIP3    H145689   3.446   6.734  12.345 -0.5585 -0.7119  0.4686
 8066TIP3    H245690   3.348   6.781  12.240 -0.5365 -1.8760 -0.0892
 8067TIP3   OH245691   6.562   1.009  10.991 -0.7043 -0.0187  0.1648
 8067TIP3    H145692   6.615   0.992  11.069  2.3885 -0.7980 -1.9189
 8067TIP3    H245693   6.508   0.931  10.981  0.8142 -1.1271  0.1555
 8068TIP3   OH245694   5.934   1.761   4.700 -0.9965 -0.2066 -0.3103
 8068TIP3    H145695   5.920   1.850   4.731  0.7639 -0.5256  1.6264
 8068TIP3    H245696   5.929   1.707   4.779  0.3346 -1.5017 -1.0501
 8069TIP3   OH245697   6.671   6.476   3.757 -0.1242  0.7268  0.3740
 8069TIP3    H145698   6.584   6.505   3.784  0.3411  0.6390  2.0680
 8069TIP3    H245699   6.657   6.386   3.726 -0.5321  0.4322  1.3716
 8070TIP3   OH245700   4.923   0.801  14.534 -0.3654 -0.3111 -0.0425
 8070TIP3    H145701   4.958   0.778  14.448  0.2352  1.3190 -0.2741
 8070TIP3    H245702   4.999   0.800  14.592 -0.2483  1.1988 -0.1170
 8071TIP3   OH245703   3.301   1.241   5.118 -0.2555 -0.1433 -0.0056
 8071TIP3    H145704   3.336   1.214   5.202 -0.7424 -1.3596 -0.1712
 8071TIP3    H245705   3.289   1.159   5.069  0.5964  0.5690 -1.4918
 8072TIP3   OH245706   0.020   5.477  17.198 -0.0847  0.6661 -0.2566
 8072TIP3    H145707   0.014   5.536  17.273 -0.7920 -1.3667  1.3628
 8072TIP3    H245708  -0.071   5.458  17.176  0.1388 -0.0451 -0.5783
 8073TIP3   OH245709   4.479   2.208   0.703 -0.2855 -0.1845 -0.5129
 8073TIP3    H145710   4.410   2.270   0.682 -0.3552  0.2183  0.8001
 8073TIP3    H245711   4.453   2.127   0.660 -0.5514  0.4936 -1.6674
 8074TIP3   OH245712   6.621   4.062  11.649 -0.3761  0.4439 -0.3208
 8074TIP3    H145713   6.709   4.075  11.683  0.4267  1.6475 -2.6078
 8074TIP3    H245714   6.566   4.056  11.726  1.6065  0.3473  1.1689
 8075TIP3   OH245715   1.304   3.742  12.987 -0.5677 -0.2753 -0.3234
 8075TIP3    H145716   1.391   3.751  12.948 -0.1513  0.0956  0.6563
 8075TIP3    H245717   1.319   3.692  13.068 -0.7323  2.4961  1.5336
 8076TIP3   OH245718   1.457   1.830   2.233 -0.0232  0.1191 -0.2121
 8076TIP3    H145719   1.382   1.803   2.179  0.4840 -0.9045 -0.4126
 8076TIP3    H245720   1.433   1.918   2.263 -1.4471 -0.3092 -0.0146
 8077TIP3   OH245721   0.939   1.205  12.823  0.3240  0.1885 -0.2111
 8077TIP3    H145722   0.876   1.182  12.755 -0.0570  0.9953 -0.1423
 8077TIP3    H245723   1.024   1.179  12.787 -0.1274 -2.3040  0.2821
 8078TIP3   OH245724   2.788   5.518   6.271 -0.5680 -0.3595 -0.2107
 8078TIP3    H145725   2.811   5.426   6.260  0.3589 -0.1798  0.1625
 8078TIP3    H245726   2.819   5.540   6.359  1.0852  0.8442 -1.0466
 8079TIP3   OH245727   1.485   2.558  11.200 -0.2835  0.6784 -0.4264
 8079TIP3    H145728   1.416   2.517  11.252  0.5093 -0.1523  0.0026
 8079TIP3    H245729   1.561   2.501  11.211  0.5574  1.7056 -0.6750
 8080TIP3   OH245730   6.443   0.524  11.576  0.1056 -0.2504 -0.2278
 8080TIP3    H145731   6.444   0.497  11.484  2.8394 -2.5162  0.3201
 8080TIP3    H245732   6.535   0.529  11.601 -0.5126  1.9853  1.9940
 8081TIP3   OH245733   1.392   6.149   0.325 -0.2065 -0.1163 -0.4351
 8081TIP3    H145734   1.426   6.067   0.359  1.4698  0.3981 -0.7698
 8081TIP3    H245735   1.316   6.169   0.380  1.4619 -0.1050  2.0284
 8082TIP3   OH245736   5.647   2.723  12.953 -0.3683 -0.0514 -0.3908
 8082TIP3    H145737   5.729   2.676  12.937 -0.1551 -0.1156  0.8135
 8082TIP3    H245738   5.600   2.669  13.016 -1.7198 -0.4164 -1.6547
 8083TIP3   OH245739   4.812   5.248  11.171  0.3921 -0.2870  0.2998
 8083TIP3    H145740   4.735   5.273  11.221 -0.0279 -2.2760  0.7232
 8083TIP3    H245741   4.799   5.287  11.084 -1.7745 -1.6582 -0.0611
 8084TIP3   OH245742   2.455   3.251  16.686  0.1457 -0.5728  0.3731
 8084TIP3    H145743   2.463   3.218  16.597 -2.2219 -0.5276  0.0750
 8084TIP3    H245744   2.392   3.193  16.728 -0.4891  0.7254  1.3015
 8085TIP3   OH245745   6.362   2.681  16.628 -0.2256  0.6188  0.5286
 8085TIP3    H145746   6.347   2.775  16.644 -4.0138 -0.1855  3.0117
 8085TIP3    H245747   6.302   2.659  16.556  1.4613  0.2040 -0.8222
 8086TIP3   OH245748   3.147   4.472   0.906  0.4707  0.2893 -0.1186
 8086TIP3    H145749   3.087   4.432   0.844  0.3327  0.8764 -0.3733
 8086TIP3    H245750   3.186   4.545   0.858  1.0157  0.2210  0.2038
 8087TIP3   OH245751   4.439   2.702  14.253 -0.3363 -0.3514  0.0053
 8087TIP3    H145752   4.418   2.775  14.196  1.7780  1.8557  1.8543
 8087TIP3    H245753   4.497   2.646  14.201  1.7640  1.7347 -0.0764
 8088TIP3   OH245754   3.744   6.539   4.284 -0.6225  0.5317  0.3607
 8088TIP3    H145755   3.768   6.476   4.216 -1.0972  0.8238 -0.0892
 8088TIP3    H245756   3.752   6.624   4.242 -0.2858  0.7575  0.8715
 8089TIP3   OH245757   2.857   1.785   5.574 -0.7674  0.1773 -0.5992
 8089TIP3    H145758   2.942   1.803   5.614 -1.4076  0.4335  0.6993
 8089TIP3    H245759   2.794   1.810   5.641 -1.8362 -1.2288 -1.0440
 8090TIP3   OH245760   1.095   4.442   2.276 -0.0371  0.1523  0.0150
 8090TIP3    H145761   1.022   4.429   2.337  0.2697 -0.9621  0.1775
 8090TIP3    H245762   1.082   4.376   2.208 -0.1662  1.1399 -0.9423
 8091TIP3   OH245763   3.304   3.238  13.229 -0.5967 -0.2812 -0.0429
 8091TIP3    H145764   3.400   3.244  13.230 -0.5007  0.4958  3.8118
 8091TIP3    H245765   3.274   3.328  13.236 -1.3405 -0.6310  2.5547
 8092TIP3   OH245766   6.544   2.814  15.198  0.1094 -0.0850 -0.1013
 8092TIP3    H145767   6.568   2.906  15.186  1.3954 -0.1794  1.4377
 8092TIP3    H245768   6.491   2.813  15.277 -0.3599 -0.6063 -0.4164
 8093TIP3   OH245769   1.121   1.476  12.635 -0.0440  0.8876  0.0355
 8093TIP3    H145770   1.208   1.438  12.647  0.5628  2.1782 -0.1066
 8093TIP3    H245771   1.074   1.412  12.582  1.2379  0.7459 -0.9785
 8094TIP3   OH245772   4.779   0.521  17.065 -0.2839 -0.1993  0.2523
 8094TIP3    H145773   4.856   0.566  17.030  0.6987 -0.6261  1.7948
 8094TIP3    H245774   4.813   0.462  17.132 -1.7950 -1.5552 -0.1021
 8095TIP3   OH245775   4.098   2.943   4.434 -0.2617  0.4208  0.1310
 8095TIP3    H145776   4.012   2.969   4.466 -0.8932  1.3190 -2.0604
 8095TIP3    H245777   4.149   2.922   4.512 -2.5367 -0.3867  1.4676
 8096TIP3   OH245778   6.729   4.801  14.182 -0.2869  0.0168 -0.4862
 8096TIP3    H145779   6.773   4.886  14.177  0.0440  0.0168  1.5479
 8096TIP3    H245780   6.790   4.740  14.142  0.4034  0.4197 -0.0563
 8097TIP3   OH245781   5.261   1.776  12.671  0.6223 -0.0088 -0.3129
 8097TIP3    H145782   5.334   1.785  12.610 -0.3429 -0.6611 -1.6249
 8097TIP3    H245783   5.259   1.683  12.692  0.5843  0.1199  0.2489
 8098TIP3   OH245784   6.152   1.468   4.778  0.7621 -0.4563 -0.0572
 8098TIP3    H145785   6.247   1.475   4.792  0.7046 -1.6261  1.1537
 8098TIP3    H245786   6.131   1.378   4.803 -0.4346 -0.7122 -1.8504
 8099TIP3   OH245787   4.228   5.256   1.944 -0.0341  0.5350 -0.4566
 8099TIP3    H145788   4.263   5.169   1.927  0.8161 -0.1339  3.6172
 8099TIP3    H245789   4.196   5.286   1.859  0.1082 -3.4830 -2.1623
 8100TIP3   OH245790   4.503   5.042  14.763  0.2583 -0.3717  0.2322
 8100TIP3    H145791   4.548   5.123  14.786  2.7401 -2.0442  1.8538
 8100TIP3    H245792   4.547   4.975  14.815 -2.4504 -2.6224 -0.1448
 8101TIP3   OH245793   0.907   0.537   2.081 -0.1436 -0.2240 -0.2824
 8101TIP3    H145794   0.872   0.604   2.022  2.4154  3.4595  1.9296
 8101TIP3    H245795   0.888   0.571   2.169  3.0660 -1.2462  0.9558
 8102TIP3   OH245796   6.766   2.891  10.896 -0.0083 -0.2633  0.3150
 8102TIP3    H145797   6.707   2.816  10.884 -1.4405  0.7964  0.3618
 8102TIP3    H245798   6.719   2.963  10.854  0.0706  1.1827  2.5752
 8103TIP3   OH245799   2.542   6.288  16.442  0.1222 -0.3555  0.3950
 8103TIP3    H145800   2.504   6.212  16.486 -0.4296  0.5806  1.5981
 8103TIP3    H245801   2.530   6.270  16.348  0.6335 -2.0454  0.6056
 8104TIP3   OH245802   0.628   0.032  16.515  0.3184  0.6978 -0.0725
 8104TIP3    H145803   0.677  -0.048  16.498 -1.5948 -0.1359 -2.1322
 8104TIP3    H245804   0.593   0.020  16.603  0.9765 -0.2390  0.0780
 8105TIP3   OH245805   3.064   3.496   2.588 -0.2067  0.4778 -0.0589
 8105TIP3    H145806   3.107   3.413   2.607 -2.1729 -0.3422  1.0897
 8105TIP3    H245807   2.991   3.473   2.531 -0.0016  1.6251 -0.8171
 8106TIP3   OH245808   3.162   2.375  15.519 -0.6008  0.4072  0.4233
 8106TIP3    H145809   3.137   2.316  15.590  0.6138  2.1946  2.4107
 8106TIP3    H245810   3.078   2.411  15.488 -1.1404 -0.3075  1.0071
 8107TIP3   OH245811   2.039   0.805   1.786  0.0884 -0.2488  0.5666
 8107TIP3    H145812   1.944   0.807   1.799  0.3093  0.5120  2.2488
 8107TIP3    H245813   2.059   0.712   1.775 -0.8134 -0.4466  0.4775
 8108TIP3   OH245814   5.606   6.313  16.751  0.1892 -0.2782  0.2691
 8108TIP3    H145815   5.597   6.236  16.696 -1.2184  0.7224 -0.9818
 8108TIP3    H245816   5.687   6.298  16.801  1.4700 -1.3160 -1.9515
 8109TIP3   OH245817   4.529   4.071  15.735 -0.7200  0.2686 -0.3776
 8109TIP3    H145818   4.512   4.044  15.826 -0.0166  0.1706 -0.2709
 8109TIP3    H245819   4.607   4.126  15.741 -0.8028  0.4459 -0.8965
 8110TIP3   OH245820   2.207   2.149  12.907 -0.2185  0.2558 -0.6088
 8110TIP3    H145821   2.247   2.232  12.934 -2.0412  1.8824 -2.4858
 8110TIP3    H245822   2.144   2.129  12.977  0.2317  0.4313 -0.1442
 8111TIP3   OH245823   0.039   1.412   5.742  0.2494  0.8781  0.1923
 8111TIP3    H145824   0.092   1.341   5.705  0.2284  1.9015 -1.8779
 8111TIP3    H245825   0.076   1.492   5.707 -2.0663  1.6928 -0.5978
 8112TIP3   OH245826   2.806   4.955   6.309 -0.2937 -0.1151  0.2825
 8112TIP3    H145827   2.831   5.038   6.267  0.4876 -1.1471 -1.3974
 8112TIP3    H245828   2.836   4.965   6.400  1.6408  0.6995 -0.3793
 8113TIP3   OH245829   0.847   4.656  14.047 -0.1359  0.4535  0.3800
 8113TIP3    H145830   0.802   4.598  13.985  1.9516 -0.6656 -0.1589
 8113TIP3    H245831   0.845   4.742  14.005  1.9952 -0.4250 -1.7893
 8114TIP3   OH245832   2.630   5.707   1.076  0.4912 -0.4427  0.3699
 8114TIP3    H145833   2.632   5.747   0.989 -1.9791 -0.5622  0.1620
 8114TIP3    H245834   2.721   5.690   1.097  1.3286  1.6516 -1.2164
 8115TIP3   OH245835   1.277   2.320  16.783  0.2388 -0.0805 -0.0809
 8115TIP3    H145836   1.293   2.335  16.877 -0.4741  0.9530 -0.1086
 8115TIP3    H245837   1.241   2.403  16.752 -1.0847 -0.9332 -0.9139
 8116TIP3   OH245838   5.151   0.148  13.224  0.7594 -0.0495  0.3043
 8116TIP3    H145839   5.163   0.067  13.174 -0.0439 -1.1273  1.7645
 8116TIP3    H245840   5.223   0.148  13.287  1.1401  0.7310 -0.1196
 8117TIP3   OH245841   5.276   6.437  17.209  0.1342  0.0970 -0.3171
 8117TIP3    H145842   5.277   6.473  17.121  1.2560  0.8309 -0.0182
 8117TIP3    H245843   5.366   6.446  17.240 -0.5704  1.4770  1.5417
 8118TIP3   OH245844   1.107   2.769  12.751  0.7207  0.2882 -0.4532
 8118TIP3    H145845   1.192   2.790  12.714  0.2954  1.3053 -0.8785
 8118TIP3    H245846   1.044   2.803  12.688 -0.0125  0.0451  0.1254
 8119TIP3   OH245847   0.593   2.182  11.661  0.3461 -0.3317 -0.0517
 8119TIP3    H145848   0.498   2.192  11.665  0.5367  1.4027  1.3490
 8119TIP3    H245849   0.607   2.088  11.666 -1.2402 -0.5251  1.9799
 8120TIP3   OH245850   0.804   0.668   2.325  0.1081  0.0423  0.0417
 8120TIP3    H145851   0.797   0.750   2.276 -1.0659  0.5950  1.0677
 8120TIP3    H245852   0.748   0.682   2.402 -0.5366 -1.9012 -0.0241
 8121TIP3   OH245853   2.743   5.865  14.319 -0.3802  0.1580  0.2729
 8121TIP3    H145854   2.694   5.946  14.336 -1.1100 -0.2740  0.2706
 8121TIP3    H245855   2.754   5.825  14.405 -0.7179 -0.1318  0.1822
 8122TIP3   OH245856   1.315   2.276   0.671  0.1189  0.2025 -0.0739
 8122TIP3    H145857   1.236   2.250   0.718  0.0123  1.4270  0.4635
 8122TIP3    H245858   1.370   2.198   0.671 -0.9595 -0.5785 -0.2002
 8123TIP3   OH245859   5.542   2.820   2.564  0.2288  0.3873 -0.1903
 8123TIP3    H145860   5.532   2.729   2.536 -0.6277 -0.0397  1.3772
 8123TIP3    H245861   5.528   2.871   2.485 -0.9594 -0.7828 -0.7782
 8124TIP3   OH245862   0.406   1.929  10.735  0.0665  0.6743  0.5748
 8124TIP3    H145863   0.437   1.910  10.646  0.5745 -0.8589  1.0636
 8124TIP3    H245864   0.321   1.885  10.741  0.1218  0.6162  0.9250
 8125TIP3   OH245865   0.674   2.507  13.287 -0.9948 -0.0622 -0.0470
 8125TIP3    H145866   0.665   2.600  13.308  1.6536  0.1614  0.4819
 8125TIP3    H245867   0.598   2.465  13.328 -3.5162  2.0435 -2.2135
 8126TIP3   OH245868   3.123   2.384  16.904 -0.1369 -0.7133 -0.4221
 8126TIP3    H145869   3.172   2.341  16.974 -0.9635 -1.0619 -0.0374
 8126TIP3    H245870   3.190   2.419  16.845  0.7403  2.0768  1.9491
 8127TIP3   OH245871   2.204   6.009  10.866  0.1851 -0.3878  0.5774
 8127TIP3    H145872   2.152   5.934  10.837  0.4487 -0.5601  0.5404
 8127TIP3    H245873   2.140   6.077  10.885 -0.0062 -0.3132 -0.2767
 8128TIP3   OH245874   4.305   2.059   1.792 -0.2638  0.1381 -0.2371
 8128TIP3    H145875   4.210   2.049   1.785 -0.2680 -0.3520  0.4811
 8128TIP3    H245876   4.326   2.126   1.727 -1.1566  0.5608 -0.1104
 8129TIP3   OH245877   5.867   1.420   2.445  0.1149  0.1454 -0.5218
 8129TIP3    H145878   5.939   1.437   2.505 -0.4586  0.2235  0.1520
 8129TIP3    H245879   5.887   1.334   2.407  0.7018  0.2916 -0.5578
 8130TIP3   OH245880   6.224   2.632   4.004 -0.2133  0.0342 -0.1376
 8130TIP3    H145881   6.207   2.726   4.007  1.0679  0.2993 -0.3235
 8130TIP3    H245882   6.289   2.622   3.934 -0.6593 -1.0461 -0.4094
 8131TIP3   OH245883   2.829   4.009   3.918  0.0536 -0.0810  0.1237
 8131TIP3    H145884   2.792   3.996   3.831 -2.7927  0.1456  1.2105
 8131TIP3    H245885   2.762   3.977   3.978  1.2276  1.2756  2.2901
 8132TIP3   OH245886   5.180   3.686  15.915 -0.3603  0.3721 -0.4925
 8132TIP3    H145887   5.087   3.706  15.908 -0.6833  0.2112  2.1521
 8132TIP3    H245888   5.186   3.591  15.906 -0.6761  0.2260  0.6241
 8133TIP3   OH245889   3.571   1.788   5.798  0.5458  0.0483  0.1372
 8133TIP3    H145890   3.484   1.821   5.774  0.5835 -0.2032 -0.3551
 8133TIP3    H245891   3.566   1.776   5.893 -0.4247 -1.2613 -0.0403
 8134TIP3   OH245892   4.198   6.429   1.359 -0.0137 -0.1540  0.1017
 8134TIP3    H145893   4.179   6.341   1.326 -3.5162 -1.1251  3.8500
 8134TIP3    H245894   4.276   6.419   1.413  0.7212 -0.4456 -0.9781
 8135TIP3   OH245895   4.845   1.534  15.235  0.4265 -0.2582  0.5237
 8135TIP3    H145896   4.914   1.567  15.177  1.4512 -1.2458  1.1231
 8135TIP3    H245897   4.780   1.498  15.176 -0.8961  2.9625 -0.1692
 8136TIP3   OH245898   1.958   1.835   1.601 -0.1437  0.3558 -0.0169
 8136TIP3    H145899   1.934   1.832   1.694  1.0178 -0.4161  0.2764
 8136TIP3    H245900   1.921   1.755   1.565  0.3087  0.1287  0.0167
 8137TIP3   OH245901   5.922   4.401  11.508 -0.1103 -0.0437  0.4605
 8137TIP3    H145902   5.830   4.426  11.499  0.1232  0.3717 -1.0299
 8137TIP3    H245903   5.922   4.306  11.495 -0.4341 -0.2006  1.4963
 8138TIP3   OH245904   4.855   0.971  16.015  0.1406  0.1503  0.0572
 8138TIP3    H145905   4.824   0.924  15.938 -2.6435  1.5127  0.2175
 8138TIP3    H245906   4.898   1.050  15.980 -0.5909  0.4735 -0.1175
 8139TIP3   OH245907   6.327   1.937  14.304 -0.3381  0.3904  0.9991
 8139TIP3    H145908   6.276   1.977  14.374 -0.4868 -0.2298  1.2515
 8139TIP3    H245909   6.264   1.889  14.252 -0.2640  1.0506  0.2805
 8140TIP3   OH245910   3.158   4.980   2.648 -0.3863 -0.0590 -0.0717
 8140TIP3    H145911   3.201   4.947   2.727 -0.0546 -0.9992 -0.6308
 8140TIP3    H245912   3.204   5.061   2.628  0.0279 -0.2031  0.2823
 8141TIP3   OH245913   3.725   5.047   2.497  0.3882  0.0083  0.0080
 8141TIP3    H145914   3.806   5.049   2.446 -0.6622  0.3046 -1.7288
 8141TIP3    H245915   3.692   5.136   2.493 -0.6519 -0.3790 -0.3940
 8142TIP3   OH245916   0.996   4.369   4.653  0.1870 -0.3361 -0.4845
 8142TIP3    H145917   0.934   4.305   4.688 -0.6901 -0.3769 -2.0176
 8142TIP3    H245918   1.047   4.320   4.588 -1.0583  0.6357 -2.2938
 8143TIP3   OH245919   5.803   6.716   3.650  0.3930 -0.0555 -0.0556
 8143TIP3    H145920   5.811   6.810   3.667  1.6905 -0.2485  0.5438
 8143TIP3    H245921   5.890   6.682   3.667  0.0654 -1.3020 -0.7783
 8144TIP3   OH245922   0.013   0.400  14.887  0.1059  0.0850 -0.2197
 8144TIP3    H145923  -0.042   0.322  14.885 -2.3449  1.6361  1.1020
 8144TIP3    H245924   0.010   0.429  14.979 -2.7869  4.0488 -1.2733
 8145TIP3   OH245925   1.732   0.615   2.435 -0.5928  0.6685  0.2598
 8145TIP3    H145926   1.664   0.558   2.473 -1.0575 -0.3553 -1.9682
 8145TIP3    H245927   1.773   0.562   2.368  2.0504  1.5014  1.0976
 8146TIP3   OH245928   4.957   6.534   6.869 -0.0645  0.6305  0.3451
 8146TIP3    H145929   5.050   6.544   6.846 -1.0258  0.8021 -4.4426
 8146TIP3    H245930   4.936   6.614   6.917  2.1624  0.6721  1.3841
 8147TIP3   OH245931   1.693   6.744   3.471  0.0152 -0.8258  0.0295
 8147TIP3    H145932   1.734   6.755   3.385  0.6992  0.9881  0.5478
 8147TIP3    H245933   1.750   6.791   3.531 -2.9959  2.2924  0.7461
 8148TIP3   OH245934   3.475   3.410  13.894  0.2067 -0.1534  0.7868
 8148TIP3    H145935   3.429   3.396  13.977 -0.9540  1.0754  0.3856
 8148TIP3    H245936   3.409   3.391  13.827  1.1226 -1.0974  0.1148
 8149TIP3   OH245937   1.717   6.306   5.198  0.2738  0.5678  0.2768
 8149TIP3    H145938   1.733   6.233   5.258  1.8533  0.6639  0.0158
 8149TIP3    H245939   1.733   6.385   5.250 -0.1321  0.7011  0.2041
 8150TIP3   OH245940   3.534   2.535  10.822  0.0320 -0.4041 -0.1920
 8150TIP3    H145941   3.554   2.600  10.889  0.2915 -0.3946 -0.2747
 8150TIP3    H245942   3.610   2.537  10.763 -0.6607  0.3364 -1.0881
 8151TIP3   OH245943   5.349   1.158  11.005  0.2466  0.3767 -0.0496
 8151TIP3    H145944   5.359   1.064  11.021  1.0166  0.2622 -1.1413
 8151TIP3    H245945   5.430   1.197  11.038  2.2199  0.0604 -3.9314
 8152TIP3   OH245946   6.211   2.698   1.423  0.3653 -0.5639  0.2843
 8152TIP3    H145947   6.143   2.764   1.437  0.9294  0.1064 -0.0297
 8152TIP3    H245948   6.293   2.747   1.430  0.7725 -0.9791 -1.2011
 8153TIP3   OH245949   5.439   5.330   2.761  0.2230 -0.1241 -0.1148
 8153TIP3    H145950   5.512   5.390   2.776  0.2693  0.2867 -1.7967
 8153TIP3    H245951   5.481   5.246   2.741  0.1842 -0.3376  0.6618
 8154TIP3   OH245952   3.821   6.136   3.723  0.1292 -0.0722 -0.1425
 8154TIP3    H145953   3.824   6.124   3.628  2.1800  0.2318 -0.1438
 8154TIP3    H245954   3.906   6.106   3.754 -0.5281 -0.2206  1.6304
 8155TIP3   OH245955   4.893   5.582   5.426 -0.1837  0.1297  0.4085
 8155TIP3    H145956   4.935   5.668   5.422 -2.7387  1.4184 -1.4276
 8155TIP3    H245957   4.951   5.524   5.377  2.8545  0.0502  3.7204
 8156TIP3   OH245958   4.570   0.742   3.990  0.1747 -0.3490 -0.0708
 8156TIP3    H145959   4.491   0.741   4.043  0.5598 -1.3750  0.5211
 8156TIP3    H245960   4.613   0.825   4.012 -0.0464 -0.4185  0.6663
 8157TIP3   OH245961   3.801   4.672   6.207  0.0893 -0.0022 -0.5941
 8157TIP3    H145962   3.736   4.727   6.250  0.7105 -0.5099  1.0865
 8157TIP3    H245963   3.761   4.586   6.202 -0.3447  0.2594 -1.9492
 8158TIP3   OH245964   5.269   4.862  16.989 -0.9311 -0.4980  0.1186
 8158TIP3    H145965   5.201   4.807  17.027 -2.3047 -0.4632 -2.1333
 8158TIP3    H245966   5.288   4.822  16.904  0.9585  0.2500  0.1316
 8159TIP3   OH245967   0.886   1.464  15.650  0.1989 -0.2758  0.3242
 8159TIP3    H145968   0.873   1.539  15.708  1.5211  0.5287 -0.3703
 8159TIP3    H245969   0.861   1.496  15.563 -1.0038 -1.2282  0.2915
 8160TIP3   OH245970   3.067   4.421   0.197  0.5299 -0.0957 -0.3778
 8160TIP3    H145971   3.158   4.395   0.182  1.0749  0.1468  2.0799
 8160TIP3    H245972   3.060   4.429   0.292 -2.0028  0.1831 -0.5309
 8161TIP3   OH245973   3.692   1.693  13.099  0.1141 -0.6491 -0.5914
 8161TIP3    H145974   3.724   1.731  13.181 -0.6857 -2.3825  0.5777
 8161TIP3    H245975   3.772   1.668  13.052  0.6036  1.0932 -0.7511
 8162TIP3   OH245976   5.442   4.995   5.833  0.3513 -0.1847  0.3229
 8162TIP3    H145977   5.377   5.057   5.801  0.7251  0.3061  0.4926
 8162TIP3    H245978   5.511   4.996   5.766 -0.2422 -1.4251 -0.3394
 8163TIP3   OH245979   4.063   3.125  11.773  0.1632 -0.1184 -0.1023
 8163TIP3    H145980   4.009   3.077  11.710  2.7282 -1.9760 -1.0673
 8163TIP3    H245981   4.068   3.067  11.849  1.6843 -0.5894 -0.5087
 8164TIP3   OH245982   2.463   2.708   3.971 -0.0175 -0.2502 -0.0285
 8164TIP3    H145983   2.415   2.633   3.936 -1.6261 -0.0116  1.5460
 8164TIP3    H245984   2.396   2.763   4.011  1.3180  1.2620  0.2125
 8165TIP3   OH245985   6.123   2.245   6.643  0.8126  0.3727  0.2989
 8165TIP3    H145986   6.053   2.184   6.669  0.5837  0.0318 -1.0289
 8165TIP3    H245987   6.180   2.193   6.587  0.4192  1.4379 -1.1525
 8166TIP3   OH245988   6.471   0.617   6.226  0.0315  0.2783  0.4246
 8166TIP3    H145989   6.445   0.571   6.306 -0.1546  0.8914  0.7269
 8166TIP3    H245990   6.566   0.627   6.233  0.2584 -1.2469 -0.2890
 8167TIP3   OH245991   4.857   5.621  16.920 -0.2310  0.3595  0.6378
 8167TIP3    H145992   4.833   5.530  16.900 -1.7862  0.6966  0.8520
 8167TIP3    H245993   4.856   5.665  16.835 -1.5769  0.6194  0.7657
 8168TIP3   OH245994   0.094   4.550  16.416  0.0633 -0.2480  0.5827
 8168TIP3    H145995   0.087   4.645  16.429 -1.0247 -0.5007  2.0497
 8168TIP3    H245996   0.173   4.539  16.362 -0.3450  1.5383 -0.4411
 8169TIP3   OH245997   2.529   0.596   2.540  0.2438  0.0724  0.0354
 8169TIP3    H145998   2.593   0.549   2.487  0.9977 -0.2686  1.2119
 8169TIP3    H245999   2.452   0.539   2.542  1.0799 -1.0510  1.2866
 8170TIP3   OH246000   0.547   4.590   1.900  0.1660 -0.3468 -0.6236
 8170TIP3    H146001   0.521   4.629   1.983 -0.7398 -0.6493 -0.7508
 8170TIP3    H246002   0.640   4.611   1.891  0.1596  0.0825  0.2398
 8171TIP3   OH246003   0.764   2.362   0.858 -0.0499  0.3890 -0.1445
 8171TIP3    H146004   0.713   2.356   0.939  0.4127  0.4889  0.1538
 8171TIP3    H246005   0.819   2.439   0.869 -0.4290  0.7673 -0.8153
 8172TIP3   OH246006   4.052   0.020  13.606 -0.4854  0.3444  1.1640
 8172TIP3    H146007   4.080  -0.068  13.581 -0.1758  0.8199 -0.2240
 8172TIP3    H246008   4.104   0.078  13.551 -2.8029  1.3179 -0.1232
 8173TIP3   OH246009   2.694   4.859   4.013  0.2978  0.0766 -0.3152
 8173TIP3    H146010   2.689   4.765   3.998 -0.6755  0.0921 -0.1022
 8173TIP3    H246011   2.755   4.868   4.087  0.4986 -0.3700 -0.4252
 8174TIP3   OH246012   5.630   4.448   2.440 -0.1972 -0.0372  0.1410
 8174TIP3    H146013   5.679   4.524   2.472 -1.0692 -0.0486  1.6340
 8174TIP3    H246014   5.564   4.484   2.382  0.4205  0.1652 -0.4419
 8175TIP3   OH246015   2.153   4.377   1.398 -0.3129  0.1978  0.3298
 8175TIP3    H146016   2.141   4.339   1.484  0.6800  1.2441  0.9550
 8175TIP3    H246017   2.199   4.310   1.348  1.5008  0.5549  1.4371
 8176TIP3   OH246018   5.990   2.327   2.311 -0.6135  0.0243  0.0214
 8176TIP3    H146019   5.909   2.285   2.283 -0.0896 -0.5887 -0.6035
 8176TIP3    H246020   5.983   2.333   2.406 -1.4115  0.0217 -0.0349
 8177TIP3   OH246021   2.759   2.536  10.049 -0.7868 -0.1188  0.8601
 8177TIP3    H146022   2.720   2.624  10.052 -1.0576 -0.1567 -0.7120
 8177TIP3    H246023   2.852   2.551  10.064 -0.5915  0.6410 -0.9261
 8178TIP3   OH246024   1.569   5.650  15.593  0.0860 -0.3973  0.2161
 8178TIP3    H146025   1.601   5.606  15.515 -0.6293 -0.9065  0.2032
 8178TIP3    H246026   1.543   5.737  15.562 -1.5270 -1.0550 -0.4391
 8179TIP3   OH246027   5.176   1.975   3.950 -0.4393 -0.3122  0.1014
 8179TIP3    H146028   5.238   1.985   4.022  0.3328 -0.4313 -0.5425
 8179TIP3    H246029   5.174   2.060   3.907 -2.1031  0.2458  1.1991
 8180TIP3   OH246030   4.788   4.715   1.207  0.0859 -0.1414 -0.8324
 8180TIP3    H146031   4.878   4.709   1.240 -0.5261 -2.1921  0.7648
 8180TIP3    H246032   4.766   4.625   1.185 -1.8299  0.1946 -0.4147
 8181TIP3   OH246033   6.452   1.257  17.147 -0.1188  0.2897  0.3555
 8181TIP3    H146034   6.369   1.237  17.191 -0.3839 -1.5653 -0.8644
 8181TIP3    H246035   6.515   1.270  17.219 -1.2272  0.6799  1.2840
 8182TIP3   OH246036   5.313   2.450   5.545 -0.0429  0.0239 -0.4684
 8182TIP3    H146037   5.373   2.406   5.485  3.1158 -0.4895  2.6666
 8182TIP3    H246038   5.369   2.513   5.592 -1.8142 -0.7219  2.9685
 8183TIP3   OH246039   6.200   2.870   6.201  0.5235 -0.5744  1.0109
 8183TIP3    H146040   6.231   2.790   6.243 -0.1673 -0.7222  1.2597
 8183TIP3    H246041   6.225   2.940   6.261  2.2748 -0.4492  0.1817
 8184TIP3   OH246042   1.586   6.265  12.553  0.0643  0.4471  0.6155
 8184TIP3    H146043   1.495   6.270  12.583  0.9025 -0.3556  3.5988
 8184TIP3    H246044   1.615   6.356  12.549 -0.3062  0.6196  1.5854
 8185TIP3   OH246045   1.607   5.132   2.338  0.4841 -0.5379 -0.4862
 8185TIP3    H146046   1.540   5.121   2.271 -2.3930  0.4942  2.0040
 8185TIP3    H246047   1.611   5.048   2.383 -1.0240  0.1135  0.9267
 8186TIP3   OH246048   5.461   5.467  15.132  0.1915 -0.0705  1.0345
 8186TIP3    H146049   5.530   5.448  15.195  0.5841 -1.3303  0.2578
 8186TIP3    H246050   5.507   5.501  15.055  0.2392 -2.9080 -0.3001
 8187TIP3   OH246051   3.358   3.897   5.515  0.3101  0.1716  0.6646
 8187TIP3    H146052   3.287   3.915   5.576 -0.8123 -1.6742 -0.0281
 8187TIP3    H246053   3.353   3.803   5.498  2.9749 -0.0525  0.6278
 8188TIP3   OH246054   5.209   6.362   1.526  0.2029 -0.8238 -0.2471
 8188TIP3    H146055   5.191   6.445   1.482  2.1748 -0.4951 -0.5259
 8188TIP3    H246056   5.226   6.385   1.617 -1.6030 -1.2443  0.2404
 8189TIP3   OH246057   1.986   4.492  16.763 -0.4448  0.1640 -0.1138
 8189TIP3    H146058   1.920   4.503  16.831  0.1819 -0.1993  0.5767
 8189TIP3    H246059   2.068   4.479  16.811 -0.2524 -1.9730 -0.8685
 8190TIP3   OH246060   3.709   3.422  16.400  0.4441  0.2434 -0.5059
 8190TIP3    H146061   3.716   3.486  16.470  1.9998 -0.3122 -0.1222
 8190TIP3    H246062   3.800   3.398  16.379 -0.0557 -1.1490 -1.2580
 8191TIP3   OH246063   4.973   1.819  16.968  0.1538  0.1702  0.3717
 8191TIP3    H146064   4.907   1.761  17.006 -0.7848  0.4162 -0.8445
 8191TIP3    H246065   5.055   1.795  17.013 -0.0427 -2.5544 -0.5291
 8192TIP3   OH246066   4.642   4.829  11.575  0.5682  0.1340 -0.2752
 8192TIP3    H146067   4.564   4.837  11.630  0.6337 -0.3692 -0.0955
 8192TIP3    H246068   4.611   4.785  11.496 -0.0659  3.1633 -1.8338
 8193TIP3   OH246069   3.819   5.247  13.576 -0.4548 -0.7322 -0.2220
 8193TIP3    H146070   3.814   5.342  13.585 -1.4415 -0.7150 -0.7845
 8193TIP3    H246071   3.806   5.214  13.665  1.6660 -0.3209  0.2869
 8194TIP3   OH246072   1.587   2.361   3.956  0.2143 -0.2175 -0.5739
 8194TIP3    H146073   1.492   2.365   3.949 -0.0248 -1.1840  1.4436
 8194TIP3    H246074   1.612   2.292   3.894 -0.7576 -2.1252  1.0559
 8195TIP3   OH246075   0.364   3.069   3.106 -0.0346  0.4561 -0.0776
 8195TIP3    H146076   0.277   3.037   3.083 -0.2712 -0.1734  1.5427
 8195TIP3    H246077   0.416   2.990   3.119  0.5425  0.8142 -0.1596
 8196TIP3   OH246078   2.865   4.694   5.022  0.2339  0.1762  0.1374
 8196TIP3    H146079   2.827   4.759   4.964  0.6880  1.2483  0.9869
 8196TIP3    H246080   2.916   4.746   5.085  0.9463 -1.0346  0.5890
 8197TIP3   OH246081   0.510   0.418  16.229 -0.4708  0.1757  0.4471
 8197TIP3    H146082   0.513   0.354  16.300  2.4055 -0.1344  0.1652
 8197TIP3    H246083   0.428   0.398  16.182 -0.6755 -1.9225  1.5835
 8198TIP3   OH246084   0.752   3.945   3.687 -0.0753  0.6659 -0.2943
 8198TIP3    H146085   0.796   3.922   3.769 -0.9133 -0.8878 -0.2408
 8198TIP3    H246086   0.676   3.887   3.684 -0.2022  0.8935 -2.0518
 8199TIP3   OH246087   0.811   4.823   1.972  0.1339 -0.0799  0.9001
 8199TIP3    H146088   0.812   4.769   1.893  3.2498  0.3943  0.4881
 8199TIP3    H246089   0.844   4.909   1.943 -1.6997  1.1105  2.1426
 8200TIP3   OH246090   5.845   4.003  16.881  0.0386 -0.1283  1.0485
 8200TIP3    H146091   5.844   4.078  16.822 -0.3491 -1.3149 -0.5184
 8200TIP3    H246092   5.765   4.012  16.933  0.5184  1.0760  1.6109
 8201TIP3   OH246093   4.990   4.195  11.757 -0.0487 -0.2321  0.6247
 8201TIP3    H146094   5.068   4.172  11.707 -0.1409 -0.6710  0.6839
 8201TIP3    H246095   4.918   4.182  11.696 -0.5523 -4.1246  1.7785
 8202TIP3   OH246096   3.641   2.376   1.963 -0.1462 -0.4686  0.1286
 8202TIP3    H146097   3.665   2.297   1.915  1.1877 -0.7317  1.1735
 8202TIP3    H246098   3.559   2.354   2.006 -0.2881 -0.9257 -0.3609
 8203TIP3   OH246099   2.071   2.297   0.907 -0.1618 -0.2785  0.2615
 8203TIP3    H146100   1.981   2.313   0.878 -0.6373 -1.1655  1.1619
 8203TIP3    H246101   2.061   2.249   0.989  1.1418 -0.6609  0.2157
 8204TIP3   OH246102   2.381   5.559  15.921  0.3060 -0.2065 -0.1262
 8204TIP3    H146103   2.363   5.487  15.980 -1.0034 -0.8822 -1.2827
 8204TIP3    H246104   2.385   5.519  15.834  3.5214  0.5238 -0.4672
 8205TIP3   OH246105   4.574   1.234   1.207 -0.1898 -0.2249  0.5129
 8205TIP3    H146106   4.546   1.317   1.246 -1.2516 -0.2936 -0.0662
 8205TIP3    H246107   4.659   1.254   1.168 -0.4863  0.6447  0.2695
 8206TIP3   OH246108   4.453   4.671   6.878  0.3389 -0.3161 -0.2499
 8206TIP3    H146109   4.423   4.637   6.794  1.0912 -0.2951 -0.5356
 8206TIP3    H246110   4.541   4.635   6.888  1.7401  2.5537 -1.1964
 8207TIP3   OH246111   4.523   2.283   5.303 -0.1141  0.4627  0.0165
 8207TIP3    H146112   4.561   2.337   5.233 -0.0774  0.8498  0.3264
 8207TIP3    H246113   4.597   2.232   5.337  0.0381  0.8697  0.3067
 8208TIP3   OH246114   0.096   3.214   4.766  0.2397 -0.1201  0.1587
 8208TIP3    H146115   0.149   3.288   4.793  0.4379 -0.1933 -0.0285
 8208TIP3    H246116   0.153   3.138   4.779 -0.8324 -0.5495  2.9073
 8209TIP3   OH246117   6.403   3.647  15.836  0.5877 -0.0366  0.2541
 8209TIP3    H146118   6.427   3.559  15.865 -2.5614 -1.4101 -0.9010
 8209TIP3    H246119   6.374   3.691  15.916  0.5359 -0.6471  0.5792
 8210TIP3   OH246120   2.597   1.597   0.727 -0.3933 -0.6015 -0.0799
 8210TIP3    H146121   2.639   1.547   0.798 -0.1621  0.4961  0.5873
 8210TIP3    H246122   2.656   1.671   0.712 -3.1320  2.4746  2.6708
 8211TIP3   OH246123   3.313   5.871  11.551 -0.1856 -0.5148 -0.2813
 8211TIP3    H146124   3.385   5.842  11.607  0.3760 -4.3024 -2.6191
 8211TIP3    H246125   3.343   5.955  11.516  2.2840 -1.1166  0.2030
 8212TIP3   OH246126   1.494   0.113   4.344  0.3560  0.5203 -0.1390
 8212TIP3    H146127   1.556   0.159   4.287 -0.9616  1.7440 -0.6307
 8212TIP3    H246128   1.476   0.174   4.415  0.3824 -0.1908  0.5033
 8213TIP3   OH246129   3.437   5.042   5.342  0.2087  0.1858  0.3290
 8213TIP3    H146130   3.424   4.998   5.426  0.1958  0.3139  0.3945
 8213TIP3    H246131   3.479   5.125   5.365 -1.4574  1.0454  0.3864
 8214TIP3   OH246132   4.107   4.108  16.294  0.2087  0.4722 -0.0065
 8214TIP3    H146133   4.087   4.148  16.378 -1.0516  0.4197 -0.2655
 8214TIP3    H246134   4.047   4.034  16.288 -0.6903  1.2717 -1.5349
 8215TIP3   OH246135   3.386   0.189   4.331  0.0166  0.6069  0.2833
 8215TIP3    H146136   3.373   0.232   4.415  0.0121  2.6894 -0.7142
 8215TIP3    H246137   3.297   0.178   4.296  0.0082 -0.3769  0.5721
 8216TIP3   OH246138   4.876   6.369  16.915  0.2528 -0.1002 -0.2075
 8216TIP3    H146139   4.948   6.423  16.946  0.0203 -0.4430  0.9821
 8216TIP3    H246140   4.918   6.292  16.877  0.5480  0.4434 -1.0286
 8217TIP3   OH246141   0.369   2.088   0.497 -0.1331 -0.0874 -0.0812
 8217TIP3    H146142   0.380   2.101   0.403 -0.5633  3.5528  0.2367
 8217TIP3    H246143   0.404   2.000   0.513  0.8776 -0.4410 -3.4497
 8218TIP3   OH246144   0.313   3.223   5.084  0.1152  0.5042  0.0534
 8218TIP3    H146145   0.283   3.165   5.014 -0.1076  1.1487 -0.3940
 8218TIP3    H246146   0.370   3.168   5.137  1.2679  0.3044 -1.3092
 8219TIP3   OH246147   2.878   6.676  15.179 -0.5750 -0.9628  0.6332
 8219TIP3    H146148   2.821   6.628  15.119 -1.8807  0.6328  0.5542
 8219TIP3    H246149   2.831   6.756  15.200  0.4130 -0.8571  2.7959
 8220TIP3   OH246150   0.514   3.232  16.651 -0.5082 -0.0487  0.5935
 8220TIP3    H146151   0.506   3.300  16.584 -1.2339 -0.1106  0.6001
 8220TIP3    H246152   0.573   3.168  16.613 -0.8915 -0.0723  0.0163
 8221TIP3   OH246153   4.100   4.870   0.326 -0.0781  0.0896 -0.6605
 8221TIP3    H146154   4.125   4.778   0.318  1.9266  0.6816 -2.3583
 8221TIP3    H246155   4.023   4.879   0.270 -1.1974 -0.8011  0.6795
 8222TIP3   OH246156   0.611   5.732  13.105 -0.0101  0.3002  0.2118
 8222TIP3    H146157   0.603   5.800  13.172 -2.6417 -0.6961  1.0167
 8222TIP3    H246158   0.588   5.777  13.023 -2.0167  0.3696  0.7747
 8223TIP3   OH246159   1.915   0.437   1.372 -0.2249  0.7097  0.2295
 8223TIP3    H146160   1.946   0.526   1.387  0.1303  0.6014  0.1439
 8223TIP3    H246161   1.828   0.435   1.411 -0.5314  1.3025 -0.4118
 8224TIP3   OH246162   6.217   2.005  12.182 -0.4953  0.1704 -0.0343
 8224TIP3    H146163   6.170   1.939  12.234 -1.7234  0.9220 -0.1616
 8224TIP3    H246164   6.156   2.077  12.173  0.0756  0.4986 -1.6458
 8225TIP3   OH246165   3.973   1.567   3.879 -0.3875 -0.3972  0.2059
 8225TIP3    H146166   3.957   1.566   3.974 -2.7785  0.9885 -0.0906
 8225TIP3    H246167   4.016   1.652   3.864 -0.5472 -0.3533 -0.0034
 8226TIP3   OH246168   5.633   5.464  15.896  0.1703  0.2953 -0.2348
 8226TIP3    H146169   5.651   5.394  15.833  2.8733  1.6806 -1.1513
 8226TIP3    H246170   5.667   5.430  15.979 -1.8185 -0.8325  0.1906
 8227TIP3   OH246171   1.033   4.980   6.027 -0.0722 -0.0236  0.7045
 8227TIP3    H146172   1.127   4.975   6.043 -0.3356 -2.1196  1.8102
 8227TIP3    H246173   1.012   4.900   5.979 -1.3935  0.1027  1.0209
 8228TIP3   OH246174   2.893   1.188   4.461 -0.1766 -0.3174  0.2320
 8228TIP3    H146175   2.921   1.097   4.444 -1.4511 -0.3671 -1.9755
 8228TIP3    H246176   2.955   1.241   4.412 -0.2355 -0.0646  0.4314
 8229TIP3   OH246177   6.432   2.432  13.910  0.3112  0.1373  0.0411
 8229TIP3    H146178   6.459   2.476  13.829  0.8642  0.6459  0.4933
 8229TIP3    H246179   6.504   2.372  13.929 -0.2259 -0.6370 -0.3171
 8230TIP3   OH246180   0.357   1.299   1.206  0.2145  0.0715 -0.3762
 8230TIP3    H146181   0.308   1.373   1.241  1.2709  0.1850  0.9193
 8230TIP3    H246182   0.423   1.280   1.272 -0.6689 -2.7118 -0.1645
 8231TIP3   OH246183   2.676   2.811  13.335  0.3634 -0.0763  0.1735
 8231TIP3    H146184   2.738   2.816  13.263  1.0367 -0.2663  0.7302
 8231TIP3    H246185   2.721   2.759  13.402 -0.0220  0.5766  0.9503
 8232TIP3   OH246186   3.241   4.388   1.137 -0.4343 -0.2715  0.1926
 8232TIP3    H146187   3.214   4.412   1.048  0.1581 -0.6970 -0.1055
 8232TIP3    H246188   3.193   4.308   1.156 -0.2284 -0.4172  0.0926
 8233TIP3   OH246189   2.145   5.983  16.318  0.7880 -0.1813  0.1133
 8233TIP3    H146190   2.099   5.941  16.245  1.9117  1.4782 -1.6279
 8233TIP3    H246191   2.236   5.954  16.310  1.0122  0.3643  0.5913
 8234TIP3   OH246192   0.154   4.822   1.267 -0.3101  0.3289 -0.1845
 8234TIP3    H146193   0.062   4.800   1.251 -0.2145 -0.0954 -0.1647
 8234TIP3    H246194   0.159   4.835   1.362 -0.1748 -0.4943 -0.0729
 8235TIP3   OH246195   6.209   1.614   5.142 -0.2159  0.3337 -0.4763
 8235TIP3    H146196   6.212   1.667   5.221 -0.9510  0.1856 -0.3359
 8235TIP3    H246197   6.296   1.576   5.134 -0.5313 -0.8310  1.0781
 8236TIP3   OH246198   2.361   4.414  14.664 -0.3376 -0.3628 -0.8263
 8236TIP3    H146199   2.315   4.483  14.616  1.0069  1.4550  0.3170
 8236TIP3    H246200   2.328   4.332  14.628 -1.2820  0.8840 -2.9706
 8237TIP3   OH246201   6.455   1.698  11.593  0.5122 -0.0434  0.1996
 8237TIP3    H146202   6.527   1.708  11.656  0.6633 -0.6914  0.1313
 8237TIP3    H246203   6.472   1.615  11.549  0.2891  0.2911 -0.5498
 8238TIP3   OH246204   1.701   4.395  13.175 -0.7192  0.0724  0.2129
 8238TIP3    H146205   1.681   4.379  13.083  1.1449  2.0172 -0.6088
 8238TIP3    H246206   1.712   4.308  13.212 -1.4184 -0.7582 -1.4118
 8239TIP3   OH246207   2.541   2.660   4.774  0.1676 -0.6761 -0.1547
 8239TIP3    H146208   2.489   2.701   4.705  0.0345  2.4479  1.6389
 8239TIP3    H246209   2.514   2.704   4.854  4.0913 -0.3428  1.1728
 8240TIP3   OH246210   5.211   4.577  12.383 -0.2829 -0.0806 -0.3182
 8240TIP3    H146211   5.189   4.488  12.411  0.5380  0.3263  1.8530
 8240TIP3    H246212   5.307   4.578  12.381 -0.2093  1.1566  1.3709
 8241TIP3   OH246213   5.860   6.297   5.896  0.1802  0.0491  0.1007
 8241TIP3    H146214   5.946   6.334   5.878  1.3164 -2.3876  0.1975
 8241TIP3    H246215   5.842   6.241   5.821  0.8323 -3.0656  2.0970
 8242TIP3   OH246216   3.538   0.600  17.210  0.2589 -0.3847 -0.3481
 8242TIP3    H146217   3.486   0.649  17.274  1.5257  0.7568 -0.1396
 8242TIP3    H246218   3.549   0.661  17.136 -0.5245 -1.4016 -1.3266
 8243TIP3   OH246219   6.678   6.243   2.355  0.1693  1.1747 -0.1672
 8243TIP3    H146220   6.660   6.237   2.449 -0.1617  2.1298 -0.1580
 8243TIP3    H246221   6.701   6.154   2.329  0.0331  0.8554  0.7724
 8244TIP3   OH246222   0.325   1.891  13.116  0.1267 -0.5697  0.1931
 8244TIP3    H146223   0.263   1.855  13.179  0.2505 -0.5857  0.3057
 8244TIP3    H246224   0.270   1.932  13.049 -0.0068 -0.6660  0.2439
 8245TIP3   OH246225   3.457   5.705  16.178  0.2392  0.7593  0.2754
 8245TIP3    H146226   3.419   5.619  16.193 -0.5059  0.8582 -0.9292
 8245TIP3    H246227   3.480   5.706  16.085 -0.6480  2.1754  0.0398
 8246TIP3   OH246228   5.426   2.838  14.941  0.5198 -1.3737 -0.3316
 8246TIP3    H146229   5.360   2.843  14.872  0.9028 -0.5106 -0.6616
 8246TIP3    H246230   5.492   2.902  14.914  1.7660 -2.5975 -0.3125
 8247TIP3   OH246231   2.872   3.189  14.787  0.1449 -0.1711  0.0298
 8247TIP3    H146232   2.830   3.252  14.846 -0.7341 -0.7496  0.0435
 8247TIP3    H246233   2.890   3.240  14.708  1.2745  0.5970  0.7378
 8248TIP3   OH246234   5.081   1.929  11.401 -0.3647 -0.7141 -0.4280
 8248TIP3    H146235   5.161   1.948  11.352 -1.0099 -1.5972 -1.9207
 8248TIP3    H246236   5.050   2.014  11.431  0.2854 -0.1786 -1.2200
 8249TIP3   OH246237   2.729   0.623   5.255 -0.4694 -0.6220  0.3288
 8249TIP3    H146238   2.653   0.614   5.312 -2.0970 -3.2116 -2.0030
 8249TIP3    H246239   2.692   0.643   5.169  1.8681  3.2033 -0.0465
 8250TIP3   OH246240   3.351   0.764   5.505 -0.4272  0.2181 -0.4174
 8250TIP3    H146241   3.445   0.780   5.509 -0.1308 -1.5180  0.3493
 8250TIP3    H246242   3.314   0.846   5.471  1.3032  1.0693 -0.3415
 8251TIP3   OH246243   5.141   0.704   1.116 -0.3035  0.2582 -0.0289
 8251TIP3    H146244   5.120   0.763   1.189 -1.6007 -0.7281  0.4478
 8251TIP3    H246245   5.225   0.735   1.083 -0.4478  1.7106  0.8732
 8252TIP3   OH246246   1.828   0.072  12.007  0.0788  0.2743  0.3153
 8252TIP3    H146247   1.870   0.110  11.930  0.9697 -0.0163  0.6445
 8252TIP3    H246248   1.833  -0.023  11.993  0.8474  0.1969  1.0201
 8253TIP3   OH246249   6.239   2.919   1.047 -0.6380  0.6071 -0.9258
 8253TIP3    H146250   6.326   2.902   1.013 -0.4125  3.1262 -1.8599
 8253TIP3    H246251   6.222   3.011   1.023 -2.5277  0.9591  1.4211
 8254TIP3   OH246252   2.014   3.748  15.616 -0.0604 -0.1819  0.2645
 8254TIP3    H146253   2.045   3.665  15.579 -1.4957 -0.5375 -0.1862
 8254TIP3    H246254   2.036   3.813  15.549  0.7535 -0.2255  0.4687
 8255TIP3   OH246255   2.011   0.692   1.029  0.0698  0.1751 -0.8046
 8255TIP3    H146256   2.068   0.647   1.091  2.1146  2.5963 -0.7605
 8255TIP3    H246257   2.009   0.782   1.061 -1.0969  0.8796 -2.7381
 8256TIP3   OH246258   3.777   6.128   3.455 -0.5845  0.4979  0.0558
 8256TIP3    H146259   3.766   6.177   3.373  1.6415  1.5908  0.3195
 8256TIP3    H246260   3.833   6.054   3.431 -2.8424 -1.2963 -0.0599
 8257TIP3   OH246261   3.922   4.152  13.594 -0.1331 -0.2243  0.1127
 8257TIP3    H146262   3.873   4.190  13.521 -0.4126  1.1156  0.9498
 8257TIP3    H246263   3.923   4.058  13.577 -0.9393 -0.0211 -1.1556
 8258TIP3   OH246264   4.026   2.907  11.973 -0.7243  0.2331 -0.3482
 8258TIP3    H146265   4.120   2.898  11.957 -0.6858  2.1473 -1.4777
 8258TIP3    H246266   4.017   2.897  12.068  0.7384  0.9123 -0.1135
 8259TIP3   OH246267   4.953   2.921  12.788 -0.1558  0.1766 -0.4657
 8259TIP3    H146268   5.001   2.917  12.706  1.1425  1.4224  0.1872
 8259TIP3    H246269   4.988   2.848  12.839 -0.1241  0.1069 -0.5867
 8260TIP3   OH246270   3.063   3.037  13.484 -0.4436  0.0156  0.1442
 8260TIP3    H146271   3.141   3.059  13.433  0.0078  2.0888  1.5764
 8260TIP3    H246272   3.020   3.121  13.499 -1.0301 -0.6025  2.3271
 8261TIP3   OH246273   0.884   0.288  16.128  0.5795  0.1848  0.2647
 8261TIP3    H146274   0.900   0.369  16.080  0.9438 -0.1902 -0.2669
 8261TIP3    H246275   0.803   0.303  16.176 -0.3807  0.2120 -1.2856
 8262TIP3   OH246276   1.919   6.038  13.552 -0.1584 -0.3798  0.1083
 8262TIP3    H146277   1.856   5.966  13.559 -2.4513  1.4374 -0.7817
 8262TIP3    H246278   1.893   6.100  13.619 -0.1255  0.9705 -1.0776
 8263TIP3   OH246279   5.802   0.710   4.781  0.6255 -0.4986 -0.0573
 8263TIP3    H146280   5.753   0.628   4.776  1.8326 -1.1888 -0.9175
 8263TIP3    H246281   5.734   0.777   4.791 -0.3789 -1.5837  0.7302
 8264TIP3   OH246282   5.332   3.768   5.400  0.4337 -0.6919  0.2551
 8264TIP3    H146283   5.365   3.684   5.432 -0.3140 -0.9128  0.4656
 8264TIP3    H246284   5.402   3.800   5.343  2.1619  0.0623  2.6191
 8265TIP3   OH246285   0.553   2.977  14.525 -0.5547 -0.3647  0.1891
 8265TIP3    H146286   0.556   2.952  14.432 -2.4720  0.4382 -0.1341
 8265TIP3    H246287   0.640   3.013  14.542  0.2002 -1.5307 -0.9894
 8266TIP3   OH246288   4.672   1.126   0.135 -0.2691 -0.0008  0.3975
 8266TIP3    H146289   4.631   1.089   0.213 -1.2382  0.7818  0.2863
 8266TIP3    H246290   4.765   1.131   0.156 -0.6419  1.1807  1.9263
 8267TIP3   OH246291   5.315   6.053   2.870  0.4352 -0.2408  0.0862
 8267TIP3    H146292   5.330   5.966   2.834 -1.1700 -0.3149 -0.5052
 8267TIP3    H246293   5.267   6.037   2.952  1.5481  0.0395  0.8060
 8268TIP3   OH246294   0.224   6.797  16.218 -0.6772  0.9019  0.2559
 8268TIP3    H146295   0.222   6.744  16.297 -1.8065  1.2174  0.4545
 8268TIP3    H246296   0.309   6.840  16.220 -0.8042  1.1200  1.4412
 8269TIP3   OH246297   5.720   5.228  11.709  0.2472  0.8707  0.8277
 8269TIP3    H146298   5.752   5.276  11.632 -0.6460 -0.1030 -0.1820
 8269TIP3    H246299   5.710   5.296  11.776 -0.5667  2.0632 -0.4247
 8270TIP3   OH246300   0.875   0.354  16.806 -0.3622  0.2551 -0.5356
 8270TIP3    H146301   0.956   0.403  16.824 -0.4016  0.3842 -0.7048
 8270TIP3    H246302   0.820   0.416  16.759 -0.3361 -0.0154 -0.9264
 8271TIP3   OH246303   5.931   2.633   3.376  0.0236  0.0122  0.1882
 8271TIP3    H146304   5.932   2.627   3.472  1.3063  1.5763  0.3068
 8271TIP3    H246305   5.897   2.548   3.347 -0.0336 -0.6257  2.0060
 8272TIP3   OH246306   1.678   1.319  13.528 -0.0891 -0.2877 -0.2290
 8272TIP3    H146307   1.596   1.330  13.479  0.4967 -1.3856 -1.5174
 8272TIP3    H246308   1.726   1.252  13.479  2.2076  1.3222 -0.3242
 8273TIP3   OH246309   6.802   0.426  10.380  0.4520  0.2317  0.2247
 8273TIP3    H146310   6.720   0.441  10.427 -0.1453  1.2462 -1.0691
 8273TIP3    H246311   6.830   0.339  10.407 -1.2918 -0.3328  0.3354
 8274TIP3   OH246312   4.328   3.933   5.343  0.0105 -0.1730 -0.2341
 8274TIP3    H146313   4.383   3.947   5.420 -0.5188 -2.6491  0.6767
 8274TIP3    H246314   4.242   3.911   5.379 -0.1756 -1.6335 -1.4800
 8275TIP3   OH246315   3.309   1.146   0.264 -0.2923 -0.0985 -0.1798
 8275TIP3    H146316   3.324   1.198   0.185  3.8962  1.3069  1.2846
 8275TIP3    H246317   3.259   1.204   0.321  2.3417  1.6674  0.5425
 8276TIP3   OH246318   0.421   5.744   0.788 -0.3707 -0.5912  0.1619
 8276TIP3    H146319   0.498   5.689   0.803 -0.8712 -1.4589 -0.3546
 8276TIP3    H246320   0.403   5.784   0.873  1.0357  0.1487  0.1349
 8277TIP3   OH246321   5.303   5.661  15.470 -0.2690 -0.2260 -0.2563
 8277TIP3    H146322   5.225   5.669  15.415 -0.0786  0.0963 -0.4853
 8277TIP3    H246323   5.320   5.567  15.475 -0.4065 -0.2703 -0.5783
 8278TIP3   OH246324   4.441   2.201  14.623 -0.1433 -0.4259 -0.1917
 8278TIP3    H146325   4.378   2.139  14.586 -0.9496  0.7830 -0.9406
 8278TIP3    H246326   4.437   2.186  14.718  1.4797 -3.1311 -0.4639
 8279TIP3   OH246327   4.857   6.699   5.665  0.1880 -0.6937 -0.0505
 8279TIP3    H146328   4.923   6.756   5.623 -0.6378  0.9696  0.8074
 8279TIP3    H246329   4.777   6.715   5.615 -0.7041  0.9810  1.7811
 8280TIP3   OH246330   3.590   6.511  13.228 -0.5015 -0.0549 -0.1066
 8280TIP3    H146331   3.500   6.480  13.235 -0.6772  0.3656 -0.4340
 8280TIP3    H246332   3.637   6.462  13.295 -0.8418 -0.7411 -0.3623
 8281TIP3   OH246333   5.121   6.498   1.310 -0.7314  0.8282  0.4177
 8281TIP3    H146334   5.029   6.477   1.326 -0.9869 -0.3648 -2.0116
 8281TIP3    H246335   5.119   6.571   1.248 -0.0956  0.1729 -0.4050
 8282TIP3   OH246336   5.621   1.637   2.017 -0.0927 -0.1980 -0.2284
 8282TIP3    H146337   5.565   1.709   2.046  1.2213  0.4604  0.7959
 8282TIP3    H246338   5.563   1.581   1.966 -1.5518  0.7129  0.3519
 8283TIP3   OH246339   3.121   5.116   1.524  0.0573 -0.2557  0.1004
 8283TIP3    H146340   3.136   5.185   1.588  2.8643 -0.0821 -0.6214
 8283TIP3    H246341   3.188   5.050   1.543 -0.2650 -1.0866 -1.4598
 8284TIP3   OH246342   1.338   2.725   5.028 -0.5404 -0.0250 -0.0721
 8284TIP3    H146343   1.424   2.702   5.065 -0.4791 -0.1410 -0.2842
 8284TIP3    H246344   1.299   2.641   5.004  0.3607  0.1446 -2.3470
 8285TIP3   OH246345   1.926   2.862  15.259 -0.1992 -0.4130 -0.5012
 8285TIP3    H146346   1.964   2.823  15.338  1.2478  0.9786 -0.4501
 8285TIP3    H246347   1.847   2.811  15.243  0.3157 -1.7564  0.9257
 8286TIP3   OH246348   5.135   5.840  13.697  0.2176 -0.2854 -0.3145
 8286TIP3    H146349   5.150   5.929  13.728  1.4489  0.6872 -3.2722
 8286TIP3    H246350   5.156   5.784  13.771  1.5966  1.8212  0.9839
 8287TIP3   OH246351   4.648   4.268   5.334 -0.0380 -0.1331 -0.8370
 8287TIP3    H146352   4.558   4.277   5.304  0.1664  0.5652 -1.2574
 8287TIP3    H246353   4.644   4.285   5.428 -0.3828 -0.3693 -0.8083
 8288TIP3   OH246354   4.852   5.324   2.264  0.1017 -0.0683 -0.3223
 8288TIP3    H146355   4.770   5.288   2.300  0.7164 -1.8837 -0.6449
 8288TIP3    H246356   4.884   5.256   2.205  1.9839  0.4976 -0.0099
 8289TIP3   OH246357   0.022   0.736  15.748 -0.0646 -0.5996  0.2447
 8289TIP3    H146358  -0.047   0.675  15.723 -1.0943  0.5755  0.1015
 8289TIP3    H246359  -0.014   0.823  15.727  1.5504  0.0434 -0.0772
 8290TIP3   OH246360   1.660   3.270   4.851  0.0766  0.4090  0.2283
 8290TIP3    H146361   1.573   3.250   4.818  0.4132 -0.2340 -0.2925
 8290TIP3    H246362   1.688   3.190   4.895  1.7788 -0.6720 -2.6014
 8291TIP3   OH246363   1.328   0.509  12.990 -0.0083  0.4483  0.3779
 8291TIP3    H146364   1.335   0.426  13.038  0.1458  1.2571  1.8122
 8291TIP3    H246365   1.235   0.521  12.976 -0.0332  0.0449  0.1708
 8292TIP3   OH246366   0.738   1.268  17.144 -0.4290 -0.4440  0.2845
 8292TIP3    H146367   0.677   1.276  17.217 -0.5063  0.5723  0.1201
 8292TIP3    H246368   0.721   1.345  17.090 -0.0761 -0.9607 -0.5814
 8293TIP3   OH246369   0.592   2.992   0.810  0.3834  0.1540 -0.5866
 8293TIP3    H146370   0.502   2.975   0.839  0.4809 -1.4266 -1.1394
 8293TIP3    H246371   0.644   2.987   0.891 -0.0111  1.0634 -0.2659
 8294TIP3   OH246372   4.466   1.514  11.072 -0.4689  0.6039  0.1827
 8294TIP3    H146373   4.547   1.476  11.039 -1.3649 -2.5384  1.2620
 8294TIP3    H246374   4.487   1.606  11.086  2.7667  0.0092  0.0174
 8295TIP3   OH246375   5.148   5.842  11.180  0.5200 -0.2316  0.2782
 8295TIP3    H146376   5.105   5.927  11.190  0.7559 -0.0883  0.0842
 8295TIP3    H246377   5.154   5.829  11.086  0.3190 -0.5515  0.3072
 8296TIP3   OH246378   0.312   3.985   4.577 -0.2579 -0.3477 -0.2823
 8296TIP3    H146379   0.322   4.074   4.543  0.2982 -0.1192  0.4549
 8296TIP3    H246380   0.365   3.931   4.518 -0.0082 -0.0829 -0.3002
 8297TIP3   OH246381   1.806   4.468  15.994  0.4200  0.4461 -0.1761
 8297TIP3    H146382   1.724   4.440  15.955 -0.2169 -0.8648  1.9451
 8297TIP3    H246383   1.783   4.546  16.045  0.8006  0.8826 -0.6574
 8298TIP3   OH246384   4.838   5.615   3.086 -0.1591 -0.5122  0.3333
 8298TIP3    H146385   4.849   5.688   3.024 -0.6077 -0.4759  0.2984
 8298TIP3    H246386   4.754   5.631   3.128  0.6338  0.0689  1.7668
 8299TIP3   OH246387   5.704   6.796   2.948 -0.3578 -0.7192 -0.5742
 8299TIP3    H146388   5.721   6.889   2.939 -0.8036 -0.7328 -1.7565
 8299TIP3    H246389   5.652   6.788   3.028  0.3313 -0.0528 -0.0535
 8300TIP3   OH246390   5.315   0.832  11.973  0.3722 -0.3114  0.0443
 8300TIP3    H146391   5.309   0.812  11.880  1.3866  0.1416 -0.1251
 8300TIP3    H246392   5.394   0.885  11.982 -0.9400  1.6447  0.8211
 8301TIP3   OH246393   5.605   6.339   1.357  0.2986  0.6108 -0.0022
 8301TIP3    H146394   5.548   6.338   1.434 -0.6413 -0.1030 -0.6862
 8301TIP3    H246395   5.546   6.345   1.283  1.1648  0.6856 -0.7066
 8302TIP3   OH246396   6.500   4.786   4.889  0.1820  0.7024  0.2643
 8302TIP3    H146397   6.434   4.852   4.868  0.0261  0.6893  0.6977
 8302TIP3    H246398   6.514   4.739   4.807  0.0985  1.1014  0.0199
 8303TIP3   OH246399   4.661   3.208   1.067  0.4056 -0.3433  0.0385
 8303TIP3    H146400   4.751   3.187   1.092  1.5947  2.2290 -1.5803
 8303TIP3    H246401   4.665   3.300   1.042 -3.0484  0.3157  1.3342
 8304TIP3   OH246402   3.463   2.189   2.273 -0.1200  0.5122 -0.1702
 8304TIP3    H146403   3.438   2.144   2.192  0.0818 -1.6270  0.8887
 8304TIP3    H246404   3.397   2.161   2.337  1.3123 -0.1133  1.0834
 8305TIP3   OH246405   4.503   0.983   4.527  0.1405  0.4703 -0.3022
 8305TIP3    H146406   4.477   0.922   4.596 -2.5768  1.3272 -0.4560
 8305TIP3    H246407   4.568   1.040   4.568 -1.2009  0.7790  1.4955
 8306TIP3   OH246408   6.388   6.553   1.300 -0.2325  0.0201  0.4824
 8306TIP3    H146409   6.311   6.568   1.246  0.6779  0.2029 -0.8183
 8306TIP3    H246410   6.460   6.544   1.237  1.1227  1.7314  1.7046
 8307TIP3   OH246411   2.618   5.264   1.447 -0.1421 -0.3460 -0.4901
 8307TIP3    H146412   2.706   5.238   1.475  1.2138  1.1688 -2.9386
 8307TIP3    H246413   2.587   5.322   1.516  1.1351 -0.2811  0.0640
 8308TIP3   OH246414   5.227   0.269  15.090  0.3456  0.8078 -0.1415
 8308TIP3    H146415   5.269   0.346  15.053  2.1384  0.5939  1.2709
 8308TIP3    H246416   5.290   0.198  15.074 -0.2291  0.1248  0.5609
 8309TIP3   OH246417   6.756   6.404  15.409 -0.3488 -0.3264  0.3660
 8309TIP3    H146418   6.777   6.490  15.445 -2.6276  0.7904 -0.7675
 8309TIP3    H246419   6.676   6.418  15.359 -1.2645 -3.2898  0.8081
 8310TIP3   OH246420   2.849   3.442   4.254  0.9176  0.0317 -0.1766
 8310TIP3    H146421   2.824   3.381   4.323  0.3232 -0.2918 -0.6619
 8310TIP3    H246422   2.825   3.397   4.173  1.3526  0.5182 -0.5817
 8311TIP3   OH246423   1.187   1.347   1.455  0.0468 -0.4435 -0.2637
 8311TIP3    H146424   1.240   1.363   1.377 -0.6994  0.6291 -0.5756
 8311TIP3    H246425   1.207   1.420   1.514  0.2648 -1.0019  0.3637
 8312TIP3   OH246426   0.137   1.963   0.324 -0.0402  0.6653  0.2168
 8312TIP3    H146427   0.046   1.980   0.351 -0.3082  1.2102 -0.9772
 8312TIP3    H246428   0.150   1.870   0.341 -1.3008  0.2595 -0.9177
 8313TIP3   OH246429   5.838   3.914   2.924 -0.2947  0.0894 -0.5238
 8313TIP3    H146430   5.914   3.863   2.896 -1.3418 -1.9655  0.1755
 8313TIP3    H246431   5.863   3.950   3.009  0.9076  1.8593 -1.5657
 8314TIP3   OH246432   2.237   3.453   3.226 -0.5762 -0.5491  0.0034
 8314TIP3    H146433   2.325   3.460   3.263 -0.7656 -1.3085  0.6522
 8314TIP3    H246434   2.242   3.494   3.140  0.2901 -0.1672  0.2336
 8315TIP3   OH246435   0.565   4.670  16.447  0.1295  0.2071  0.4615
 8315TIP3    H146436   0.487   4.717  16.478 -1.5447 -0.9866 -1.6529
 8315TIP3    H246437   0.593   4.719  16.370 -0.0742 -0.7885 -0.2600
 8316TIP3   OH246438   2.950   3.591   5.226  0.6750 -0.2362  0.0991
 8316TIP3    H146439   2.930   3.601   5.133  0.4891 -0.8253  0.0716
 8316TIP3    H246440   2.935   3.678   5.263  2.8465  0.5939 -0.7945
 8317TIP3   OH246441   6.643   3.011   1.774 -0.2378  0.0348  0.6329
 8317TIP3    H146442   6.669   3.013   1.682 -2.4565 -0.5153 -0.0724
 8317TIP3    H246443   6.665   2.922   1.802  0.1831  0.1104  0.5488
 8318TIP3   OH246444   5.203   5.804   0.152 -0.1043 -0.4933 -0.2378
 8318TIP3    H146445   5.231   5.815   0.243  1.2659 -0.5183 -0.6356
 8318TIP3    H246446   5.283   5.818   0.101 -1.2740  1.8935 -1.5917
 8319TIP3   OH246447   0.341   4.257  10.537  0.1093  0.5776 -0.6409
 8319TIP3    H146448   0.260   4.272  10.487 -0.0705  0.6210 -0.3403
 8319TIP3    H246449   0.397   4.207  10.477 -0.6215 -0.5589 -0.4134
 8320TIP3   OH246450   0.967   5.700  16.863 -0.5748 -0.1960  0.6779
 8320TIP3    H146451   0.905   5.714  16.792 -0.7239 -1.8495  0.4453
 8320TIP3    H246452   1.053   5.715  16.823 -0.7394  0.5785  0.6044
 8321TIP3   OH246453   4.963   5.901   4.602 -0.5938 -0.9122  0.3582
 8321TIP3    H146454   5.041   5.859   4.566  0.3758 -0.9951  2.4044
 8321TIP3    H246455   4.893   5.879   4.541  0.9778 -0.7531 -1.5953
 8322TIP3   OH246456   2.645   1.410   0.934 -0.0236  0.4671 -0.3110
 8322TIP3    H146457   2.556   1.376   0.944 -0.1299  0.3757 -1.4601
 8322TIP3    H246458   2.700   1.346   0.979 -0.3822 -0.3851 -1.0538
 8323TIP3   OH246459   4.464   4.764   4.137 -0.8689 -0.5453 -0.0688
 8323TIP3    H146460   4.416   4.710   4.075 -0.3104 -0.0280 -0.9764
 8323TIP3    H246461   4.474   4.709   4.215 -1.4727 -1.2480 -0.4832
 8324TIP3   OH246462   2.895   6.429  13.991  0.6178  0.2110 -0.5688
 8324TIP3    H146463   2.858   6.426  14.079  1.1633  0.1090 -0.3391
 8324TIP3    H246464   2.826   6.467  13.937  1.0393  2.2732  0.2759
 8325TIP3   OH246465   1.823   1.403  16.675  0.2214  0.2658  0.0161
 8325TIP3    H146466   1.862   1.353  16.602  0.9630  1.2553 -0.2934
 8325TIP3    H246467   1.874   1.376  16.752 -0.4651 -0.6690  0.1667
 8326TIP3   OH246468   5.365   6.645   5.910  0.3787  0.0834  0.2879
 8326TIP3    H146469   5.407   6.605   5.834 -1.2932  0.6784 -1.0129
 8326TIP3    H246470   5.379   6.582   5.981  1.2507 -0.8845 -0.6967
 8327TIP3   OH246471   3.695   4.174   2.043 -0.9502 -0.4908  0.4904
 8327TIP3    H146472   3.686   4.258   1.997 -0.8998 -1.1105 -0.6881
 8327TIP3    H246473   3.694   4.197   2.136 -0.1279  0.8935  0.1805
 8328TIP3   OH246474   4.005   4.350  14.597 -0.4135  0.5766 -0.6212
 8328TIP3    H146475   4.066   4.424  14.600  0.4006  0.0686 -2.5791
 8328TIP3    H246476   4.061   4.274  14.580 -1.3172 -0.4008  0.5396
 8329TIP3   OH246477   4.198   1.280   1.543 -0.5622 -0.0607  0.1649
 8329TIP3    H146478   4.142   1.350   1.508  0.3083  0.5582 -0.0236
 8329TIP3    H246479   4.160   1.200   1.509 -2.0945  0.2330  1.0683
 8330TIP3   OH246480   0.820   4.141   2.623  0.7498  0.3275 -0.1545
 8330TIP3    H146481   0.756   4.143   2.552  0.6685  2.5608 -0.0822
 8330TIP3    H246482   0.844   4.233   2.636  1.2672 -0.0914  2.2706
 8331TIP3   OH246483   6.176   4.721  12.521 -0.5874  0.5649 -0.0225
 8331TIP3    H146484   6.168   4.686  12.432 -3.7737  2.8981 -0.8481
 8331TIP3    H246485   6.098   4.690  12.566  0.5500  0.1387  1.7638
 8332TIP3   OH246486   6.614   6.510  16.648  0.7681  0.0326  0.0350
 8332TIP3    H146487   6.519   6.514  16.652  0.6757 -1.7271  0.2602
 8332TIP3    H246488   6.634   6.507  16.554  0.5708 -0.1677 -0.0002
 8333TIP3   OH246489   4.651   4.392   3.406 -0.3996  0.2621  0.5480
 8333TIP3    H146490   4.737   4.357   3.431 -1.2318 -3.2119 -0.8603
 8333TIP3    H246491   4.599   4.384   3.486 -0.0121  0.2869  0.8097
 8334TIP3   OH246492   6.312   0.600  17.195  0.4436  0.1816 -0.1876
 8334TIP3    H146493   6.352   0.574  17.113 -0.3549  1.3324 -0.9819
 8334TIP3    H246494   6.345   0.689  17.211 -1.1245  0.8552 -0.4781
 8335TIP3   OH246495   5.912   2.312  15.029 -0.5671  0.3344  0.2847
 8335TIP3    H146496   5.916   2.351  15.116  0.3057  1.4325 -0.2136
 8335TIP3    H246497   5.818   2.298  15.013 -0.6416 -1.9510  2.2292
 8336TIP3   OH246498   3.110   2.788  14.441  0.8013 -0.1226  0.2813
 8336TIP3    H146499   3.161   2.747  14.511 -0.3726 -0.2762  1.0891
 8336TIP3    H246500   3.076   2.869  14.481 -1.4366 -1.1362  0.5675
 8337TIP3   OH246501   2.261   0.275   1.391  0.1994 -0.0200 -0.4289
 8337TIP3    H146502   2.184   0.219   1.390  0.6162 -0.6199  0.0631
 8337TIP3    H246503   2.238   0.348   1.448 -0.6726  0.8038 -1.7934
 8338TIP3   OH246504   0.845   0.453  12.248  0.6324 -0.2563  0.5139
 8338TIP3    H146505   0.762   0.494  12.224  0.5712 -0.0719  1.0293
 8338TIP3    H246506   0.837   0.435  12.341  1.7582  1.1682  0.9156
 8339TIP3   OH246507   0.443   2.661  16.447 -0.0997 -0.1175  0.1638
 8339TIP3    H146508   0.467   2.685  16.536 -1.3186 -0.7872  0.6890
 8339TIP3    H246509   0.392   2.580  16.456 -1.6871  0.6933 -0.9531
 8340TIP3   OH246510   2.467   3.741  10.981  0.0142 -0.4567  0.0248
 8340TIP3    H146511   2.426   3.667  10.935  0.4711 -0.3765 -0.5156
 8340TIP3    H246512   2.486   3.804  10.912 -2.8170  1.3807  0.7612
 8341TIP3   OH246513   6.325   5.534   3.648 -0.6974  0.3236  0.2400
 8341TIP3    H146514   6.253   5.478   3.621  0.1908 -1.7351  1.9076
 8341TIP3    H246515   6.299   5.622   3.620 -1.8764 -0.9159 -2.9995
 8342TIP3   OH246516   2.368   0.000   1.544  0.5595  0.1449  0.9968
 8342TIP3    H146517   2.278  -0.017   1.518  0.7608  0.7167 -0.1501
 8342TIP3    H246518   2.361   0.066   1.613  0.1023  0.1545  0.9430
 8343TIP3   OH246519   6.706   5.019  16.150 -0.4416 -0.1624  0.0575
 8343TIP3    H146520   6.783   5.048  16.102 -0.6234 -0.3846 -0.3792
 8343TIP3    H246521   6.729   4.932  16.184 -0.8385 -0.6594 -0.9095
 8344TIP3   OH246522   1.484   0.564   2.582  0.7790 -0.4015  0.0547
 8344TIP3    H146523   1.511   0.505   2.653 -0.0074 -0.3356  0.4235
 8344TIP3    H246524   1.399   0.530   2.554  0.0091  0.9068  0.6980
 8345TIP3   OH246525   6.415   0.760  13.104  0.4170 -0.1193  0.8151
 8345TIP3    H146526   6.381   0.693  13.044  1.2944  1.0944 -1.1412
 8345TIP3    H246527   6.372   0.841  13.076  1.6073  0.6585  1.1714
 8346TIP3   OH246528   2.916   1.272  15.191  0.6592  0.1481  0.1308
 8346TIP3    H146529   3.011   1.279  15.179  0.4613  0.3408 -1.4613
 8346TIP3    H246530   2.881   1.351  15.151 -0.2071 -0.1229  0.3393
 8347TIP3   OH246531   5.883   0.468   5.659  0.6425 -0.0987 -0.5026
 8347TIP3    H146532   5.927   0.492   5.741  0.3583 -1.4838  0.0981
 8347TIP3    H246533   5.823   0.398   5.685 -0.3184  0.2595 -1.7000
 8348TIP3   OH246534   3.675   3.105   4.720 -0.3890  0.6463  0.2289
 8348TIP3    H146535   3.615   3.138   4.652 -3.3049 -0.1439  2.1978
 8348TIP3    H246536   3.620   3.047   4.773  2.5017 -1.1034  1.5601
 8349TIP3   OH246537   3.447   5.217   1.361 -0.3562  0.6952 -0.3927
 8349TIP3    H146538   3.355   5.234   1.383 -0.0866 -1.1079  2.9236
 8349TIP3    H246539   3.497   5.272   1.422  0.6035 -1.3362  0.7880
 8350TIP3   OH246540   1.433   5.206   5.106  0.0064  0.2360 -0.0638
 8350TIP3    H146541   1.438   5.216   5.011 -0.0455  1.1432  0.0220
 8350TIP3    H246542   1.444   5.112   5.121  0.3254  0.1271 -0.9442
 8351TIP3   OH246543   0.048   4.799  16.319 -0.3862  0.1342  0.7366
 8351TIP3    H146544   0.135   4.834  16.299 -1.2246  0.8345 -2.3142
 8351TIP3    H246545   0.035   4.729  16.255 -1.4971 -1.0603  2.1799
 8352TIP3   OH246546   5.579   3.418   1.513 -0.2265 -0.2031 -0.4815
 8352TIP3    H146547   5.554   3.506   1.542 -0.4057 -0.0409 -1.1122
 8352TIP3    H246548   5.674   3.421   1.505 -0.1566 -0.2983  0.2298
 8353TIP3   OH246549   6.672   6.733   4.794 -0.2307  0.3326  0.3368
 8353TIP3    H146550   6.753   6.780   4.771 -0.9286  0.9408 -0.9947
 8353TIP3    H246551   6.672   6.730   4.889  1.7210 -0.3030  0.3630
 8354TIP3   OH246552   3.530   2.102   4.220 -0.1992 -0.1314 -0.3691
 8354TIP3    H146553   3.488   2.060   4.295 -0.8974 -0.2911 -0.8379
 8354TIP3    H246554   3.473   2.175   4.198  0.0586 -0.0186 -0.6772
 8355TIP3   OH246555   3.139   0.054   2.341  0.2919  0.0259 -0.6503
 8355TIP3    H146556   3.227   0.017   2.347 -1.1979 -3.8048  0.9399
 8355TIP3    H246557   3.153   0.144   2.312  4.5441 -0.9827 -2.5721
 8356TIP3   OH246558   3.391   6.639  16.150 -0.0694  0.5583 -0.7064
 8356TIP3    H146559   3.474   6.633  16.102 -0.1037 -1.0399 -0.6005
 8356TIP3    H246560   3.362   6.729  16.136  0.6846  0.5698 -2.4225
 8357TIP3   OH246561   5.649   4.515  11.695 -0.0114 -0.3408 -0.5656
 8357TIP3    H146562   5.669   4.566  11.773  0.9767 -2.4147  0.6446
 8357TIP3    H246563   5.634   4.426  11.728 -0.0375 -1.1801 -2.6827
 8358TIP3   OH246564   1.314   2.183  10.765 -0.7881 -0.5779 -0.6706
 8358TIP3    H146565   1.276   2.248  10.706  0.4742 -1.2860 -2.3243
 8358TIP3    H246566   1.406   2.208  10.772 -0.8975 -0.5422  0.9984
 8359TIP3   OH246567   1.359   6.294  11.773  0.4135  0.4113  0.4171
 8359TIP3    H146568   1.401   6.310  11.857 -0.6901 -1.0393  1.3044
 8359TIP3    H246569   1.429   6.300  11.708  1.8799 -1.2890  1.7641
 8360TIP3   OH246570   3.402   2.587  15.144 -0.7165  0.4101 -0.3098
 8360TIP3    H146571   3.350   2.606  15.222  0.9826  0.1243  0.9475
 8360TIP3    H246572   3.441   2.672  15.120  1.1451 -0.0088  1.0062
 8361TIP3   OH246573   0.967   6.302   4.849 -0.1126 -0.3486  0.1620
 8361TIP3    H146574   1.047   6.258   4.877 -0.1509  0.6551  2.0407
 8361TIP3    H246575   0.988   6.396   4.855 -0.4903 -0.0385 -2.3210
 8362TIP3   OH246576   5.031   6.516  15.338  0.1347  0.0480 -0.5820
 8362TIP3    H146577   5.118   6.503  15.301  0.5318  0.6835  0.0850
 8362TIP3    H246578   4.971   6.503  15.264  0.8869  1.0575 -1.4057
 8363TIP3   OH246579   6.123   0.018  12.775  0.6149 -0.1833  0.0877
 8363TIP3    H146580   6.211   0.055  12.766 -0.3011  2.3753  0.5699
 8363TIP3    H246581   6.065   0.095  12.773 -1.6269 -1.7870 -0.3607
 8364TIP3   OH246582   5.627   1.969   4.189 -0.6811 -0.1317 -0.1417
 8364TIP3    H146583   5.670   1.891   4.153 -0.4223  0.1407 -0.4216
 8364TIP3    H246584   5.690   2.003   4.254 -0.6268  0.0618 -0.2947
 8365TIP3   OH246585   4.248   3.324  11.626  0.3348 -0.0569  0.0077
 8365TIP3    H146586   4.210   3.239  11.651 -0.3393  0.7884  2.0630
 8365TIP3    H246587   4.195   3.353  11.552  1.0578 -1.7422 -1.2241
 8366TIP3   OH246588   0.316   6.467  13.219 -0.0261  0.1475  0.2366
 8366TIP3    H146589   0.309   6.521  13.297 -0.4511  0.9281 -0.3218
 8366TIP3    H246590   0.233   6.421  13.213 -1.0796  2.0605 -1.1280
 8367TIP3   OH246591   2.018   5.131  16.385  0.2920 -0.0351 -0.4932
 8367TIP3    H146592   1.998   5.074  16.459  0.4379 -0.1961 -0.5773
 8367TIP3    H246593   1.997   5.219  16.417 -3.2280 -0.3899 -1.4872
 8368TIP3   OH246594   3.712   3.078   3.008  0.1283  0.2749  0.0536
 8368TIP3    H146595   3.793   3.083   3.058 -0.1476  0.0439  0.5287
 8368TIP3    H246596   3.645   3.116   3.065 -0.1247  0.3488 -0.2846
 8369TIP3   OH246597   5.860   6.573  16.348 -0.1648 -0.3637 -0.2098
 8369TIP3    H146598   5.810   6.628  16.287 -0.4316 -1.4051 -0.9783
 8369TIP3    H246599   5.798   6.506  16.376  0.6743 -1.4841 -0.9147
 8370TIP3   OH246600   6.233   1.784  15.305  0.1329 -0.2561  0.0572
 8370TIP3    H146601   6.195   1.790  15.393  0.5201 -1.3336  0.3205
 8370TIP3    H246602   6.300   1.716  15.313  1.2549  0.7161 -0.7058
 8371TIP3   OH246603   4.379   2.708   3.492  0.1132  0.0825 -0.3708
 8371TIP3    H146604   4.337   2.622   3.500  0.1945 -0.0411 -1.1399
 8371TIP3    H246605   4.317   2.760   3.441 -0.7574  1.0653  1.6017
 8372TIP3   OH246606   1.895   0.298   0.672 -0.5352  0.7662 -0.2104
 8372TIP3    H146607   1.829   0.336   0.615  0.0495 -0.2980 -1.6739
 8372TIP3    H246608   1.978   0.316   0.628 -0.1808 -1.3743 -0.5116
 8373TIP3   OH246609   4.303   0.514  15.303 -0.0203 -0.5628  0.3630
 8373TIP3    H146610   4.218   0.482  15.273  0.0453  0.8934 -1.6291
 8373TIP3    H246611   4.335   0.567  15.230  2.3102 -0.5264  1.3226
 8374TIP3   OH246612   6.664   4.294   0.175  0.1239 -0.4523 -0.3135
 8374TIP3    H146613   6.735   4.266   0.232  1.1141  2.4429  0.0101
 8374TIP3    H246614   6.707   4.310   0.090 -0.9711 -2.7328 -1.3884
 8375TIP3   OH246615   4.443   4.913   7.091  0.1095 -0.1702  0.5759
 8375TIP3    H146616   4.353   4.927   7.121 -0.2938 -0.7139 -0.3078
 8375TIP3    H246617   4.442   4.823   7.057  0.9542 -0.1259  0.4214
 8376TIP3   OH246618   6.331   3.782  14.558  0.2100  0.4109  0.4277
 8376TIP3    H146619   6.423   3.808  14.552 -0.1051  1.9362  1.4643
 8376TIP3    H246620   6.333   3.686  14.565  1.8843  0.5134  2.4138
 8377TIP3   OH246621   1.469   2.283  13.560  0.0216  0.7215 -0.4823
 8377TIP3    H146622   1.458   2.267  13.653  1.6855  1.6737 -0.0731
 8377TIP3    H246623   1.472   2.379  13.552 -2.2407  0.7626 -1.8347
 8378TIP3   OH246624   1.486   2.126  16.776  0.0525 -0.0878  0.0662
 8378TIP3    H146625   1.464   2.033  16.779  1.3226 -0.4694 -1.0889
 8378TIP3    H246626   1.404   2.170  16.757 -0.6249 -0.9275  0.9372
 8379TIP3   OH246627   2.920   2.187   4.008  0.4592 -0.2564 -0.0502
 8379TIP3    H146628   3.015   2.200   4.018  0.4994  0.3999 -1.1390
 8379TIP3    H246629   2.897   2.237   3.930 -1.0961  0.9975  1.1406
 8380TIP3   OH246630   5.739   5.791   2.421 -0.4197  0.0462  0.3993
 8380TIP3    H146631   5.831   5.820   2.419 -0.5190  0.3509 -1.4694
 8380TIP3    H246632   5.690   5.869   2.396 -1.0207 -0.6502 -0.6389
 8381TIP3   OH246633   2.893   2.087  12.971 -0.2128 -0.7752 -0.6053
 8381TIP3    H146634   2.841   2.060  13.047 -0.0426 -1.5282 -0.7524
 8381TIP3    H246635   2.843   2.056  12.895 -0.3895 -0.0144 -0.8056
 8382TIP3   OH246636   3.352   1.212  14.880 -0.2077 -0.6113 -0.5417
 8382TIP3    H146637   3.393   1.285  14.834 -0.2128  0.1763  0.6640
 8382TIP3    H246638   3.264   1.242  14.901  0.5055 -0.0249  1.9545
 8383TIP3   OH246639   6.666   3.056   3.682  0.2901  0.4819 -0.1340
 8383TIP3    H146640   6.666   3.045   3.777 -0.7564  0.4999 -0.1275
 8383TIP3    H246641   6.611   2.986   3.648  0.9649  0.2382 -0.7669
 8384TIP3   OH246642   4.523   0.625   2.205  0.9584 -0.5383  0.4108
 8384TIP3    H146643   4.578   0.662   2.137  0.7312 -1.2747 -0.1920
 8384TIP3    H246644   4.448   0.589   2.158  1.0654 -1.5575  0.9828
 8385TIP3   OH246645   0.972   1.354   0.672 -0.1673 -0.4139 -0.2399
 8385TIP3    H146646   1.061   1.347   0.707 -0.9022 -0.3439  1.7747
 8385TIP3    H246647   0.948   1.265   0.648  0.1998 -0.5380 -0.1481
 8386TIP3   OH246648   3.351   3.708   2.374  0.3957  1.0211  0.2559
 8386TIP3    H146649   3.269   3.742   2.339  1.2736  2.7249 -0.2999
 8386TIP3    H246650   3.391   3.784   2.417  1.4414  0.0889  0.9919
 8387TIP3   OH246651   6.651   3.134   2.025 -0.4046 -0.0958  0.0756
 8387TIP3    H146652   6.638   3.080   1.947 -1.9663  1.8944 -1.1558
 8387TIP3    H246653   6.632   3.223   1.996  0.4000  0.9219  2.4128
 8388TIP3   OH246654   3.106   1.352   1.829  0.3585 -1.2367 -0.0985
 8388TIP3    H146655   3.013   1.342   1.847 -0.1595  0.3085 -1.6973
 8388TIP3    H246656   3.136   1.416   1.894 -0.4173  0.6053 -1.4880
 8389TIP3   OH246657   3.764   1.367  15.731 -0.2321  0.2073  0.7980
 8389TIP3    H146658   3.787   1.295  15.672  1.3104  2.1061 -1.0627
 8389TIP3    H246659   3.842   1.379  15.785  0.0479  1.3321  0.1620
 8390TIP3   OH246660   0.453   3.329   3.042  0.6677  0.2642  0.0004
 8390TIP3    H146661   0.418   3.334   2.953  2.2218 -1.1692 -0.7577
 8390TIP3    H246662   0.442   3.238   3.067  1.7502  0.2811  0.6119
 8391TIP3   OH246663   1.214   5.446  13.456  0.6930 -0.0068 -0.4766
 8391TIP3    H146664   1.309   5.450  13.462  0.7912 -1.7622 -0.3832
 8391TIP3    H246665   1.195   5.474  13.367  1.2470  0.7269 -0.3786
 8392TIP3   OH246666   3.124   6.704   0.888  0.1582  0.0522 -0.4420
 8392TIP3    H146667   3.211   6.743   0.895 -0.6413  2.4968 -2.5931
 8392TIP3    H246668   3.071   6.754   0.950 -0.1322 -0.0141 -0.6343
 8393TIP3   OH246669   4.242   0.246   4.150  0.1328 -0.1170 -0.1942
 8393TIP3    H146670   4.250   0.246   4.246 -0.4902  3.2456 -0.0056
 8393TIP3    H246671   4.152   0.275   4.134 -0.0567 -1.5029 -1.8424
 8394TIP3   OH246672   0.422   5.689   0.480 -0.7270 -0.2839  0.6670
 8394TIP3    H146673   0.359   5.674   0.409  0.1894 -1.1682  0.0150
 8394TIP3    H246674   0.368   5.695   0.559 -1.6515 -0.6730  0.0856
 8395TIP3   OH246675   6.165   4.823   4.826 -0.4673  0.1646 -0.2571
 8395TIP3    H146676   6.224   4.748   4.821 -0.9126 -0.1576 -0.8218
 8395TIP3    H246677   6.078   4.784   4.835 -0.6419  0.6274  0.0804
 8396TIP3   OH246678   5.477   2.292   2.046  0.1918 -0.5714 -0.5887
 8396TIP3    H146679   5.436   2.320   2.127 -2.4236 -0.5426 -1.8202
 8396TIP3    H246680   5.518   2.372   2.012  0.9294 -0.4894  0.4384
 8397TIP3   OH246681   3.237   0.351   4.510 -0.1928 -0.1398  0.0027
 8397TIP3    H146682   3.254   0.363   4.603 -0.0030 -0.2761 -0.0159
 8397TIP3    H246683   3.145   0.376   4.500 -0.4540 -0.9219  0.3700
 8398TIP3   OH246684   4.346   6.383   2.795  0.1495 -0.4692 -0.7887
 8398TIP3    H146685   4.286   6.398   2.722  0.6245  0.1262 -1.0681
 8398TIP3    H246686   4.307   6.428   2.869  0.8639  1.0110 -1.2794
 8399TIP3   OH246687   2.071   2.588   4.804  0.0201  0.3736 -0.9072
 8399TIP3    H146688   2.137   2.531   4.765 -1.1525  0.3296 -2.9349
 8399TIP3    H246689   2.117   2.671   4.818  1.2438 -0.4607  0.4068
 8400TIP3   OH246690   4.777   2.356   0.131 -0.5446  0.5537 -0.0435
 8400TIP3    H146691   4.799   2.369   0.224 -1.7074  0.4195  0.2615
 8400TIP3    H246692   4.807   2.436   0.088  1.6194 -0.0962  0.1292
 8401TIP3   OH246693   2.258   4.054   4.825 -0.3479 -0.1013 -0.3865
 8401TIP3    H146694   2.247   4.083   4.734  0.4770  1.0164 -0.1504
 8401TIP3    H246695   2.196   3.982   4.835 -0.3365 -0.3408 -1.8796
 8402TIP3   OH246696   1.099   4.285  13.498  0.5600  0.9342 -0.0699
 8402TIP3    H146697   1.106   4.197  13.535  0.4459  1.6640  1.8328
 8402TIP3    H246698   1.190   4.310  13.480  0.7129  0.8616  0.5468
 8403TIP3   OH246699   6.631   4.253   2.740 -0.0605 -0.0786 -0.0196
 8403TIP3    H146700   6.549   4.271   2.693  0.2144  1.1896 -0.0648
 8403TIP3    H246701   6.695   4.239   2.670 -0.3056 -1.4710  0.0179
 8404TIP3   OH246702   0.223   0.526   0.473  0.0072  0.1386  0.7067
 8404TIP3    H146703   0.228   0.485   0.387  1.0978 -0.2409  0.9416
 8404TIP3    H246704   0.223   0.620   0.455  0.0029  0.0582  0.2864
 8405TIP3   OH246705   0.750   2.613  14.908 -0.0206 -0.4980 -0.2948
 8405TIP3    H146706   0.787   2.683  14.855  0.5320 -0.7792 -0.2835
 8405TIP3    H246707   0.667   2.591  14.865 -1.9180  2.3980  1.4982
 8406TIP3   OH246708   6.088   5.308   5.743 -0.3400  0.2812  0.5167
 8406TIP3    H146709   6.142   5.230   5.726 -1.4155 -0.0821 -1.5065
 8406TIP3    H246710   6.143   5.363   5.799  2.3285  0.0963 -1.7173
 8407TIP3   OH246711   2.789   0.141  14.746  0.3167 -0.6153 -0.4006
 8407TIP3    H146712   2.718   0.139  14.810  0.7728 -3.4871  0.1579
 8407TIP3    H246713   2.867   0.117  14.796  1.3198  0.3688 -1.4314
 8408TIP3   OH246714   2.453   5.604   1.463 -0.3390  0.7847  0.3565
 8408TIP3    H146715   2.514   5.598   1.537  0.7008  1.0901 -0.4513
 8408TIP3    H246716   2.376   5.556   1.491  0.2598  0.4247  1.4261
 8409TIP3   OH246717   0.541   0.911   2.167 -0.6335 -0.1659  0.1265
 8409TIP3    H146718   0.498   0.916   2.081 -1.7449  1.3015  0.7187
 8409TIP3    H246719   0.630   0.883   2.148 -0.6134  0.9033 -1.6178
 8410TIP3   OH246720   5.021   5.910  15.955 -0.1727 -0.7338 -0.4715
 8410TIP3    H146721   5.110   5.925  15.988 -0.2978 -0.6058 -0.1901
 8410TIP3    H246722   5.006   5.817  15.969 -0.4831 -0.5482  0.4797
 8411TIP3   OH246723   3.230   2.670  16.448  0.4042 -0.2551  0.0518
 8411TIP3    H146724   3.139   2.672  16.477 -0.1180 -2.6946 -1.2262
 8411TIP3    H246725   3.280   2.684  16.528 -1.0514 -0.0305  0.9694
 8412TIP3   OH246726   3.326   5.314   0.850  0.3272 -0.1211 -0.3494
 8412TIP3    H146727   3.251   5.330   0.792  0.4253  1.1153 -0.1763
 8412TIP3    H246728   3.350   5.223   0.834 -1.0603 -0.4740 -0.5879
 8413TIP3   OH246729   1.109   3.935   2.081  0.1036  0.1648  0.3392
 8413TIP3    H146730   1.134   3.966   1.994 -2.0600  2.8028  0.5275
 8413TIP3    H246731   1.151   3.998   2.141 -0.2647 -0.2879  1.0822
 8414TIP3   OH246732   0.139   3.453  15.875  0.0729 -0.1174  0.2163
 8414TIP3    H146733   0.228   3.487  15.867 -0.9410  2.5003 -1.4137
 8414TIP3    H246734   0.111   3.477  15.964 -0.0246  2.0676 -0.3290
 8415TIP3   OH246735   4.672   1.937   6.267  0.3647 -0.0877 -0.9059
 8415TIP3    H146736   4.713   1.870   6.321  0.0033  0.0429 -0.4628
 8415TIP3    H246737   4.687   2.019   6.314 -0.4986 -0.0523 -0.6714
 8416TIP3   OH246738   2.960   1.974  13.707  0.5512 -0.1328  0.2798
 8416TIP3    H146739   2.959   1.909  13.637  0.9798 -1.7086  1.6647
 8416TIP3    H246740   2.926   2.053  13.667  2.4980 -0.4320 -2.1841
 8417TIP3   OH246741   4.580   5.877  11.931 -0.3048  0.5839  0.2251
 8417TIP3    H146742   4.621   5.821  11.864 -0.1740  0.9803 -0.0286
 8417TIP3    H246743   4.642   5.948  11.944 -1.4108  1.8383 -1.0207
 8418TIP3   OH246744   1.859   0.375  16.500  0.0249 -0.4682 -0.0047
 8418TIP3    H146745   1.855   0.287  16.464  2.1681  0.4726 -2.8861
 8418TIP3    H246746   1.785   0.421  16.461  0.5919 -0.2651 -0.8757
 8419TIP3   OH246747   1.564   3.359   1.864  0.1273  0.4290  0.5894
 8419TIP3    H146748   1.575   3.334   1.772 -1.3200  0.0806  0.4778
 8419TIP3    H246749   1.581   3.278   1.912  4.1310  1.3198  0.9509
 8420TIP3   OH246750   3.449   1.198  12.517 -0.2102  0.4427 -0.3045
 8420TIP3    H146751   3.361   1.187  12.553 -0.6244 -0.0090 -1.4266
 8420TIP3    H246752   3.501   1.230  12.591 -0.6359 -2.0694  1.1780
 8421TIP3   OH246753   5.002   2.296   2.272  0.1877 -0.6863  0.7484
 8421TIP3    H146754   4.961   2.379   2.294  2.2875 -0.0598  2.7221
 8421TIP3    H246755   4.942   2.230   2.303 -1.3458  0.0452 -0.5132
 8422TIP3   OH246756   6.489   5.475   1.764  0.2025  0.6389  0.1576
 8422TIP3    H146757   6.403   5.467   1.804  0.3391  1.4711  0.6326
 8422TIP3    H246758   6.476   5.444   1.674 -0.1919 -0.8539  0.7066
 8423TIP3   OH246759   0.264   4.387   0.456 -0.3968  0.5504  0.0116
 8423TIP3    H146760   0.348   4.398   0.413 -1.0902 -1.3230 -2.0120
 8423TIP3    H246761   0.286   4.361   0.546  1.2151 -0.4360 -0.6223
 8424TIP3   OH246762   2.286   1.066   1.280 -0.8332 -0.2718 -0.5105
 8424TIP3    H146763   2.373   1.096   1.306 -1.2374 -0.3148  0.9611
 8424TIP3    H246764   2.303   0.990   1.223  0.0860 -1.0887  0.8120
 8425TIP3   OH246765   1.062   0.895   2.163  0.1353 -0.3200 -0.3110
 8425TIP3    H146766   1.115   0.866   2.238  1.3423  1.1797 -0.5375
 8425TIP3    H246767   1.119   0.882   2.087 -0.0570  0.6863 -0.6400
 8426TIP3   OH246768   5.385   5.548   3.349 -0.2325  0.3779  0.3578
 8426TIP3    H146769   5.327   5.600   3.294 -0.4032  0.4385  0.5926
 8426TIP3    H246770   5.382   5.460   3.310  1.8193  1.0106 -1.4172
 8427TIP3   OH246771   2.208   2.521   5.324 -0.9349 -0.1083  0.1809
 8427TIP3    H146772   2.209   2.492   5.233  0.6038  0.9010 -0.1584
 8427TIP3    H246773   2.118   2.506   5.353 -1.8355  0.8933 -1.9490
 8428TIP3   OH246774   1.021   5.554  15.391  0.8764  0.0890 -0.2195
 8428TIP3    H146775   0.940   5.589  15.353  0.6435  0.9711  1.0300
 8428TIP3    H246776   1.089   5.577  15.328  0.2298 -0.2542 -1.0597
 8429TIP3   OH246777   3.971   1.471  15.540 -0.6340 -0.2006  0.3354
 8429TIP3    H146778   3.981   1.415  15.617  1.6916 -1.2155 -0.6329
 8429TIP3    H246779   3.977   1.560  15.575 -0.2413 -0.6319  1.4101
 8430TIP3   OH246780   4.063   5.741  15.772  0.0277 -0.2898  0.4546
 8430TIP3    H146781   4.074   5.672  15.837  0.1899 -0.1874  0.5354
 8430TIP3    H246782   4.131   5.723  15.707  0.5815  0.2576  0.8791
 8431TIP3   OH246783   1.335   1.602   5.496 -0.4685  0.0699  0.4692
 8431TIP3    H146784   1.408   1.643   5.543  0.0902 -1.0270  0.5954
 8431TIP3    H246785   1.259   1.616   5.553  0.1833 -1.2006  1.7520
 8432TIP3   OH246786   2.487   5.419   4.493 -0.3995 -0.2599 -0.3134
 8432TIP3    H146787   2.507   5.325   4.492  1.6933  0.1261  0.6112
 8432TIP3    H246788   2.503   5.448   4.403  1.1110 -0.4080 -0.1118
 8433TIP3   OH246789   3.785   3.573   4.274  0.4402  0.2103 -0.3409
 8433TIP3    H146790   3.877   3.555   4.258  1.1646  2.3680  0.9745
 8433TIP3    H246791   3.749   3.489   4.303  2.7907 -0.0042  2.3550
 8434TIP3   OH246792   0.196   5.492  13.898 -0.1843  0.0249 -0.0018
 8434TIP3    H146793   0.133   5.564  13.886  1.0332  1.1307 -0.0337
 8434TIP3    H246794   0.238   5.483  13.812  0.0181 -0.4015  0.1397
 8435TIP3   OH246795   5.773   5.308  11.248  0.0753  0.1971  0.1454
 8435TIP3    H146796   5.839   5.264  11.301  0.0634 -0.9379 -0.7523
 8435TIP3    H246797   5.769   5.397  11.284 -0.0301 -0.5575  2.1262
 8436TIP3   OH246798   2.264   0.044   5.563  0.1919  0.4021 -0.0220
 8436TIP3    H146799   2.263   0.058   5.658  0.1889  0.0724  0.0260
 8436TIP3    H246800   2.172   0.047   5.537  0.1929  0.4961 -0.0158
 8437TIP3   OH246801   1.288   6.477  13.661 -0.2986  0.0642 -0.3492
 8437TIP3    H146802   1.367   6.466  13.609 -1.1213 -2.3420 -1.2447
 8437TIP3    H246803   1.251   6.389  13.667 -2.9135  1.0917  0.0110
 8438TIP3   OH246804   1.767   6.523   1.913  0.3778 -0.0450  0.1761
 8438TIP3    H146805   1.697   6.459   1.927  1.8671 -1.4260  1.8216
 8438TIP3    H246806   1.826   6.481   1.852  0.9659  0.0901  0.6429
 8439TIP3   OH246807   0.410   3.466  13.463 -0.1186  0.1230 -0.3885
 8439TIP3    H146808   0.356   3.396  13.426 -1.8126  0.9387  0.4263
 8439TIP3    H246809   0.366   3.547  13.436  2.4211  0.9979 -2.2541
 8440TIP3   OH246810   4.209   2.667  13.215  0.8282 -0.2018 -0.4729
 8440TIP3    H146811   4.247   2.740  13.167 -1.4936  1.6139  0.2439
 8440TIP3    H246812   4.180   2.606  13.147  0.0585  1.0301 -1.2899
 8441TIP3   OH246813   6.385   6.747   3.675  0.3500  0.4154  0.7289
 8441TIP3    H146814   6.428   6.667   3.642 -1.3743 -0.6362  0.9152
 8441TIP3    H246815   6.332   6.777   3.601  0.4087  0.9629  0.9105
 8442TIP3   OH246816   4.377   4.540   2.177  0.0165  0.0163  0.2639
 8442TIP3    H146817   4.456   4.500   2.214 -0.0372  1.5425  2.2451
 8442TIP3    H246818   4.362   4.617   2.233 -1.2075  1.4247 -1.8735
 8443TIP3   OH246819   2.558   6.120  14.856 -0.2490 -0.1024  0.2358
 8443TIP3    H146820   2.470   6.127  14.819 -0.6700  2.5065  1.5010
 8443TIP3    H246821   2.617   6.141  14.783 -0.8544  1.0925  0.0752
 8444TIP3   OH246822   2.056   3.129  10.551  0.1293  0.1803 -0.4506
 8444TIP3    H146823   2.031   3.045  10.513  0.7031  0.1779 -0.8381
 8444TIP3    H246824   2.008   3.133  10.634  0.5709 -0.8099 -0.1303
 8445TIP3   OH246825   5.884   1.185   2.242  0.0362 -0.2165  0.0378
 8445TIP3    H146826   5.922   1.271   2.228 -0.3406 -0.1740 -0.7700
 8445TIP3    H246827   5.941   1.144   2.307  1.2318 -0.0143 -0.8554
 8446TIP3   OH246828   2.074   2.313  11.684 -0.2778  0.5207 -0.5239
 8446TIP3    H146829   2.094   2.362  11.604 -0.8919 -0.1543 -1.0974
 8446TIP3    H246830   2.098   2.223  11.664  1.3096  0.6221  0.6886
 8447TIP3   OH246831   2.690   1.342  11.452  0.3395  0.2160 -0.3179
 8447TIP3    H146832   2.757   1.340  11.519 -1.2075 -1.6401  1.3002
 8447TIP3    H246833   2.625   1.404  11.484 -0.7961 -1.2733  0.3909
 8448TIP3   OH246834   3.983   2.682  13.658 -0.7208  0.3136 -0.2672
 8448TIP3    H146835   4.063   2.684  13.605  0.8659  1.4030  2.0124
 8448TIP3    H246836   3.968   2.588  13.673  1.4625  0.0891  1.0399
 8449TIP3   OH246837   3.389   4.423  14.310  0.6467  0.7672  0.1576
 8449TIP3    H146838   3.345   4.417  14.225  1.4002  0.3286 -0.2061
 8449TIP3    H246839   3.447   4.499  14.302  2.9526 -0.9830 -0.8009
 8450TIP3   OH246840   1.768   4.066  14.345 -0.2361  0.1662  0.0686
 8450TIP3    H146841   1.717   4.070  14.264  0.2121 -0.6464 -0.2603
 8450TIP3    H246842   1.749   3.980  14.382 -1.8711  1.1901  1.8022
 8451TIP3   OH246843   0.302   4.024  11.833 -0.0647 -0.5557  0.0538
 8451TIP3    H146844   0.339   4.036  11.746  0.0709  0.0550  0.1905
 8451TIP3    H246845   0.379   4.010  11.889 -0.1885 -1.6435 -0.0242
 8452TIP3   OH246846   6.280   5.030   2.684  0.0300  0.2053 -0.1315
 8452TIP3    H146847   6.232   5.007   2.764  0.0174 -1.0333 -0.4779
 8452TIP3    H246848   6.257   5.122   2.668 -1.1488  0.0301  0.4531
 8453TIP3   OH246849   2.734   4.108  15.549  0.0377 -0.6141  0.1772
 8453TIP3    H146850   2.672   4.181  15.554  1.1471  0.6858 -2.7939
 8453TIP3    H246851   2.787   4.116  15.628  0.1687  1.9162 -0.0749
 8454TIP3   OH246852   4.536   3.527   0.216  0.4162  0.0956 -0.1707
 8454TIP3    H146853   4.443   3.536   0.197  0.5940 -0.4504 -1.3531
 8454TIP3    H246854   4.547   3.437   0.244  0.7691 -0.1996 -1.2121
 8455TIP3   OH246855   5.425   3.572   5.959  0.0784  0.2005  0.0693
 8455TIP3    H146856   5.414   3.587   6.053 -1.2560 -0.6875  0.0784
 8455TIP3    H246857   5.392   3.653   5.919  1.5354  0.9752  0.3622
 8456TIP3   OH246858   3.034   2.395   2.548  0.4166 -0.0713 -0.2213
 8456TIP3    H146859   2.957   2.362   2.594 -0.1966  0.3224 -0.9473
 8456TIP3    H246860   3.088   2.434   2.617 -0.2059 -0.0146  0.2473
 8457TIP3   OH246861   5.805   3.576   2.170  0.1030 -0.3252  0.6893
 8457TIP3    H146862   5.819   3.578   2.265 -0.6260  0.8941  0.7939
 8457TIP3    H246863   5.781   3.486   2.151 -2.4007 -0.0364  2.0931
 8458TIP3   OH246864   3.595   5.991  15.552  0.5363 -0.2754 -0.0151
 8458TIP3    H146865   3.583   5.964  15.462  1.9765 -1.2696  0.0633
 8458TIP3    H246866   3.684   6.026  15.555 -0.2491  1.8478  0.5438
 8459TIP3   OH246867   1.175   5.823   4.671 -0.3859 -0.8585  0.1998
 8459TIP3    H146868   1.139   5.864   4.749 -0.3877 -1.5591  0.5704
 8459TIP3    H246869   1.173   5.729   4.689  1.6927 -0.9262  0.2723
 8460TIP3   OH246870   0.613   2.698   1.455  0.6306  0.0897 -0.0841
 8460TIP3    H146871   0.540   2.731   1.402 -0.2061 -1.2372  0.1860
 8460TIP3    H246872   0.691   2.736   1.415 -0.1028  0.3878 -1.2809
 8461TIP3   OH246873   2.418   0.585  14.755  0.3509  0.0125 -0.2882
 8461TIP3    H146874   2.398   0.656  14.816  1.2061  0.6421 -0.7201
 8461TIP3    H246875   2.463   0.628  14.682 -0.9498 -0.6652 -1.5406
 8462TIP3   OH246876   3.451   4.852  11.870  0.0097 -0.6607 -0.3498
 8462TIP3    H146877   3.533   4.812  11.842 -0.5298 -2.3026  0.2552
 8462TIP3    H246878   3.386   4.783  11.857 -1.2755  0.5722 -0.7513
 8463TIP3   OH246879   3.443   3.960  15.588 -0.0926 -0.0175  0.0283
 8463TIP3    H146880   3.492   3.995  15.662 -0.8913 -1.7846  1.4920
 8463TIP3    H246881   3.426   4.035  15.532  0.3411  1.4439  1.7646
 8464TIP3   OH246882   2.027   4.270  13.470  0.1603  0.1511  0.1752
 8464TIP3    H146883   2.017   4.362  13.494  0.3668  0.3637 -0.5221
 8464TIP3    H246884   2.094   4.271  13.402  0.6969 -0.6012  0.6828
 8465TIP3   OH246885   0.072   2.684   3.356 -0.7746 -0.1403 -0.2268
 8465TIP3    H146886   0.006   2.753   3.365 -1.2576 -0.7447  1.1871
 8465TIP3    H246887   0.152   2.730   3.328 -0.7459  1.1998  1.8662
 8466TIP3   OH246888   4.412   2.395  13.104 -0.5076 -0.1038  0.1119
 8466TIP3    H146889   4.481   2.457  13.125 -0.4889 -0.1195  0.0977
 8466TIP3    H246890   4.356   2.393  13.181 -1.5598  1.3252 -0.5565
 8467TIP3   OH246891   4.137   4.298   2.833  0.6861  0.5172 -0.3467
 8467TIP3    H146892   4.097   4.212   2.848  0.0809  0.4906 -1.9544
 8467TIP3    H246893   4.218   4.295   2.884 -0.2580 -0.2483  1.2114
 8468TIP3   OH246894   6.379   2.218   6.055 -0.1188 -0.8524  0.7016
 8468TIP3    H146895   6.390   2.293   6.114 -1.6629 -0.2415  0.2709
 8468TIP3    H246896   6.369   2.143   6.113  0.0071 -0.5105  1.1691
 8469TIP3   OH246897   1.833   4.331   2.099  0.0716  0.7137  0.1473
 8469TIP3    H146898   1.902   4.266   2.112 -0.8129 -0.4996 -0.9653
 8469TIP3    H246899   1.755   4.279   2.081 -0.8181  2.0907 -0.0547
 8470TIP3   OH246900   4.804   1.580  14.860  0.4582  0.0616  0.3054
 8470TIP3    H146901   4.871   1.573  14.928  0.3092 -0.5298  0.4021
 8470TIP3    H246902   4.827   1.511  14.797 -0.9606 -1.2545  1.1473
 8471TIP3   OH246903   4.023   0.208   1.039 -0.5249 -0.1225 -0.7416
 8471TIP3    H146904   3.996   0.154   1.113  0.3765 -2.6798 -2.1467
 8471TIP3    H246905   4.010   0.152   0.962  2.5109  0.8041 -2.1166
 8472TIP3   OH246906   4.278   4.482  11.564 -0.4087 -0.0532 -0.1125
 8472TIP3    H146907   4.203   4.423  11.567 -0.7493  0.3053 -1.2786
 8472TIP3    H246908   4.302   4.486  11.472  1.2713 -0.4321  0.2620
 8473TIP3   OH246909   6.268   4.342   2.708  0.2584 -0.0116 -0.2523
 8473TIP3    H146910   6.249   4.426   2.750  0.6715 -0.4274  0.7984
 8473TIP3    H246911   6.348   4.358   2.657 -0.2477  0.4942 -0.9086
 8474TIP3   OH246912   1.581   1.551   3.477  0.2089  0.1548 -0.5272
 8474TIP3    H146913   1.490   1.544   3.506  0.4085  1.0624  0.3671
 8474TIP3    H246914   1.601   1.465   3.440 -0.8277 -0.2465 -0.1959
 8475TIP3   OH246915   0.350   0.747  10.390  0.4468 -1.0005  0.1927
 8475TIP3    H146916   0.297   0.671  10.414 -0.4441 -0.4487  0.0089
 8475TIP3    H246917   0.439   0.723  10.417 -0.0596 -1.5114  1.5309
 8476TIP3   OH246918   4.308   2.455   3.375 -0.1968 -0.1109  0.1965
 8476TIP3    H146919   4.286   2.390   3.308  1.6791  1.5193 -2.2155
 8476TIP3    H246920   4.401   2.442   3.392  0.1017  1.5410  0.0400
 8477TIP3   OH246921   5.799   1.282  13.124 -0.2188  0.1244  0.2487
 8477TIP3    H146922   5.797   1.304  13.217 -1.1202  0.0708  0.2456
 8477TIP3    H246923   5.893   1.273  13.104 -0.0418 -0.5916  1.3134
 8478TIP3   OH246924   5.722   6.628  15.485  0.3592  0.0735 -0.0597
 8478TIP3    H146925   5.805   6.675  15.493  0.5463  0.0384 -1.5045
 8478TIP3    H246926   5.732   6.551  15.541  0.8865  0.6082  0.6039
 8479TIP3   OH246927   0.651   0.022   6.076 -0.5950  0.1198  0.1806
 8479TIP3    H146928   0.619  -0.038   6.143  0.2142 -0.7725 -0.1964
 8479TIP3    H246929   0.745   0.029   6.093 -0.6361  1.0659  0.0484
 8480TIP3   OH246930   5.897   2.554  16.606  0.6161  0.1620 -0.8163
 8480TIP3    H146931   5.954   2.478  16.617  0.5357 -0.5230 -4.2315
 8480TIP3    H246932   5.837   2.530  16.536 -0.7170  2.6882 -0.6692
 8481TIP3   OH246933   5.790   0.724   3.688  0.2109  0.6551  0.3956
 8481TIP3    H146934   5.710   0.710   3.739 -2.3341  1.7292 -2.9355
 8481TIP3    H246935   5.822   0.636   3.668 -1.3704  0.1280  0.0701
 8482TIP3   OH246936   4.911   1.040  12.759  0.3647  0.3007 -0.4261
 8482TIP3    H146937   4.869   1.019  12.843 -0.0566  1.7055 -0.2504
 8482TIP3    H246938   4.880   1.129  12.739 -0.0015 -0.2212 -2.3735
 8483TIP3   OH246939   0.808   4.921  13.962 -0.0971  0.5412  0.2576
 8483TIP3    H146940   0.751   4.884  13.894  1.9704 -0.2392 -1.1550
 8483TIP3    H246941   0.838   5.004  13.925  0.5788  0.3933  0.4744
 8484TIP3   OH246942   3.717   2.061  11.450  0.7622 -0.2754  0.1230
 8484TIP3    H146943   3.793   2.003  11.451 -1.7751 -3.9025 -0.5915
 8484TIP3    H246944   3.676   2.049  11.536 -0.1414  0.0344 -0.2534
 8485TIP3   OH246945   0.904   6.421  15.001 -0.3492  0.0573  0.1674
 8485TIP3    H146946   0.947   6.338  14.982 -2.1403 -0.9233  0.1307
 8485TIP3    H246947   0.939   6.482  14.936  1.7160 -0.3644  0.8083
 8486TIP3   OH246948   1.144   6.406   2.944 -0.1127  0.0839 -0.0812
 8486TIP3    H146949   1.085   6.331   2.953 -1.4722  1.1677  0.4368
 8486TIP3    H246950   1.109   6.471   3.005  1.3203  0.9668 -0.1716
 8487TIP3   OH246951   2.357   1.568   1.130  0.1562 -0.5472 -0.1008
 8487TIP3    H146952   2.343   1.606   1.043 -1.7872 -0.5367  0.1618
 8487TIP3    H246953   2.333   1.476   1.119  2.0592 -1.0785 -0.0641
 8488TIP3   OH246954   5.639   1.679   5.032  0.6471 -0.0816  0.3583
 8488TIP3    H146955   5.708   1.622   4.999  0.1117 -0.6622  0.2111
 8488TIP3    H246956   5.670   1.707   5.119  2.1171  1.5469 -0.6148
 8489TIP3   OH246957   2.228   5.495   3.242  0.5126 -0.0994  0.0492
 8489TIP3    H146958   2.231   5.404   3.213  1.9659 -0.1246  0.1939
 8489TIP3    H246959   2.290   5.499   3.315  1.7396  1.3425 -1.0004
 8490TIP3   OH246960   5.725   0.218  11.572 -0.3373  0.1400 -0.5481
 8490TIP3    H146961   5.744   0.172  11.491  0.8752  3.0920 -2.0890
 8490TIP3    H246962   5.694   0.304  11.545  0.7274  1.4880  2.0911
 8491TIP3   OH246963   3.033   3.887  11.169  0.1053 -0.0973 -0.0158
 8491TIP3    H146964   3.108   3.828  11.180  0.2541  0.1117  0.0958
 8491TIP3    H246965   2.979   3.871  11.247 -0.2867 -0.7067 -0.4043
 8492TIP3   OH246966   6.534   1.165  16.068 -0.0938  0.3808 -0.0519
 8492TIP3    H146967   6.512   1.253  16.099 -0.8030 -0.0001  0.5654
 8492TIP3    H246968   6.587   1.127  16.139 -0.0235  0.2121 -0.1950
 8493TIP3   OH246969   5.078   1.659   1.276 -0.2147  0.0921 -0.1539
 8493TIP3    H146970   5.150   1.681   1.216  0.1367  0.6966  0.4824
 8493TIP3    H246971   5.015   1.729   1.263 -0.8679 -0.6218 -0.9662
 8494TIP3   OH246972   5.932   0.582  13.091  0.7062  0.0248 -0.3384
 8494TIP3    H146973   5.953   0.491  13.070  0.2525 -0.2590  0.4010
 8494TIP3    H246974   6.013   0.617  13.129  0.2107 -0.7812  1.5967
 8495TIP3   OH246975   3.381   3.596  11.919  0.0399  0.4157  0.0799
 8495TIP3    H146976   3.469   3.610  11.951  0.7429 -1.6021 -0.7939
 8495TIP3    H246977   3.335   3.554  11.992  0.0465  0.7105  0.2537
 8496TIP3   OH246978   5.657   4.016  14.344  0.1863  0.1900 -0.0663
 8496TIP3    H146979   5.590   4.082  14.329 -0.2525 -0.6239 -1.9533
 8496TIP3    H246980   5.616   3.952  14.403  0.5081  1.3643  1.5104
 8497TIP3   OH246981   3.064   4.888   3.597 -0.2294 -0.5606  0.0056
 8497TIP3    H146982   3.000   4.817   3.601  0.3585 -1.0538  1.1582
 8497TIP3    H246983   3.038   4.948   3.667 -0.7125  0.3755 -0.9475
 8498TIP3   OH246984   4.451   2.466  11.987  0.1981 -0.6208  0.2955
 8498TIP3    H146985   4.459   2.541  12.046 -0.7392 -1.6020  1.7755
 8498TIP3    H246986   4.514   2.483  11.917  1.2871  0.6823  1.5134
 8499TIP3   OH246987   3.875   5.062  12.688  0.0782  0.0141 -0.5722
 8499TIP3    H146988   3.875   5.117  12.766 -1.9030  0.1764 -0.6484
 8499TIP3    H246989   3.883   4.973  12.722  0.5808  0.1716 -0.2745
 8500TIP3   OH246990   5.638   0.270   0.270  0.1706 -0.1254 -0.2363
 8500TIP3    H146991   5.547   0.268   0.241  0.8585 -1.2791 -2.6085
 8500TIP3    H246992   5.642   0.206   0.341 -1.0932  0.9498  0.8781
 8501TIP3   OH246993   5.369   4.331  15.083  0.2286  0.2294 -0.1542
 8501TIP3    H146994   5.410   4.246  15.099 -2.1279 -1.0914 -0.5566
 8501TIP3    H246995   5.386   4.348  14.990  2.1652  1.0986  0.3197
 8502TIP3   OH246996   5.389   5.728  12.083  0.3435  0.3892  0.5072
 8502TIP3    H146997   5.427   5.793  12.024  2.5984 -0.4401  0.9371
 8502TIP3    H246998   5.422   5.644  12.051  1.2460 -0.1203  2.5956
 8503TIP3   OH246999   6.750   3.838  14.974 -0.4621 -0.0025  0.0467
 8503TIP3    H147000   6.841   3.822  14.998  0.1536  1.2414 -1.3250
 8503TIP3    H247001   6.702   3.763  15.011  1.0491 -0.5217  1.0506
 8504TIP3   OH247002   2.088   3.839  16.045  0.1626  0.0120 -0.0269
 8504TIP3    H147003   2.174   3.875  16.026 -0.3017  0.9865 -0.3473
 8504TIP3    H247004   2.074   3.857  16.138  0.9832 -1.6540  0.4608
 8505TIP3   OH247005   4.783   5.632  15.931  0.3380 -0.1852  0.3962
 8505TIP3    H147006   4.789   5.610  16.023 -0.8504 -0.8700  0.3367
 8505TIP3    H247007   4.837   5.567  15.887  1.2430  0.3971  0.6309
 8506TIP3   OH247008   1.268   0.744   1.281 -0.3556  0.2768  0.1441
 8506TIP3    H147009   1.283   0.838   1.292  0.6542  0.0732  0.5423
 8506TIP3    H247010   1.240   0.713   1.367  1.4449 -0.1660  0.6166
 8507TIP3   OH247011   1.333   0.451   3.999  0.0658  0.1769  0.4689
 8507TIP3    H147012   1.288   0.488   3.923  0.5433  0.1221  0.1530
 8507TIP3    H247013   1.401   0.514   4.020  1.2366 -0.7405 -0.4077
 8508TIP3   OH247014   0.348   1.302  12.302 -0.6235 -0.1852  0.2660
 8508TIP3    H147015   0.333   1.397  12.303 -0.5288 -0.1703  0.2211
 8508TIP3    H247016   0.277   1.267  12.357 -0.5919 -0.0792  0.3766
 8509TIP3   OH247017   2.445   6.550  16.107  0.0747  0.0422 -0.6045
 8509TIP3    H147018   2.421   6.626  16.160  1.8115 -0.4860  1.0897
 8509TIP3    H247019   2.460   6.480  16.171  2.0032 -0.7237 -1.7955
 8510TIP3   OH247020   3.811   6.683  15.233 -0.4673 -0.1199 -0.6857
 8510TIP3    H147021   3.723   6.654  15.257  0.2106 -2.0302 -0.3576
 8510TIP3    H247022   3.851   6.710  15.316 -0.1922 -0.8880 -0.5561
 8511TIP3   OH247023   6.639   2.967   4.767  0.1906 -0.0242  0.1657
 8511TIP3    H147024   6.552   2.929   4.783  0.6428 -0.4146  1.9030
 8511TIP3    H247025   6.693   2.893   4.738 -0.7636  0.7657 -4.4411
 8512TIP3   OH247026   1.081   1.198  14.407 -0.0340 -0.1037  0.2370
 8512TIP3    H147027   1.103   1.291  14.414 -1.9389  0.2818  1.9107
 8512TIP3    H247028   1.151   1.154  14.454  0.7563  0.4738 -0.3547
 8513TIP3   OH247029   5.100   0.801  13.201  0.3918  0.2947 -0.3233
 8513TIP3    H147030   5.145   0.837  13.277 -3.2665  0.7035  1.9189
 8513TIP3    H247031   5.065   0.878  13.155 -0.8573 -0.0462  0.0038
 8514TIP3   OH247032   3.474   0.642  11.632 -0.1164 -0.2602  0.5425
 8514TIP3    H147033   3.444   0.733  11.641  0.1744 -0.0699 -0.3446
 8514TIP3    H247034   3.394   0.590  11.644 -0.0037 -0.0281  2.9582
 8515TIP3   OH247035   0.408   1.237  12.750  0.0306  0.0901  0.2914
 8515TIP3    H147036   0.419   1.281  12.834 -0.6062  1.6588 -0.4119
 8515TIP3    H247037   0.393   1.308  12.687  1.6490 -0.9269 -1.3724
 8516TIP3   OH247038   3.671   1.481  14.667 -0.1146 -0.6870  0.4795
 8516TIP3    H147039   3.714   1.566  14.670 -1.2154  0.0454 -2.0965
 8516TIP3    H247040   3.741   1.418  14.684  0.5344  0.6764  3.4425
 8517TIP3   OH247041   0.567   4.609  10.742 -0.3327 -0.1530 -0.3476
 8517TIP3    H147042   0.639   4.600  10.804  1.3006  1.2564 -1.9072
 8517TIP3    H247043   0.606   4.656  10.667 -2.6826 -0.0388 -1.5900
 8518TIP3   OH247044   0.109   0.528   0.128  0.0763 -0.2535  0.6666
 8518TIP3    H147045   0.109   0.447   0.078  1.5644 -0.2061  0.5578
 8518TIP3    H247046   0.201   0.546   0.146 -0.0817  2.0955 -0.4300
 8519TIP3   OH247047   2.066   1.395   0.996 -0.0725 -0.1023 -0.2184
 8519TIP3    H147048   2.035   1.483   1.018 -0.2784 -0.6602  1.8982
 8519TIP3    H247049   2.080   1.352   1.080  0.8737 -1.8273 -1.1939
 8520TIP3   OH247050   3.682   6.389  13.467 -0.3184  0.2155  0.4274
 8520TIP3    H147051   3.745   6.319  13.447 -1.5958 -0.8255 -0.1188
 8520TIP3    H247052   3.721   6.435  13.541  0.3698 -1.3662  1.1078
 8521TIP3   OH247053   4.285   5.460  11.285 -0.1633 -0.2594 -0.1976
 8521TIP3    H147054   4.302   5.472  11.192 -0.5785  0.2589 -0.2096
 8521TIP3    H247055   4.195   5.427  11.289 -0.3350  0.2239  0.0434
 8522TIP3   OH247056   1.747   1.799   6.331  0.0325  0.4141  0.1052
 8522TIP3    H147057   1.762   1.718   6.284 -2.0863  0.2366 -0.3661
 8522TIP3    H247058   1.727   1.864   6.263 -1.6616  0.4815  0.6021
 8523TIP3   OH247059   6.105   4.070  15.028  0.4277  0.6792 -0.0073
 8523TIP3    H147060   6.118   4.020  15.109  0.9032 -0.3086 -0.6776
 8523TIP3    H247061   6.194   4.085  14.995  0.1687 -1.2902 -1.7481
 8524TIP3   OH247062   5.748   5.106   1.872 -0.1597 -0.1756 -0.1075
 8524TIP3    H147063   5.765   5.064   1.787 -0.5428 -1.2901  0.3535
 8524TIP3    H247064   5.656   5.086   1.890 -0.0098 -0.1411  0.6955
 8525TIP3   OH247065   4.020   5.344  15.269 -0.0546  0.0481 -0.1599
 8525TIP3    H147066   4.031   5.377  15.180 -1.6338 -0.1478 -0.4458
 8525TIP3    H247067   4.055   5.255  15.266  3.9834  1.4112  0.5536
 8526TIP3   OH247068   0.684   4.272   5.158  0.0922  0.0357  0.4722
 8526TIP3    H147069   0.715   4.328   5.087 -0.3065 -2.4386 -1.8130
 8526TIP3    H247070   0.760   4.259   5.214  1.6470 -1.1634 -1.7692
 8527TIP3   OH247071   5.895   3.045  16.299  0.7907 -0.0773  0.2587
 8527TIP3    H147072   5.903   3.136  16.272 -1.1444 -0.3503 -1.4443
 8527TIP3    H247073   5.823   3.045  16.362 -1.1015 -0.7546 -1.8120
 8528TIP3   OH247074   0.878   6.270   6.357  0.0517 -0.4366  0.3089
 8528TIP3    H147075   0.910   6.229   6.438 -0.4157 -0.3860  0.5204
 8528TIP3    H247076   0.956   6.277   6.302  0.1791 -1.4782  0.3256
 8529TIP3   OH247077   3.290   6.041  16.015 -0.6220  0.0724  0.5682
 8529TIP3    H147078   3.299   6.133  16.041 -0.7738  0.0796  0.5947
 8529TIP3    H247079   3.380   6.011  16.004 -0.5563  1.0546 -2.4445
 8530TIP3   OH247080   2.619   1.160  13.112 -0.2860  0.2264 -0.3100
 8530TIP3    H147081   2.678   1.231  13.086 -0.2059  0.1672 -0.2899
 8530TIP3    H247082   2.564   1.198  13.180 -0.6402  0.4474 -0.7107
 8531TIP3   OH247083   0.648   4.074  11.127 -0.4014  0.3145 -0.0404
 8531TIP3    H147084   0.716   4.139  11.146 -0.6287  0.8722 -1.0412
 8531TIP3    H247085   0.682   3.992  11.163 -0.3693  1.0803  1.7888
 8532TIP3   OH247086   5.430   3.168  13.008 -0.1081 -0.3769 -0.1374
 8532TIP3    H147087   5.439   3.073  12.999  0.5590 -0.3034 -0.3092
 8532TIP3    H247088   5.413   3.199  12.919 -3.1291 -0.5856  0.2616
 8533TIP3   OH247089   5.320   6.369   1.167  0.3354 -0.7499 -0.0783
 8533TIP3    H147090   5.254   6.395   1.232  0.9459 -1.2851  0.7687
 8533TIP3    H247091   5.353   6.452   1.131 -2.1505 -0.4479 -1.9589
 8534TIP3   OH247092   5.924   5.859   4.030 -0.5454 -0.2758  0.0990
 8534TIP3    H147093   5.856   5.851   3.963 -0.6344 -0.4194  0.2061
 8534TIP3    H247094   6.006   5.858   3.982 -0.6473  1.5275 -0.2111
 8535TIP3   OH247095   1.988   6.031  12.823 -0.0845 -0.5120 -0.4178
 8535TIP3    H147096   1.978   5.937  12.815 -2.9588 -0.3652  0.0541
 8535TIP3    H247097   1.956   6.066  12.740  2.4120  0.0691 -1.2085
 8536TIP3   OH247098   4.841   4.998  14.757 -0.5166 -0.1066  0.2246
 8536TIP3    H147099   4.857   5.088  14.728 -0.8820 -0.0782  0.1060
 8536TIP3    H247100   4.907   4.982  14.825 -0.9063  0.4998  0.7551
 8537TIP3   OH247101   0.447   4.774  17.121  0.0792 -0.6798  0.0216
 8537TIP3    H147102   0.430   4.868  17.126  1.1929 -0.4232 -0.5750
 8537TIP3    H247103   0.361   4.734  17.114 -0.4462  0.2459  0.9281
 8538TIP3   OH247104   1.572   1.325  15.011  0.3881 -0.1242  0.1688
 8538TIP3    H147105   1.618   1.247  15.042 -0.1403 -0.1454  0.9252
 8538TIP3    H247106   1.571   1.383  15.087  2.0451  1.2346 -0.7620
 8539TIP3   OH247107   2.276   5.311   4.124  0.8728  0.2315  0.7206
 8539TIP3    H147108   2.192   5.265   4.115  0.8585  0.5706 -1.3134
 8539TIP3    H247109   2.278   5.339   4.216 -0.1762 -1.7601  1.4104
 8540TIP3   OH247110   1.741   6.395  14.232 -0.4489 -0.0359 -0.3444
 8540TIP3    H147111   1.781   6.408  14.318 -0.6191 -0.8920 -0.1237
 8540TIP3    H247112   1.692   6.476  14.215 -0.0865  0.2972  0.1793
 8541TIP3   OH247113   3.452   6.272  13.093 -0.6662 -1.0958 -0.4836
 8541TIP3    H147114   3.391   6.286  13.166  0.0674 -2.6624  0.5146
 8541TIP3    H247115   3.404   6.216  13.032 -0.6360 -1.3670 -0.2619
 8542TIP3   OH247116   2.572   0.744  14.602 -0.3060  0.3095  0.3212
 8542TIP3    H147117   2.592   0.751  14.509 -3.4178  1.1105 -0.4177
 8542TIP3    H247118   2.656   0.753  14.646  1.1167  1.1372 -2.3725
 8543TIP3   OH247119   2.710   2.776   0.998  0.2483  0.2980  0.0089
 8543TIP3    H147120   2.730   2.683   1.004 -0.6545  0.0392 -0.7945
 8543TIP3    H247121   2.743   2.813   1.080  0.1922 -0.8032  0.5446
 8544TIP3   OH247122   2.865   4.348   1.409  0.1569 -0.1925  0.4542
 8544TIP3    H147123   2.847   4.399   1.487  0.6998 -0.2190  0.6016
 8544TIP3    H247124   2.881   4.413   1.341  1.4465 -0.1318  0.7768
 8545TIP3   OH247125   1.003   0.579  15.198 -0.2695  0.2054 -0.2093
 8545TIP3    H147126   1.094   0.594  15.173 -0.2228 -2.3603 -2.0389
 8545TIP3    H247127   1.007   0.544  15.287  0.6580 -0.5734 -0.5392
 8546TIP3   OH247128   1.346   3.840  10.481 -0.3710 -0.5151  0.2804
 8546TIP3    H147129   1.332   3.888  10.562 -0.6384  0.0233 -0.0814
 8546TIP3    H247130   1.407   3.894  10.431 -2.2209  0.5037 -0.9984
 8547TIP3   OH247131   5.827   1.775   4.056 -0.2535  0.2187 -0.0107
 8547TIP3    H147132   5.888   1.847   4.071  1.0837 -0.6723 -0.9284
 8547TIP3    H247133   5.877   1.696   4.076 -1.1743 -0.5419 -0.5944
 8548TIP3   OH247134   2.581   5.638  10.180 -0.2347 -0.0954 -0.6764
 8548TIP3    H147135   2.529   5.716  10.202  0.2264  0.0181  0.0628
 8548TIP3    H247136   2.516   5.570  10.165 -0.6194 -0.2799  1.4595
 8549TIP3   OH247137   3.967   0.066   0.810  0.1611  0.2466  0.1885
 8549TIP3    H147138   4.039   0.006   0.829  0.1071 -0.1609 -0.8023
 8549TIP3    H247139   3.957   0.061   0.715 -1.5573 -0.1344  0.3509
 8550TIP3   OH247140   5.582   0.627   5.809 -0.4271 -0.3019  0.4832
 8550TIP3    H147141   5.663   0.577   5.812 -0.0337  0.2199 -0.6407
 8550TIP3    H247142   5.576   0.670   5.895 -0.5292 -1.8623  1.2777
 8551TIP3   OH247143   4.150   0.540   4.426 -0.6381 -0.5711  0.1658
 8551TIP3    H147144   4.167   0.569   4.516  0.0270 -1.2167  0.2657
 8551TIP3    H247145   4.205   0.596   4.371 -2.3210  0.9788 -0.0231
 8552TIP3   OH247146   5.522   5.009  15.761 -0.1995  0.2432  0.1449
 8552TIP3    H147147   5.515   4.991  15.855  1.7723  0.8508  0.4573
 8552TIP3    H247148   5.552   4.926  15.723  1.4108  0.6570  0.4488
 8553TIP3   OH247149   1.789   6.520  16.798  0.4462  0.1674 -0.3409
 8553TIP3    H147150   1.801   6.575  16.721  0.2166 -1.7698 -1.8554
 8553TIP3    H247151   1.831   6.437  16.774 -0.4466 -0.8020  1.2629
 8554TIP3   OH247152   5.133   2.997  17.227  0.0521 -0.1892  0.3598
 8554TIP3    H147153   5.053   2.974  17.274 -0.9346  0.4167 -0.9458
 8554TIP3    H247154   5.152   2.920  17.173  0.2199 -0.2424  0.4942
 8555TIP3   OH247155   0.952   0.061  17.173  0.1455 -0.3585 -0.3663
 8555TIP3    H147156   0.956  -0.034  17.169 -1.5770 -0.5200  0.7174
 8555TIP3    H247157   0.865   0.080  17.210  0.0438  1.6516 -1.4938
 8556TIP3   OH247158   1.267   3.382   6.649 -0.1543  0.6577  0.1102
 8556TIP3    H147159   1.239   3.339   6.568  0.1321  0.2362  0.2311
 8556TIP3    H247160   1.194   3.439   6.673 -1.3381 -1.1419  0.9514
 8557TIP3   OH247161   4.733   5.424   1.682 -0.5373  0.3532 -0.0431
 8557TIP3    H147162   4.723   5.427   1.777 -0.4582 -2.0458  0.0962
 8557TIP3    H247163   4.705   5.510   1.652 -0.7047  1.1035  2.1360
 8558TIP3   OH247164   4.339   2.723   2.605 -0.1746 -0.2439 -0.2264
 8558TIP3    H147165   4.330   2.808   2.561 -0.4373 -1.3966 -2.5615
 8558TIP3    H247166   4.424   2.690   2.576 -0.4654 -1.1536 -0.0921
 8559TIP3   OH247167   3.704   6.712  12.746  0.0601  0.2009 -0.0480
 8559TIP3    H147168   3.701   6.671  12.832 -3.1954  0.4319  0.0491
 8559TIP3    H247169   3.662   6.649  12.688 -2.1747  1.9900 -0.4889
 8560TIP3   OH247170   5.461   3.432  11.373 -0.3318  0.4543 -0.1291
 8560TIP3    H147171   5.439   3.340  11.365 -0.1079  0.3878  0.0089
 8560TIP3    H247172   5.398   3.466  11.437  0.2797  0.1553  0.6370
 8561TIP3   OH247173   3.444   0.011   2.298 -0.0103  0.2055  0.3424
 8561TIP3    H147174   3.457  -0.077   2.262 -2.4435  0.5243 -1.5813
 8561TIP3    H247175   3.454   0.070   2.223  1.1580  1.6045  1.5127
 8562TIP3   OH247176   5.431   4.999   3.198  0.4768  0.1457 -0.7827
 8562TIP3    H147177   5.396   4.979   3.285  0.2691  0.7036 -0.7352
 8562TIP3    H247178   5.507   4.942   3.189 -0.1390 -0.7089 -0.6823
 8563TIP3   OH247179   5.875   4.129   0.098  0.0579  0.5056  0.2529
 8563TIP3    H147180   5.868   4.187   0.174  0.0388 -0.9467  1.4067
 8563TIP3    H247181   5.964   4.095   0.102 -0.1583 -0.1100  0.0478
 8564TIP3   OH247182   4.597   4.981   6.238 -0.3904  0.1922  0.1525
 8564TIP3    H147183   4.590   4.895   6.280  0.1355  1.4323  3.0241
 8564TIP3    H247184   4.507   5.004   6.215 -0.6052 -0.8643 -0.0858
 8565TIP3   OH247185   5.833   4.832  16.664  0.4131  0.3049 -0.1295
 8565TIP3    H147186   5.897   4.899  16.687  1.6042 -0.8747  0.1994
 8565TIP3    H247187   5.785   4.816  16.745  1.9109 -1.0409  0.5534
 8566TIP3   OH247188   0.906   5.618  11.610  0.5088  0.2454 -1.0140
 8566TIP3    H147189   0.992   5.653  11.589  0.7028 -1.2727 -2.9909
 8566TIP3    H247190   0.921   5.562  11.687  0.7917  1.8430  0.1286
 8567TIP3   OH247191   0.576   4.595   0.898 -0.1150  0.3178  0.2386
 8567TIP3    H147192   0.602   4.552   0.980 -0.8034 -0.6242 -0.0212
 8567TIP3    H247193   0.547   4.683   0.925  1.4096  0.6913  0.7666
 8568TIP3   OH247194   0.743   2.707  10.892 -0.3319 -0.0250 -0.2230
 8568TIP3    H147195   0.698   2.760  10.827 -0.0270  0.9021  0.3042
 8568TIP3    H247196   0.716   2.743  10.977  0.2094 -0.4331  0.1379
 8569TIP3   OH247197   3.273   1.878  13.706  0.3906 -0.8750 -0.0602
 8569TIP3    H147198   3.207   1.946  13.719  0.8613 -0.3061 -0.5259
 8569TIP3    H247199   3.322   1.907  13.629  1.0069 -1.4178  0.1131
 8570TIP3   OH247200   0.089   0.250  11.788 -0.3657  0.2293 -0.7099
 8570TIP3    H147201   0.038   0.242  11.707 -0.7818 -0.2383 -0.4013
 8570TIP3    H247202   0.180   0.257  11.758 -0.5356  0.2455 -1.2264
 8571TIP3   OH247203   3.952   2.223   2.494  0.6469  0.5812 -0.6194
 8571TIP3    H147204   4.014   2.156   2.465  1.3386  0.7430  0.4492
 8571TIP3    H247205   3.874   2.208   2.441  1.5425  0.2868 -1.8944
 8572TIP3   OH247206   2.585   0.810  11.713 -0.0809  0.9930  0.2611
 8572TIP3    H147207   2.672   0.845  11.695  1.2993 -2.1365  0.3008
 8572TIP3    H247208   2.564   0.842  11.801  0.3657  2.8852 -0.2687
 8573TIP3   OH247209   5.315   0.588  14.634  0.2406  0.1086  0.1714
 8573TIP3    H147210   5.397   0.571  14.680 -0.4345 -1.3822  0.9005
 8573TIP3    H247211   5.296   0.680  14.652  0.8316 -0.0115  1.5300
 8574TIP3   OH247212   0.277   2.304  12.262  0.3699 -0.2958  0.1208
 8574TIP3    H147213   0.343   2.330  12.197  1.4309 -0.7572  0.9673
 8574TIP3    H247214   0.244   2.387  12.297  0.4863 -0.0535 -0.3290
 8575TIP3   OH247215   0.872   4.518  10.415 -0.4396 -1.0853 -0.4532
 8575TIP3    H147216   0.885   4.596  10.469  0.6908  0.2745 -2.5455
 8575TIP3    H247217   0.867   4.446  10.478 -1.3208  0.6121  1.5471
 8576TIP3   OH247218   6.326   2.473   6.155 -1.0138 -0.6464  0.1047
 8576TIP3    H147219   6.322   2.519   6.071 -1.0966  0.0269  0.4698
 8576TIP3    H247220   6.320   2.542   6.221  4.5871 -0.3804  0.8442
 8577TIP3   OH247221   3.390   3.810  11.352 -1.0396  0.1278  0.2647
 8577TIP3    H147222   3.349   3.784  11.269 -0.1142 -1.7051  0.3348
 8577TIP3    H247223   3.340   3.762  11.419  0.1693 -0.9037  0.4704
 8578TIP3   OH247224   1.226   1.348   0.760  0.3705 -0.3716 -0.0153
 8578TIP3    H147225   1.278   1.296   0.698 -0.7471 -0.2735 -1.0737
 8578TIP3    H247226   1.273   1.340   0.843  1.1883 -1.6066 -0.5595
 8579TIP3   OH247227   6.747   4.359   3.605 -0.0171  0.3232 -0.5083
 8579TIP3    H147228   6.812   4.413   3.560  0.8321 -0.2371  0.0194
 8579TIP3    H247229   6.776   4.358   3.696 -0.5874 -0.1985 -0.3283
 8580TIP3   OH247230   3.164   4.660  17.046  0.1578 -0.0609  0.2481
 8580TIP3    H147231   3.226   4.709  17.099  0.4838  0.4792 -0.6061
 8580TIP3    H247232   3.097   4.724  17.022  1.5663  0.5416 -2.4571
 8581TIP3   OH247233   3.045   2.195   4.955 -0.1542  0.0390 -0.1380
 8581TIP3    H147234   3.126   2.228   4.916 -0.0197  0.3396  0.3903
 8581TIP3    H247235   3.007   2.141   4.887  0.1493  0.4448 -0.6417
 8582TIP3   OH247236   2.276   6.220  12.404  0.0144  0.3130  0.2951
 8582TIP3    H147237   2.303   6.307  12.435  1.3475 -0.1084  0.3762
 8582TIP3    H247238   2.356   6.168  12.407 -0.3378 -0.4172 -1.5250
 8583TIP3   OH247239   0.832   5.457   6.564 -0.6588  0.3383  0.3060
 8583TIP3    H147240   0.737   5.455   6.573 -0.5941  1.3365  1.4336
 8583TIP3    H247241   0.861   5.373   6.598 -1.0962  0.3263  0.6593
 8584TIP3   OH247242   0.830   0.887   5.778  0.1725 -0.1335  0.3627
 8584TIP3    H147243   0.905   0.833   5.802 -0.6655 -2.0043 -0.9324
 8584TIP3    H247244   0.754   0.834   5.802 -0.7182  0.9482  0.0233
 8585TIP3   OH247245   6.130   1.629   1.888  0.0768  0.3964  0.0505
 8585TIP3    H147246   6.085   1.648   1.807  1.2878  0.1652 -0.7061
 8585TIP3    H247247   6.084   1.553   1.924 -1.2839  1.2925  0.2760
 8586TIP3   OH247248   2.973   0.685  13.491 -0.2702  0.1691  0.0796
 8586TIP3    H147249   2.971   0.751  13.422 -1.1201  0.2087  0.1390
 8586TIP3    H247250   3.034   0.720  13.556 -1.7258  1.5696  0.7584
 8587TIP3   OH247251   2.852   1.471  15.450  0.1891  0.1077 -0.3742
 8587TIP3    H147252   2.759   1.461  15.428  0.0173  0.2248  0.2639
 8587TIP3    H247253   2.885   1.533  15.384  0.0866 -0.7637 -1.2713
 8588TIP3   OH247254   0.148   6.080  16.836 -0.2345  0.3219  0.2426
 8588TIP3    H147255   0.228   6.086  16.888  0.5247 -1.0820 -0.6788
 8588TIP3    H247256   0.158   5.998  16.787 -1.3540  1.0970 -1.3640
 8589TIP3   OH247257   3.412   0.344  14.931  0.4059 -0.2487  0.5137
 8589TIP3    H147258   3.505   0.332  14.950  0.4609  0.4633  0.7337
 8589TIP3    H247259   3.408   0.424  14.879 -0.1486  0.1745  1.1784
 8590TIP3   OH247260   1.918   3.062   3.348 -0.8765 -0.2742 -0.1785
 8590TIP3    H147261   1.984   3.131   3.335 -2.5993  1.7432  1.1084
 8590TIP3    H247262   1.897   3.032   3.259  1.1760 -0.4457 -0.6596
 8591TIP3   OH247263   1.255   1.926   1.137  0.0603  0.0754 -0.8368
 8591TIP3    H147264   1.215   1.998   1.186 -1.7775  0.4414 -2.7448
 8591TIP3    H247265   1.341   1.959   1.112  0.2533  0.6076  0.4559
 8592TIP3   OH247266   4.161   3.886   3.727  0.0710 -0.2562  0.0661
 8592TIP3    H147267   4.097   3.819   3.750 -0.4991  0.7063  1.4526
 8592TIP3    H247268   4.177   3.874   3.633 -1.3915 -1.1338 -0.0926
 8593TIP3   OH247269   2.062   1.902  14.075  0.0882  0.3879  0.2110
 8593TIP3    H147270   2.004   1.919  14.001  1.1793  2.7566 -0.2135
 8593TIP3    H247271   2.025   1.954  14.147  0.5244  0.2672  0.5324
 8594TIP3   OH247272   4.488   0.784   3.730  0.0619 -0.2689  0.0354
 8594TIP3    H147273   4.435   0.864   3.722  0.5409 -0.0989 -1.6446
 8594TIP3    H247274   4.520   0.787   3.820 -0.6922  0.9412  0.3032
 8595TIP3   OH247275   1.395   3.131   0.427  0.2592 -0.3120 -0.0845
 8595TIP3    H147276   1.477   3.088   0.401 -1.3028 -3.1985 -0.6555
 8595TIP3    H247277   1.348   3.064   0.478 -1.7613  1.2579  0.2322
 8596TIP3   OH247278   4.140   1.030   3.573 -0.6263 -0.0868 -0.0551
 8596TIP3    H147279   4.045   1.026   3.558 -0.6451  3.7085 -2.4235
 8596TIP3    H247280   4.178   0.983   3.499 -0.6354 -0.7556  0.3586
 8597TIP3   OH247281   3.726   1.689   1.429  0.3492 -0.5048  0.3189
 8597TIP3    H147282   3.699   1.655   1.515  2.5108 -1.3252  0.7506
 8597TIP3    H247283   3.644   1.702   1.382 -0.8978 -0.3224  2.3881
 8598TIP3   OH247284   5.455   5.437   0.329  0.0735  0.5705  0.0153
 8598TIP3    H147285   5.436   5.407   0.240 -0.4350 -2.2991  1.0058
 8598TIP3    H247286   5.378   5.413   0.380  1.8595 -1.5292  1.9695
 8599TIP3   OH247287   3.867   4.574   1.134 -0.2051  0.5555 -0.4246
 8599TIP3    H147288   3.858   4.668   1.150 -2.1210  0.0697  1.9134
 8599TIP3    H247289   3.951   4.566   1.089  0.1381  3.3502 -0.4854
 8600TIP3   OH247290   2.445   2.975   2.273 -0.0622  0.3825  0.7717
 8600TIP3    H147291   2.350   2.967   2.286 -0.0771 -0.5835  0.1582
 8600TIP3    H247292   2.477   3.010   2.356 -1.1809  2.7554  0.2973
 8601TIP3   OH247293   5.564   5.838  15.031 -0.6702  0.2728  0.3765
 8601TIP3    H147294   5.630   5.891  15.076  1.7162  0.4583 -2.8852
 8601TIP3    H247295   5.481   5.881  15.050  0.7617  3.2046  0.6761
 8602TIP3   OH247296   2.530   5.139  12.601 -0.0526  0.0555  0.0862
 8602TIP3    H147297   2.599   5.190  12.643 -0.3127  0.2229  0.3138
 8602TIP3    H247298   2.563   5.049  12.602 -0.3718 -0.0687  1.3513
 8603TIP3   OH247299   4.804   1.765   4.959  0.2696 -0.9711 -0.4612
 8603TIP3    H147300   4.770   1.842   5.004  0.6165  0.6514 -2.8025
 8603TIP3    H247301   4.894   1.755   4.992  0.5773  0.2871 -0.8717
 8604TIP3   OH247302   3.160   2.584   1.530  0.0121 -0.0137 -0.2578
 8604TIP3    H147303   3.090   2.598   1.594 -1.1687  0.0364 -1.4958
 8604TIP3    H247304   3.241   2.603   1.577 -0.7226 -1.0826  1.5280
 8605TIP3   OH247305   3.973   3.821   2.345 -0.3878 -0.4981  0.6549
 8605TIP3    H147306   3.915   3.760   2.300 -1.3160 -0.2736  1.5086
 8605TIP3    H247307   3.940   3.824   2.435  1.2453 -0.7269  1.2938
 8606TIP3   OH247308   1.472   3.515  17.167  0.2633 -0.1680  0.6453
 8606TIP3    H147309   1.409   3.585  17.180  0.2415 -0.0474 -0.0785
 8606TIP3    H247310   1.433   3.459  17.099  0.5680 -0.5321  0.7632
 8607TIP3   OH247311   4.622   5.649   1.568 -0.3167  0.1991 -0.2249
 8607TIP3    H147312   4.604   5.598   1.488 -1.7529  1.5817 -0.8334
 8607TIP3    H247313   4.696   5.705   1.545  0.6287 -0.8408  0.1349
 8608TIP3   OH247314   4.006   6.707  17.110  0.5189  1.2192  0.4155
 8608TIP3    H147315   3.998   6.703  17.205 -1.3093  1.1060  0.2919
 8608TIP3    H247316   4.054   6.629  17.086  1.2741  1.4156  1.2672
 8609TIP3   OH247317   0.081   1.731  14.720  0.3109 -0.5252  0.6298
 8609TIP3    H147318   0.168   1.691  14.711 -0.6986 -2.6230 -0.4890
 8609TIP3    H247319   0.020   1.660  14.701 -1.6286  1.6765 -2.3434
 8610TIP3   OH247320   4.940   6.224  15.225 -0.6194 -0.5858  0.2346
 8610TIP3    H147321   4.982   6.138  15.226 -0.9856 -0.7613  0.8009
 8610TIP3    H247322   4.890   6.225  15.143 -0.2562 -0.7357  0.0090
 8611TIP3   OH247323   5.931   0.012   1.709  0.4725 -0.6653 -0.1949
 8611TIP3    H147324   5.998   0.076   1.685  0.3232 -0.6020 -0.4472
 8611TIP3    H247325   5.970  -0.038   1.780  0.6688 -0.4246 -0.1316
 8612TIP3   OH247326   5.938   4.676  12.619 -0.4147 -0.6387  0.1836
 8612TIP3    H147327   5.950   4.727  12.699 -2.3827 -0.8058  0.6175
 8612TIP3    H247328   5.846   4.652  12.619 -0.4319 -0.7778 -2.0670
 8613TIP3   OH247329   6.333   1.824   1.200  0.1900  0.5775  0.9611
 8613TIP3    H147330   6.332   1.902   1.143 -0.6171  0.2935  0.5719
 8613TIP3    H247331   6.426   1.806   1.213  0.4217  0.1621 -0.9629
 8614TIP3   OH247332   5.492   2.046  11.483 -0.1779  0.0172  0.5567
 8614TIP3    H147333   5.541   2.128  11.479 -0.8313  0.5545  2.3808
 8614TIP3    H247334   5.422   2.057  11.418 -0.4838  1.0916  1.0444
 8615TIP3   OH247335   4.031   4.235   4.757 -0.1028 -0.4386 -0.1226
 8615TIP3    H147336   4.016   4.306   4.696 -1.6839 -0.0687  0.6545
 8615TIP3    H247337   4.100   4.183   4.717  0.1120  0.7587 -1.3615
 8616TIP3   OH247338   4.926   5.283  14.751 -0.5291 -0.0691  0.1922
 8616TIP3    H147339   5.008   5.278  14.801 -1.0983 -1.8112  1.0090
 8616TIP3    H247340   4.954   5.289  14.660  0.5038 -0.0403  0.4994
 8617TIP3   OH247341   3.235   5.144  15.860  0.1471  0.5629 -0.3926
 8617TIP3    H147342   3.299   5.215  15.861  0.9468 -0.1248  0.5712
 8617TIP3    H247343   3.267   5.084  15.792  0.5922  0.1769  0.1487
 8618TIP3   OH247344   0.537   5.355   3.965 -0.4701  0.0327  0.0214
 8618TIP3    H147345   0.522   5.450   3.967 -0.1492  0.2478 -2.8299
 8618TIP3    H247346   0.610   5.341   4.025 -0.1624  1.6796  0.0742
 8619TIP3   OH247347   2.641   1.101  11.204  0.5914  0.0291  0.3722
 8619TIP3    H147348   2.591   1.182  11.203 -0.9241 -0.8783 -0.3890
 8619TIP3    H247349   2.707   1.115  11.272 -0.5588  1.3534  1.2805
 8620TIP3   OH247350   0.042   3.034  11.217  0.4322 -0.2193 -0.0431
 8620TIP3    H147351   0.112   2.997  11.163  1.0499  1.3899 -0.3982
 8620TIP3    H247352  -0.038   3.010  11.171  0.8029 -1.1074 -0.2536
 8621TIP3   OH247353   2.162   2.609  14.933 -0.4527 -0.2185 -0.3584
 8621TIP3    H147354   2.085   2.556  14.953 -1.5395  0.9400 -1.2505
 8621TIP3    H247355   2.173   2.601  14.838  0.3531 -0.1298 -0.2809
 8622TIP3   OH247356   3.528   3.352  16.189 -0.3188 -0.1712  0.0033
 8622TIP3    H147357   3.518   3.283  16.254  1.6232 -0.4369  0.0692
 8622TIP3    H247358   3.593   3.411  16.227  1.4468 -0.7361 -1.9598
 8623TIP3   OH247359   4.641   3.841   1.859 -0.1216  0.0825 -0.3459
 8623TIP3    H147360   4.673   3.759   1.821 -2.1438 -1.4923  1.0824
 8623TIP3    H247361   4.712   3.904   1.846  1.2823 -1.7406 -1.9968
 8624TIP3   OH247362   1.779   4.845   1.639  0.7119  0.1858  0.2505
 8624TIP3    H147363   1.714   4.775   1.637  0.8027  0.0965  0.4012
 8624TIP3    H247364   1.861   4.802   1.616  1.3810 -0.4299  3.2565
 8625TIP3   OH247365   4.417   3.602   0.516  0.0110 -0.0594 -0.3931
 8625TIP3    H147366   4.339   3.584   0.464 -0.1793 -2.2151  0.5464
 8625TIP3    H247367   4.464   3.669   0.466 -1.1911 -0.5172 -2.2473
 8626TIP3   OH247368   3.875   3.916   5.162 -0.2748 -0.3632  0.3959
 8626TIP3    H147369   3.884   3.937   5.069  1.1091  0.8257  0.7624
 8626TIP3    H247370   3.931   3.979   5.206  0.4526 -1.9898  1.9266
 8627TIP3   OH247371   2.869   2.533   4.373 -0.4802  0.4940 -0.5621
 8627TIP3    H147372   2.953   2.499   4.343  0.4210  2.0044  0.1036
 8627TIP3    H247373   2.808   2.513   4.303  0.4190 -0.6914 -1.0325
 8628TIP3   OH247374   2.505   2.380   3.274  0.1668 -0.0749 -0.7524
 8628TIP3    H147375   2.563   2.442   3.318  1.3987  1.4410 -4.1636
 8628TIP3    H247376   2.428   2.376   3.329  1.3563  2.0325  1.2307
 8629TIP3   OH247377   2.615   1.938   1.563 -0.0157  0.5273 -0.3498
 8629TIP3    H147378   2.583   1.997   1.631  0.5039  0.5801 -0.1499
 8629TIP3    H247379   2.708   1.926   1.583 -0.5332 -2.1619  0.9878
 8630TIP3   OH247380   3.662   2.463  16.672 -0.0474 -0.7811 -0.1585
 8630TIP3    H147381   3.657   2.508  16.587  0.2152 -1.1204 -0.3566
 8630TIP3    H247382   3.744   2.494  16.711 -0.6230  0.0942  0.3916
 8631TIP3   OH247383   6.147   2.036   5.273 -0.0897  0.0175 -0.1562
 8631TIP3    H147384   6.069   2.022   5.326 -1.1894 -0.7086 -1.8562
 8631TIP3    H247385   6.166   2.129   5.280 -0.3785 -0.0192  1.2455
 8632TIP3   OH247386   6.776   3.994   1.414 -0.4395  0.0682 -0.4092
 8632TIP3    H147387   6.775   4.049   1.493  0.1734 -0.5703  0.0577
 8632TIP3    H247388   6.766   4.056   1.342 -3.8652  0.4602  0.2341
 8633TIP3   OH247389   4.072   2.638   1.214 -0.4667 -0.0601 -0.2298
 8633TIP3    H147390   4.020   2.668   1.140  0.0797  2.8152  0.4172
 8633TIP3    H247391   4.162   2.643   1.183 -0.2114  1.4528  0.6230
 8634TIP3   OH247392   2.234   5.367   5.617  0.4695  0.8538  0.7048
 8634TIP3    H147393   2.171   5.437   5.603 -1.2327 -0.6057  0.7662
 8634TIP3    H247394   2.315   5.412   5.643 -0.1899  2.8317 -0.5134
 8635TIP3   OH247395   3.580   5.765  12.198  0.2476 -0.5204  0.0206
 8635TIP3    H147396   3.522   5.698  12.236  2.5517 -0.9801  3.1436
 8635TIP3    H247397   3.659   5.717  12.173 -0.5281  0.0467 -4.3706
 8636TIP3   OH247398   5.237   3.630   4.085  0.0410 -0.5485 -0.2603
 8636TIP3    H147399   5.299   3.696   4.117  0.0517 -0.4246 -0.5353
 8636TIP3    H247400   5.156   3.648   4.132 -0.7787  1.3499 -2.2091
 8637TIP3   OH247401   4.023   5.227  16.756 -0.3148 -1.1919 -0.1367
 8637TIP3    H147402   4.054   5.271  16.677 -0.5234  0.6844  0.7544
 8637TIP3    H247403   4.102   5.195  16.799  0.6018  3.1118  1.8737
 8638TIP3   OH247404   5.634   0.164  14.060 -0.7222 -0.2038 -0.2493
 8638TIP3    H147405   5.558   0.219  14.042 -0.7180 -0.4222 -0.9804
 8638TIP3    H247406   5.633   0.152  14.155  0.1424  2.2952  0.1490
 8639TIP3   OH247407   1.585   6.031  12.988  0.0626  0.1664  0.3729
 8639TIP3    H147408   1.613   6.032  12.897 -1.8172 -1.6730 -0.3293
 8639TIP3    H247409   1.553   6.120  13.004 -0.5761  0.2456 -1.1297
 8640TIP3   OH247410   0.622   0.627   5.321  0.2854  0.7582 -0.5607
 8640TIP3    H147411   0.581   0.541   5.334  3.5566 -0.7901  0.4551
 8640TIP3    H247412   0.646   0.656   5.409  2.3041  1.0416 -1.1671
 8641TIP3   OH247413   4.237   1.633  12.384 -0.0556 -0.2407 -1.0393
 8641TIP3    H147414   4.289   1.670  12.312  0.3409  0.2966 -0.4894
 8641TIP3    H247415   4.296   1.637  12.460 -0.9361  0.4589 -0.3833
 8642TIP3   OH247416   1.357   0.154   5.503  0.3722  0.1796  0.6097
 8642TIP3    H147417   1.422   0.210   5.460  0.4373  1.0483  1.7881
 8642TIP3    H247418   1.309   0.213   5.561 -1.3486 -0.4928 -0.0733
 8643TIP3   OH247419   3.748   2.151   1.875 -0.5335  0.0044  0.0603
 8643TIP3    H147420   3.761   2.095   1.799 -0.4031  0.2217 -0.0764
 8643TIP3    H247421   3.776   2.097   1.949 -0.1701 -0.0243 -0.0961
 8644TIP3   OH247422   1.023   1.607  14.702 -0.5422 -0.0226  0.3415
 8644TIP3    H147423   1.005   1.522  14.742 -0.1132  0.5692  1.8490
 8644TIP3    H247424   0.967   1.669  14.748  1.0251  0.9143  1.0874
 8645TIP3   OH247425   5.523   4.833  13.020  0.0918  0.7745 -0.2419
 8645TIP3    H147426   5.434   4.800  13.013  1.1237 -2.0624 -1.6751
 8645TIP3    H247427   5.558   4.793  13.100 -0.0982  2.4798  0.7342
 8646TIP3   OH247428   1.975   3.327   4.035  0.2488  0.1548 -0.0047
 8646TIP3    H147429   1.973   3.356   4.126 -0.5480  1.2504 -0.3539
 8646TIP3    H247430   1.946   3.403   3.985  0.3253 -0.5487 -1.1492
 8647TIP3   OH247431   6.649   4.041  16.312  0.6378 -0.3450  0.0743
 8647TIP3    H147432   6.693   4.116  16.271  0.1291 -0.4325 -0.6517
 8647TIP3    H247433   6.580   4.018  16.250  0.7112 -1.3390  0.3585
 8648TIP3   OH247434   3.170   1.638  14.633 -0.3506 -0.2656 -0.3967
 8648TIP3    H147435   3.085   1.603  14.610 -0.0041 -1.2763 -0.1576
 8648TIP3    H247436   3.165   1.658  14.726 -0.6786  0.7454 -0.6119
 8649TIP3   OH247437   5.656   4.680  13.536  0.2459  0.2513  0.2061
 8649TIP3    H147438   5.641   4.606  13.594 -0.2419  0.1399 -0.0576
 8649TIP3    H247439   5.582   4.678  13.475  0.8178  0.2846 -0.5013
 8650TIP3   OH247440   1.343   0.953  11.900 -0.3039  0.0626 -0.1010
 8650TIP3    H147441   1.256   0.932  11.868 -0.7193  2.0980 -0.4804
 8650TIP3    H247442   1.394   0.972  11.820 -0.3535  1.6651  0.2017
 8651TIP3   OH247443   3.192   1.017  14.421  0.4713 -0.3461  0.3021
 8651TIP3    H147444   3.167   1.013  14.514 -0.2468 -0.7958  0.1006
 8651TIP3    H247445   3.159   1.102  14.392  1.2659  0.0724  0.6123
 8652TIP3   OH247446   4.163   0.067   5.329  1.1493 -0.2958  0.2054
 8652TIP3    H147447   4.122   0.147   5.295 -0.0097 -0.7036  0.5667
 8652TIP3    H247448   4.187   0.017   5.250  3.1221  0.9619 -0.0512
 8653TIP3   OH247449   5.109   3.392   5.532  0.0670 -0.3269 -0.6801
 8653TIP3    H147450   5.087   3.481   5.506  0.1811 -0.6564 -1.9751
 8653TIP3    H247451   5.140   3.350   5.451  2.7572 -0.7140  0.4522
 8654TIP3   OH247452   6.731   1.494   3.516  0.1042  0.2309 -0.4573
 8654TIP3    H147453   6.788   1.471   3.589 -1.1794 -0.2486  0.4294
 8654TIP3    H247454   6.696   1.581   3.538  1.7664  1.3217 -1.8312
 8655TIP3   OH247455   5.792   0.648   0.551  0.1813  0.0203 -0.4726
 8655TIP3    H147456   5.812   0.571   0.498  0.0581 -0.6198  0.3975
 8655TIP3    H247457   5.872   0.701   0.547  0.7200 -0.7451 -0.0705
 8656TIP3   OH247458   3.937   2.476   0.611 -0.2857 -0.0835  0.8776
 8656TIP3    H147459   3.854   2.428   0.606 -0.5481  0.2199  2.1717
 8656TIP3    H247460   3.919   2.559   0.566 -0.0531 -0.8344 -0.6895
 8657TIP3   OH247461   3.507   6.285   2.348 -0.1501  0.0655 -0.0164
 8657TIP3    H147462   3.482   6.368   2.390 -0.0614 -0.2344  0.6440
 8657TIP3    H247463   3.426   6.235   2.344 -0.4096  0.5613 -1.3237
 8658TIP3   OH247464   3.390   0.027  14.783 -0.5497 -0.6649  0.4153
 8658TIP3    H147465   3.322  -0.026  14.824 -0.8740  0.5559  1.5220
 8658TIP3    H247466   3.458   0.036  14.850 -0.6382  0.5500  0.3615
 8659TIP3   OH247467   2.509   1.676   1.658 -0.5123  0.4055 -0.5219
 8659TIP3    H147468   2.544   1.762   1.638 -2.1200  1.0684 -0.6849
 8659TIP3    H247469   2.440   1.662   1.592 -1.1255 -0.4384  0.2603
 8660TIP3   OH247470   1.524   3.121  10.482 -0.4245  0.2540 -0.0317
 8660TIP3    H147471   1.464   3.196  10.480 -2.6390 -1.3719  0.9766
 8660TIP3    H247472   1.541   3.107  10.576 -0.7940 -1.0382 -0.1412
 8661TIP3   OH247473   3.446   1.629   5.542 -0.1036  0.1504 -0.0196
 8661TIP3    H147474   3.378   1.662   5.601  0.1859 -0.2386  0.5518
 8661TIP3    H247475   3.510   1.699   5.538 -0.3891  0.3955 -0.3101
 8662TIP3   OH247476   2.422   2.312  16.970 -0.6446  0.7023  0.5362
 8662TIP3    H147477   2.389   2.223  16.957 -0.5965  0.8469 -0.7740
 8662TIP3    H247478   2.379   2.364  16.902  0.3226  1.4002  0.4236
 8663TIP3   OH247479   4.334   0.501   3.201  0.3618  0.2415  0.0100
 8663TIP3    H147480   4.283   0.423   3.177 -0.1322  1.2002 -2.3388
 8663TIP3    H247481   4.270   0.558   3.244 -0.4300  1.0250 -2.0439
 8664TIP3   OH247482   5.281   6.184  16.439  0.1483 -0.1415  0.3835
 8664TIP3    H147483   5.227   6.157  16.514 -1.2913  2.4171  0.4116
 8664TIP3    H247484   5.221   6.182  16.364  0.8076 -0.0065 -0.1620
 8665TIP3   OH247485   4.562   5.220   2.009 -0.4975  0.7007  0.1453
 8665TIP3    H147486   4.530   5.187   1.924 -1.3174  0.0384  0.6956
 8665TIP3    H247487   4.610   5.300   1.987  0.5723 -0.2493 -1.1047
 8666TIP3   OH247488   2.740   6.583  13.585 -0.7233 -0.4541 -0.3710
 8666TIP3    H147489   2.677   6.522  13.623  0.7714 -1.4056  0.6583
 8666TIP3    H247490   2.728   6.664  13.636  0.6092 -1.4259  1.5858
 8667TIP3   OH247491   1.503   4.588   4.172  0.4675  0.5957 -0.6612
 8667TIP3    H147492   1.448   4.518   4.208  1.8271  0.1141  0.5787
 8667TIP3    H247493   1.449   4.667   4.181  0.0510  0.1849  0.7874
 8668TIP3   OH247494   0.800   2.346   4.829  0.3426 -0.5959 -0.4267
 8668TIP3    H147495   0.833   2.283   4.765  1.1011 -2.1645  1.4213
 8668TIP3    H247496   0.861   2.341   4.902 -0.7501  0.7928  0.6414
 8669TIP3   OH247497   3.594   2.263   0.935 -0.0685  0.2510  0.1379
 8669TIP3    H147498   3.614   2.170   0.942  1.1167  0.4653 -0.1134
 8669TIP3    H247499   3.624   2.300   1.018 -1.2904  0.2914  0.5691
 8670TIP3   OH247500   6.383   2.322  15.921 -0.1439  0.6381  0.2853
 8670TIP3    H147501   6.330   2.259  15.873  0.0977  1.4711 -1.1462
 8670TIP3    H247502   6.416   2.381  15.854  2.2037  0.4485  1.1892
 8671TIP3   OH247503   2.397   4.224  16.796 -0.4886  0.4833 -0.7809
 8671TIP3    H147504   2.420   4.276  16.873 -1.3851  0.7585 -0.6927
 8671TIP3    H247505   2.453   4.259  16.726  1.1248 -0.4882 -0.0321
 8672TIP3   OH247506   0.407   4.758  15.448 -0.1950  0.3752  0.9246
 8672TIP3    H147507   0.335   4.809  15.483 -1.4801  0.2170 -1.3130
 8672TIP3    H247508   0.458   4.820  15.395  0.0113  0.0179  0.6952
 8673TIP3   OH247509   5.122   0.827   1.817  0.4416 -0.0827 -0.4116
 8673TIP3    H147510   5.153   0.864   1.734 -0.9643  0.1485 -0.8703
 8673TIP3    H247511   5.140   0.734   1.810  0.3614 -0.0623 -0.9754
 8674TIP3   OH247512   0.953   2.566  13.268  0.3177  0.0952  0.1308
 8674TIP3    H147513   0.982   2.491  13.216  1.9491  0.2091  0.8002
 8674TIP3    H247514   0.857   2.562  13.265  0.2938 -2.9317  1.4372
 8675TIP3   OH247515   3.748   5.729   6.805  1.0642  0.3331 -0.6237
 8675TIP3    H147516   3.732   5.797   6.739  3.5306  1.0640 -0.5547
 8675TIP3    H247517   3.799   5.772   6.873 -0.1339 -0.8040  1.0796
 8676TIP3   OH247518   2.240   6.556  11.423  0.2524 -0.0909 -0.0623
 8676TIP3    H147519   2.269   6.513  11.504  2.5785  2.8504  0.8195
 8676TIP3    H247520   2.273   6.499  11.353  0.0191 -1.6007  0.9927
 8677TIP3   OH247521   1.138   0.556   2.367 -0.2140  0.0420 -0.8490
 8677TIP3    H147522   1.131   0.473   2.320 -2.1618  0.5815 -1.6126
 8677TIP3    H247523   1.050   0.571   2.402  0.2785  1.4447 -0.1159
 8678TIP3   OH247524   4.124   2.539  12.955 -1.2347 -0.1557 -0.1831
 8678TIP3    H147525   4.035   2.504  12.943 -1.1041  0.1550 -2.4380
 8678TIP3    H247526   4.177   2.490  12.893  0.4294 -0.9928  1.7622
 8679TIP3   OH247527   2.649   6.512   0.505  0.4327 -0.2644  0.1328
 8679TIP3    H147528   2.713   6.471   0.447 -0.1846 -0.4683 -0.4168
 8679TIP3    H247529   2.568   6.516   0.453 -0.2902 -0.9584  1.1697
 8680TIP3   OH247530   4.745   0.571   4.527 -0.3660  0.4576 -0.5693
 8680TIP3    H147531   4.801   0.534   4.458  0.8909  1.1041  0.0892
 8680TIP3    H247532   4.783   0.656   4.546 -0.5703  0.2100  1.0751
 8681TIP3   OH247533   0.292   4.055  12.155 -0.2442  0.0498  0.2648
 8681TIP3    H147534   0.383   4.057  12.125  0.4403  1.4592  2.2549
 8681TIP3    H247535   0.254   4.135  12.118 -1.1007 -1.1433 -1.5950
 8682TIP3   OH247536   2.066   5.377   6.161 -0.0963 -0.1549 -0.3348
 8682TIP3    H147537   2.029   5.405   6.077 -2.9794  1.0459  1.1495
 8682TIP3    H247538   2.073   5.458   6.212  2.9734 -0.6379  0.1900
 8683TIP3   OH247539   1.789   1.779  16.343 -0.4842  0.6329  0.3647
 8683TIP3    H147540   1.698   1.807  16.335 -1.0363 -0.8934  0.8938
 8683TIP3    H247541   1.806   1.783  16.437 -0.9928 -1.8945  0.6175
 8684TIP3   OH247542   4.829   4.290  12.424  0.2274  0.1390 -0.2532
 8684TIP3    H147543   4.813   4.312  12.516 -1.0782  1.3861 -0.7475
 8684TIP3    H247544   4.918   4.322  12.407  0.3772  0.1387  0.4911
 8685TIP3   OH247545   6.153   5.674  12.915 -0.0080 -0.3742 -0.2505
 8685TIP3    H147546   6.183   5.587  12.890 -0.8008 -0.4725 -0.8798
 8685TIP3    H247547   6.183   5.684  13.006 -0.5267 -1.5848  0.0763
 8686TIP3   OH247548   3.086   3.872   3.876  0.4435 -0.4048 -0.1532
 8686TIP3    H147549   2.990   3.880   3.881  0.5399  0.2705  1.4601
 8686TIP3    H247550   3.117   3.963   3.882  1.2370 -0.7655  2.9368
 8687TIP3   OH247551   6.628   5.096  12.598 -0.7047 -0.2491  0.6105
 8687TIP3    H147552   6.722   5.086  12.586 -1.0116 -2.1302 -0.9214
 8687TIP3    H247553   6.594   5.006  12.597 -2.3177  0.2039  3.4925
 8688TIP3   OH247554   1.622   2.418   1.656  0.3567 -0.1042  0.1936
 8688TIP3    H147555   1.663   2.425   1.569  0.2934  2.7157  0.2958
 8688TIP3    H247556   1.670   2.348   1.700  0.3170 -1.6885 -2.1158
 8689TIP3   OH247557   3.945   6.423   4.565 -0.5588 -0.2762  0.6153
 8689TIP3    H147558   3.859   6.409   4.525  0.0782 -0.9121 -0.5951
 8689TIP3    H247559   3.941   6.512   4.601 -1.3638  0.1132 -0.3871
 8690TIP3   OH247560   0.354   3.085  15.835 -0.5169 -0.5197 -0.0548
 8690TIP3    H147561   0.298   3.015  15.801 -0.1039 -0.5843 -0.6307
 8690TIP3    H247562   0.434   3.041  15.862  0.3849 -0.1040 -1.9090
 8691TIP3   OH247563   3.411   5.355  11.612  0.2613  0.2586 -0.4816
 8691TIP3    H147564   3.484   5.382  11.668 -1.1768  1.9278  0.6993
 8691TIP3    H247565   3.437   5.385  11.524  0.4742  2.0255  0.1365
 8692TIP3   OH247566   0.772   1.428  12.823  0.0594 -0.3511 -0.1818
 8692TIP3    H147567   0.734   1.437  12.736 -0.3608 -0.1287  0.0245
 8692TIP3    H247568   0.814   1.341  12.821 -1.0870 -0.9214 -0.1690
 8693TIP3   OH247569   5.614   2.561   0.942  0.1957 -0.2869 -0.6766
 8693TIP3    H147570   5.705   2.591   0.939  0.2533 -0.5064 -2.1683
 8693TIP3    H247571   5.569   2.618   0.879 -0.9757  0.5937  0.8859
 8694TIP3   OH247572   6.770   0.821  13.538  0.7432 -0.7518  0.2795
 8694TIP3    H147573   6.810   0.775  13.464  1.5232  0.2274  0.0668
 8694TIP3    H247574   6.814   0.785  13.615 -0.3669 -2.0733  0.3140
 8695TIP3   OH247575   1.837   4.173  16.559 -0.0542 -0.2564  0.3660
 8695TIP3    H147576   1.929   4.184  16.583  0.1694 -1.3356  0.0591
 8695TIP3    H247577   1.835   4.187  16.465 -0.3186  0.3643  0.4556
 8696TIP3   OH247578   1.735   0.981  16.110  0.2471 -0.6948 -0.0763
 8696TIP3    H147579   1.675   0.923  16.157 -1.1756  0.5680 -0.2640
 8696TIP3    H247580   1.813   0.983  16.164 -1.6513  1.4333  2.8586
 8697TIP3   OH247581   2.347   0.548   1.565  0.6762  0.1695 -0.1556
 8697TIP3    H147582   2.414   0.584   1.624 -0.5763  0.3710  1.2061
 8697TIP3    H247583   2.268   0.546   1.618 -0.3923 -0.1317 -1.7084
 8698TIP3   OH247584   2.211   6.090   6.382 -0.5203  0.0495  0.0535
 8698TIP3    H147585   2.195   6.044   6.299 -0.5053 -1.0216  0.6299
 8698TIP3    H247586   2.244   6.023   6.441 -1.7250  0.5221  1.3207
 8699TIP3   OH247587   3.168   0.785   3.832 -0.3472 -0.4307 -0.5154
 8699TIP3    H147588   3.221   0.830   3.766 -1.0180  2.6272  0.8565
 8699TIP3    H247589   3.230   0.762   3.900  0.2510 -3.1017 -1.8297
 8700TIP3   OH247590   3.139   5.737  14.998 -0.0791 -0.7758  0.4677
 8700TIP3    H147591   3.101   5.755  14.912 -0.4407  0.3068  0.8428
 8700TIP3    H247592   3.166   5.822  15.032  2.4076 -1.4638  0.3804
 8701TIP3   OH247593   5.904   1.543   0.127  0.0573 -0.3594  0.4634
 8701TIP3    H147594   5.968   1.600   0.084 -0.0112 -0.3387  0.3876
 8701TIP3    H247595   5.948   1.459   0.135  1.2236  0.4188  3.1483
 8702TIP3   OH247596   1.368   3.115  11.036 -0.2094  0.6445 -0.6367
 8702TIP3    H147597   1.361   3.059  11.114  1.7894 -0.0940 -0.9275
 8702TIP3    H247598   1.342   3.202  11.067 -0.0826  0.2343  0.7065
 8703TIP3   OH247599   6.531   4.670   2.673  0.2629  0.4347 -0.2017
 8703TIP3    H147600   6.613   4.714   2.653  0.6102 -0.5975 -1.0968
 8703TIP3    H247601   6.532   4.661   2.769  0.5415  1.6355 -0.0734
 8704TIP3   OH247602   2.128   6.172   0.438  0.0105 -0.0243 -0.2234
 8704TIP3    H147603   2.169   6.086   0.437  0.8960  0.3653  0.7030
 8704TIP3    H247604   2.035   6.153   0.456  0.0996 -0.8051 -0.5342
 8705TIP3   OH247605   5.307   4.100   0.380  0.2628 -0.6162  0.5638
 8705TIP3    H147606   5.229   4.045   0.378  0.1289 -0.4056 -1.2477
 8705TIP3    H247607   5.318   4.123   0.472 -2.7796  0.7102  0.7022
 8706TIP3   OH247608   1.365   3.864   4.256  0.1518 -0.5946 -0.1015
 8706TIP3    H147609   1.304   3.795   4.281 -2.6001  2.5387  2.8742
 8706TIP3    H247610   1.311   3.933   4.218  2.2824  1.1457 -0.2274
 8707TIP3   OH247611   6.745   6.744   5.333  0.0490 -0.0604 -0.9347
 8707TIP3    H147612   6.778   6.706   5.414 -0.8053 -3.2481 -1.9197
 8707TIP3    H247613   6.661   6.782   5.357 -0.5027 -1.5489 -0.3556
 8708TIP3   OH247614   4.873   4.955  11.628 -0.0142  0.3291  0.0174
 8708TIP3    H147615   4.915   4.966  11.543 -1.1387  0.6970 -0.5093
 8708TIP3    H247616   4.792   4.908  11.609  0.5370 -1.1414  1.1284
 8709TIP3   OH247617   2.145   0.615  12.449  0.2449  0.8667  0.6279
 8709TIP3    H147618   2.072   0.553  12.451 -0.1339  1.2239 -0.7082
 8709TIP3    H247619   2.117   0.688  12.503 -0.3312  0.9293  0.2542
 8710TIP3   OH247620   3.511   1.490  13.285 -0.0657  0.1689 -0.1854
 8710TIP3    H147621   3.508   1.571  13.233 -1.7544 -0.6516 -1.4542
 8710TIP3    H247622   3.512   1.420  13.219  3.4985 -0.9199  0.8136
 8711TIP3   OH247623   0.652   5.895  16.968  0.3695  0.0010 -0.3401
 8711TIP3    H147624   0.634   5.948  17.046  1.5851 -1.1428  0.7761
 8711TIP3    H247625   0.565   5.871  16.935 -0.1867  0.3837  0.7719
 8712TIP3   OH247626   4.751   6.260  15.408 -0.4278  0.4866  0.2872
 8712TIP3    H147627   4.830   6.250  15.356 -0.2886 -0.6962  0.7000
 8712TIP3    H247628   4.725   6.171  15.431 -1.7881  0.8579  0.3089
 8713TIP3   OH247629   1.739   1.951   3.475 -0.2918 -0.6907  0.3343
 8713TIP3    H147630   1.741   1.871   3.422 -0.5347 -0.5764  0.1553
 8713TIP3    H247631   1.646   1.962   3.497 -0.3380 -0.1133 -0.1524
 8714TIP3   OH247632   1.506   5.600  14.072  0.1544 -0.1959 -0.5451
 8714TIP3    H147633   1.591   5.556  14.061  0.0668 -0.0872 -1.6778
 8714TIP3    H247634   1.527   5.694  14.068 -0.1333 -0.1734 -1.7860
 8715TIP3   OH247635   3.813   5.298   6.633 -0.3086  0.4813 -0.2271
 8715TIP3    H147636   3.732   5.271   6.590  0.6188 -1.4816 -0.8491
 8715TIP3    H247637   3.861   5.216   6.647  0.6174  1.3352  2.1365
 8716TIP3   OH247638   4.179   6.778  13.936 -0.0279 -0.2448 -0.2997
 8716TIP3    H147639   4.205   6.728  13.859  2.4664  3.5019 -2.1825
 8716TIP3    H247640   4.245   6.759  14.002  1.4295  1.1013 -1.3161
 8717TIP3   OH247641   1.549   5.263   5.476 -0.1452 -0.2618 -0.2887
 8717TIP3    H147642   1.475   5.293   5.424  0.0355 -0.6966 -0.8106
 8717TIP3    H247643   1.615   5.331   5.466 -0.7996  0.5924  0.9468
 8718TIP3   OH247644   3.351   6.815   5.541 -0.0955 -0.2381  0.3828
 8718TIP3    H147645   3.348   6.721   5.559  0.5501 -0.0056  1.9642
 8718TIP3    H247646   3.350   6.855   5.628  0.0168  1.2033 -0.2563
 8719TIP3   OH247647   2.451   5.820   4.434 -0.0292 -0.6393 -0.1022
 8719TIP3    H147648   2.493   5.775   4.508 -0.2768 -1.3474 -0.3837
 8719TIP3    H247649   2.508   5.800   4.360  0.4296  0.3842 -0.0531
 8720TIP3   OH247650   2.406   4.701  11.588 -0.0292 -0.3984 -0.8827
 8720TIP3    H147651   2.463   4.778  11.586  1.7442 -1.6472 -0.6004
 8720TIP3    H247652   2.448   4.641  11.650 -1.9463 -1.1894 -0.2612
 8721TIP3   OH247653   2.597   3.749   6.280  0.3924  0.2214 -0.0313
 8721TIP3    H147654   2.508   3.714   6.286  0.8501 -0.9863 -0.0827
 8721TIP3    H247655   2.648   3.697   6.342  1.2475  0.3202 -0.6345
 8722TIP3   OH247656   4.387   0.707  14.115 -0.5195 -0.2620  0.1426
 8722TIP3    H147657   4.477   0.678  14.099 -0.2687 -0.0467  1.0842
 8722TIP3    H247658   4.338   0.626  14.130 -0.5458 -0.3960 -0.6049
 8723TIP3   OH247659   0.950   3.254   3.527 -0.5857  0.6668  0.3732
 8723TIP3    H147660   0.953   3.180   3.588  0.3461  1.4566  1.3325
 8723TIP3    H247661   0.870   3.301   3.551 -0.3679  0.8198  0.8286
 8724TIP3   OH247662   6.584   3.963  13.899  0.2163 -0.4390  0.6183
 8724TIP3    H147663   6.529   4.041  13.910  1.9806  1.1656 -1.0350
 8724TIP3    H247664   6.553   3.924  13.817  0.7297 -0.1891  0.2955
 8725TIP3   OH247665   3.832   5.218   1.349  0.1990  0.5945 -0.0079
 8725TIP3    H147666   3.899   5.200   1.415  0.0371 -0.7814 -0.2019
 8725TIP3    H247667   3.853   5.159   1.276 -1.4680 -0.1764  0.0966
 8726TIP3   OH247668   0.732   3.163  17.169 -0.0321 -0.0410 -0.1496
 8726TIP3    H147669   0.707   3.219  17.096 -1.5487  0.6588  0.8408
 8726TIP3    H247670   0.729   3.074  17.133  0.5516  0.3642 -1.2547
 8727TIP3   OH247671   4.774   5.448  12.834  0.0510  0.6524 -0.4786
 8727TIP3    H147672   4.726   5.366  12.840 -0.3965  0.9272 -0.2262
 8727TIP3    H247673   4.772   5.470  12.741 -0.6794  0.8705 -0.4173
 8728TIP3   OH247674   4.546   0.295  13.839  0.0253 -0.3797 -0.2305
 8728TIP3    H147675   4.519   0.231  13.905 -0.5400  1.3214  1.2676
 8728TIP3    H247676   4.527   0.380  13.878  0.4114  0.7360 -2.2927
 8729TIP3   OH247677   0.238   1.159   1.840 -0.1706 -0.4083  0.0160
 8729TIP3    H147678   0.145   1.135   1.836 -0.6691  1.0144  1.7896
 8729TIP3    H247679   0.249   1.195   1.928  1.7625  0.7082 -0.6366
 8730TIP3   OH247680   4.464   0.462  11.577  1.0044 -0.2383 -0.2001
 8730TIP3    H147681   4.527   0.393  11.598  0.4031 -0.6594  0.2739
 8730TIP3    H247682   4.389   0.414  11.540  0.7089  0.1895 -0.1620
 8731TIP3   OH247683   1.914   2.265   3.840 -0.0086 -0.5032  0.0035
 8731TIP3    H147684   1.906   2.184   3.789 -0.3371 -1.3170  1.2936
 8731TIP3    H247685   1.885   2.334   3.780 -0.1882 -1.3929 -0.9671
 8732TIP3   OH247686   0.411   3.212   3.349 -0.1738 -0.1322  0.0058
 8732TIP3    H147687   0.394   3.136   3.293  1.3670 -0.0957 -0.5648
 8732TIP3    H247688   0.406   3.287   3.291 -0.1318  0.0547  0.2404
 8733TIP3   OH247689   4.529   2.384   4.845 -0.5532 -0.2971 -0.7785
 8733TIP3    H147690   4.592   2.313   4.833 -0.3335  0.2336 -3.3785
 8733TIP3    H247691   4.465   2.349   4.906  1.6665 -1.2284  1.1764
 8734TIP3   OH247692   2.050   0.337   3.924 -0.6315  0.1167  0.3573
 8734TIP3    H147693   1.955   0.350   3.916 -0.7754 -1.5302 -1.2941
 8734TIP3    H247694   2.087   0.389   3.853 -0.4181 -0.3255  0.1396
 8735TIP3   OH247695   2.766   3.004   0.822 -0.2871  0.1451  0.1054
 8735TIP3    H147696   2.688   2.992   0.768 -0.0526 -0.4365 -0.1134
 8735TIP3    H247697   2.763   2.931   0.884  2.5265 -2.9421 -2.9040
 8736TIP3   OH247698   2.420   0.934  13.558 -0.0234  0.1316 -0.0426
 8736TIP3    H147699   2.349   0.951  13.495  1.5479  1.6746 -1.5153
 8736TIP3    H247700   2.376   0.927  13.642 -1.8619  2.2629 -0.7226
 8737TIP3   OH247701   1.196   1.114  13.297 -0.1855 -0.4744  0.5931
 8737TIP3    H147702   1.131   1.140  13.362 -0.5923  0.9554 -0.3497
 8737TIP3    H247703   1.163   1.148  13.214  2.5832  1.9651  0.3152
 8738TIP3   OH247704   4.855   6.019   3.033  0.0200 -0.4146 -0.1631
 8738TIP3    H147705   4.828   6.102   2.995 -0.4392 -0.2468  0.5110
 8738TIP3    H247706   4.870   6.038   3.125  0.6062 -0.9284 -0.1402
 8739TIP3   OH247707   2.806   6.297  12.125 -0.1431 -0.3887  0.2408
 8739TIP3    H147708   2.872   6.273  12.190  0.6413 -0.8994 -0.7034
 8739TIP3    H247709   2.782   6.215  12.083 -1.3321 -0.1922  0.4969
 8740TIP3   OH247710   5.673   0.964   4.882  0.2891  0.6727  0.6972
 8740TIP3    H147711   5.586   0.931   4.858  0.7161  0.6598 -0.9650
 8740TIP3    H247712   5.676   1.051   4.842  0.2517  1.5973  2.6004
 8741TIP3   OH247713   6.210   2.166  15.761 -0.7705  0.0877  0.2124
 8741TIP3    H147714   6.174   2.166  15.672 -1.2285 -0.7506  0.3855
 8741TIP3    H247715   6.147   2.116  15.812  0.2169 -0.6709  0.7159
 8742TIP3   OH247716   1.453   2.024  12.888  0.1634  0.4582 -0.0444
 8742TIP3    H147717   1.396   1.947  12.895 -0.9987  1.3705  0.7787
 8742TIP3    H247718   1.393   2.097  12.874  0.9211  1.7558  2.7903
 8743TIP3   OH247719   4.685   0.641  14.976  0.5084 -0.3438 -0.0041
 8743TIP3    H147720   4.637   0.561  14.952  1.2433 -0.9623  0.5059
 8743TIP3    H247721   4.649   0.666  15.060  1.0111 -0.7679  0.3455
 8744TIP3   OH247722   6.274   5.317  16.122 -0.1332 -0.0899 -1.0427
 8744TIP3    H147723   6.191   5.359  16.143  1.0769  2.2919 -0.6874
 8744TIP3    H247724   6.311   5.292  16.206 -0.6667 -1.6026 -1.2297
 8745TIP3   OH247725   1.691   2.934  16.592  0.0311 -0.2207  0.1381
 8745TIP3    H147726   1.693   2.859  16.532 -2.8802 -0.7961  0.5749
 8745TIP3    H247727   1.674   3.009  16.535 -1.1052 -0.5260  0.0480
 8746TIP3   OH247728   3.258   1.775  16.941 -0.1501  0.1524  0.5833
 8746TIP3    H147729   3.203   1.757  16.865 -0.7168 -0.1464  1.0553
 8746TIP3    H247730   3.205   1.748  17.016  0.8975 -0.7863  1.0129
 8747TIP3   OH247731   0.642   1.507   4.934  0.1757 -0.0052  0.0507
 8747TIP3    H147732   0.634   1.471   4.846  0.8260 -2.2999  0.8501
 8747TIP3    H247733   0.594   1.445   4.989  2.7932 -0.6673  1.7559
 8748TIP3   OH247734   4.731   6.155   6.066  0.2815 -0.0504  0.6277
 8748TIP3    H147735   4.695   6.152   6.154  0.7596  0.3151  0.8409
 8748TIP3    H247736   4.818   6.194   6.077  1.7242 -2.9530  0.4646
 8749TIP3   OH247737   6.002   0.666   5.069  0.3623 -0.3679  0.0111
 8749TIP3    H147738   5.933   0.727   5.041  0.4702  0.1370  0.8057
 8749TIP3    H247739   5.965   0.579   5.055 -0.4613 -0.1001  0.4554
 8750TIP3   OH247740   0.136   5.061  12.015  1.0848 -0.3357 -0.1971
 8750TIP3    H147741   0.211   5.043  12.071 -0.2038  0.1197  1.7708
 8750TIP3    H247742   0.166   5.129  11.955  1.8839  0.7499  1.3842
 8751TIP3   OH247743   2.955   0.514   2.901  0.5584 -0.0067  0.2331
 8751TIP3    H147744   3.023   0.466   2.949 -0.9401 -0.8805  1.5882
 8751TIP3    H247745   2.988   0.518   2.811  0.8385 -3.6176  0.0266
 8752TIP3   OH247746   0.488   6.076   3.277  0.3770 -0.2312 -0.0894
 8752TIP3    H147747   0.526   6.036   3.355  1.1170 -0.6444 -0.6483
 8752TIP3    H247748   0.395   6.083   3.296  0.7133  0.8206  1.3200
 8753TIP3   OH247749   3.571   3.466  15.925 -0.0088 -0.1288 -0.4067
 8753TIP3    H147750   3.587   3.409  16.000  1.8665 -0.4705 -1.0174
 8753TIP3    H247751   3.563   3.407  15.850  1.2806  0.3281 -0.9419
 8754TIP3   OH247752   3.496   3.780  12.763 -0.0682  0.0139  0.5143
 8754TIP3    H147753   3.486   3.817  12.676 -0.6465 -0.9420  0.1550
 8754TIP3    H247754   3.407   3.769  12.796  0.0549 -1.2340  0.5052
 8755TIP3   OH247755   0.827   3.337  10.639 -0.3620 -0.1064 -0.6262
 8755TIP3    H147756   0.916   3.364  10.615 -0.4752 -0.6551 -1.7110
 8755TIP3    H247757   0.785   3.418  10.670  0.6483  0.0671  0.3486
 8756TIP3   OH247758   4.951   2.440  13.767 -0.2994 -0.2984 -0.2612
 8756TIP3    H147759   5.032   2.407  13.727 -1.3407 -2.7166 -0.5706
 8756TIP3    H247760   4.981   2.499  13.836  1.6798  0.0175 -1.3183
 8757TIP3   OH247761   6.075   3.940   4.769 -0.2750 -0.0965 -0.3082
 8757TIP3    H147762   6.161   3.949   4.811 -0.5854 -2.1954  0.9173
 8757TIP3    H247763   6.027   4.018   4.795  1.0838  0.8948 -0.6390
 8758TIP3   OH247764   6.505   3.508  14.348  0.2712  0.1184  0.0477
 8758TIP3    H147765   6.474   3.574  14.411 -1.1791 -1.9190  1.6394
 8758TIP3    H247766   6.559   3.449  14.400 -0.0442 -0.9992 -0.8457
 8759TIP3   OH247767   3.488   1.823   3.420 -1.3524  0.1883  0.5769
 8759TIP3    H147768   3.424   1.753   3.407 -1.0149 -0.7187  3.1377
 8759TIP3    H247769   3.561   1.780   3.464  1.8238  0.8386 -3.5090
 8760TIP3   OH247770   3.662   3.384   4.825 -0.4073  0.5317 -0.3405
 8760TIP3    H147771   3.693   3.294   4.812  0.1292  0.6657  0.0169
 8760TIP3    H247772   3.602   3.378   4.899  1.4984  0.8612  1.3177
 8761TIP3   OH247773   4.453   4.137   2.646  0.1702 -0.2264  0.1568
 8761TIP3    H147774   4.414   4.213   2.689 -0.5470 -1.0612  1.0166
 8761TIP3    H247775   4.406   4.131   2.562 -0.0132  0.0791  0.2361
 8762TIP3   OH247776   5.376   5.473  16.407  0.0225  0.2259 -0.1095
 8762TIP3    H147777   5.365   5.565  16.433 -1.5212  0.3222 -1.0076
 8762TIP3    H247778   5.377   5.425  16.490  0.1686  0.9848  0.3415
 8763TIP3   OH247779   1.567   5.189   3.486 -0.4701  0.0079 -0.7873
 8763TIP3    H147780   1.618   5.158   3.560 -1.1183  0.6348 -0.0516
 8763TIP3    H247781   1.573   5.119   3.421  0.0664 -0.5785 -0.1217
 8764TIP3   OH247782   1.239   5.334  11.783 -0.3176 -0.3778 -0.1728
 8764TIP3    H147783   1.274   5.260  11.833 -0.0808  0.7327  1.3701
 8764TIP3    H247784   1.316   5.384  11.756 -0.5378  0.0117 -0.0797
 8765TIP3   OH247785   5.737   5.594  17.028  0.5219 -0.2708 -0.4888
 8765TIP3    H147786   5.805   5.527  17.012  0.2597 -1.0853  1.5190
 8765TIP3    H247787   5.694   5.565  17.108 -0.5731  1.5761 -0.3687
 8766TIP3   OH247788   3.813   3.212  12.361 -0.5440 -0.2535  0.4507
 8766TIP3    H147789   3.783   3.174  12.279 -0.2474  1.8221 -0.6802
 8766TIP3    H247790   3.907   3.193  12.363 -0.7700 -1.4010  0.9662
 8767TIP3   OH247791   3.069   5.050  11.246 -0.5761 -0.4622 -0.2651
 8767TIP3    H147792   3.090   5.001  11.166 -0.2125  0.7621 -0.9501
 8767TIP3    H247793   3.059   5.140  11.216 -1.6399 -0.1773  0.8958
 8768TIP3   OH247794   2.893   5.133   0.344 -0.0058  0.2818  0.1935
 8768TIP3    H147795   2.902   5.181   0.427  0.1427 -0.7046  0.7681
 8768TIP3    H247796   2.981   5.131   0.308 -0.2119  1.4249 -0.4155
 8769TIP3   OH247797   2.082   2.915  13.136 -0.1908  0.2979  1.1544
 8769TIP3    H147798   2.007   2.936  13.191 -0.7923 -0.2704  0.5857
 8769TIP3    H247799   2.084   2.819  13.133  0.1603  0.3122  0.6421
 8770TIP3   OH247800   0.710   3.059  13.035  0.4557  0.4438 -0.2561
 8770TIP3    H147801   0.654   3.055  13.112 -0.0873  0.4281 -0.6480
 8770TIP3    H247802   0.798   3.039  13.068  0.0955 -0.3994  0.2228
 8771TIP3   OH247803   3.071   2.018  10.972  0.4066 -0.4103  0.0187
 8771TIP3    H147804   3.091   2.007  10.879  0.3778 -0.5607  0.0300
 8771TIP3    H247805   3.046   1.930  11.001  0.9603 -0.4764  0.2986
 8772TIP3   OH247806   4.607   5.999   2.441 -0.5899  0.7331 -0.3766
 8772TIP3    H147807   4.522   6.009   2.399 -0.6234 -0.1217 -0.5172
 8772TIP3    H247808   4.649   5.927   2.395  0.4490  1.4985 -0.6834
 8773TIP3   OH247809   3.338   6.417  13.729  0.4864  0.5610  0.0191
 8773TIP3    H147810   3.251   6.406  13.766  1.0781 -2.3558  0.7702
 8773TIP3    H247811   3.329   6.391  13.637  0.4281  0.9749 -0.0946
 8774TIP3   OH247812   3.569   4.467  15.187 -0.5487  0.4815  0.2469
 8774TIP3    H147813   3.662   4.485  15.173 -0.6904  0.1619 -1.3776
 8774TIP3    H247814   3.536   4.545  15.231  0.3629  0.9006  0.2132
 8775TIP3   OH247815   6.559   0.722   4.854  0.1356  0.1752  0.5104
 8775TIP3    H147816   6.543   0.630   4.834  0.4367  0.1837  0.2137
 8775TIP3    H247817   6.523   0.734   4.942 -2.9128  0.6030 -0.6775
 8776TIP3   OH247818   5.776   0.239  14.623  0.2774 -0.2463 -0.3854
 8776TIP3    H147819   5.860   0.203  14.650  0.6132  1.0503  0.4076
 8776TIP3    H247820   5.783   0.333  14.640 -1.7810 -0.2633  0.9942
 8777TIP3   OH247821   6.095   3.798  14.934 -0.0418 -0.1143  0.2386
 8777TIP3    H147822   6.190   3.804  14.942 -0.1228 -0.6873  1.9115
 8777TIP3    H247823   6.065   3.888  14.946  0.1994 -0.1885  1.5480
 8778TIP3   OH247824   2.807   2.565   4.787  0.1378  0.1456  0.1937
 8778TIP3    H147825   2.748   2.506   4.834  0.4968 -0.7066 -0.4140
 8778TIP3    H247826   2.750   2.638   4.760 -0.2250  0.2918  1.2828
 8779TIP3   OH247827   1.319   4.091   3.936 -0.1163  0.1060  0.4498
 8779TIP3    H147828   1.328   3.999   3.910 -0.1481 -0.1280  1.2359
 8779TIP3    H247829   1.347   4.141   3.859  3.1935 -0.5680  1.0756
 8780TIP3   OH247830   6.457   4.141   1.716  0.0644 -0.1531  0.8813
 8780TIP3    H147831   6.516   4.192   1.772  0.8856  0.7961 -0.7454
 8780TIP3    H247832   6.506   4.061   1.697  0.9028  0.6213 -0.4440
 8781TIP3   OH247833   5.014   3.732  16.382 -0.7765  0.2706 -0.4331
 8781TIP3    H147834   5.055   3.813  16.412  0.7516 -0.4190 -0.5557
 8781TIP3    H247835   4.920   3.750  16.384 -0.4511  2.3524 -1.3466
 8782TIP3   OH247836   6.546   1.271   4.634  0.1545 -0.4850 -0.3282
 8782TIP3    H147837   6.461   1.315   4.633 -0.0051 -0.6581  1.6966
 8782TIP3    H247838   6.603   1.329   4.584 -0.8910  0.1814 -0.7923
 8783TIP3   OH247839   4.578   1.119  15.469  0.4713 -0.2404 -0.1520
 8783TIP3    H147840   4.561   1.177  15.544 -0.8346 -1.1631  0.3029
 8783TIP3    H247841   4.491   1.092  15.439  1.0271 -1.3384 -0.8536
 8784TIP3   OH247842   1.924   6.121  10.887  0.1627 -0.2061 -0.3606
 8784TIP3    H147843   1.847   6.066  10.874  0.5471 -0.4625 -1.7779
 8784TIP3    H247844   1.928   6.176  10.809 -0.3667  2.0986  1.1441
 8785TIP3   OH247845   6.691   2.013   0.431  0.8561  0.2534  0.2997
 8785TIP3    H147846   6.716   2.034   0.521  0.6943  1.8960 -0.0095
 8785TIP3    H247847   6.595   2.019   0.431  0.8340 -0.0733  0.0791
 8786TIP3   OH247848   2.602   3.515   0.721 -0.0655 -0.5837  0.2134
 8786TIP3    H147849   2.519   3.480   0.753 -0.5205  0.1427 -0.1413
 8786TIP3    H247850   2.581   3.604   0.691  1.0706  0.0525  1.2042
 8787TIP3   OH247851   6.705   0.019  15.716  0.9165  0.7548  0.2797
 8787TIP3    H147852   6.675   0.024  15.807  2.7780  1.5898  0.8900
 8787TIP3    H247853   6.773   0.086  15.710  0.6283  0.9197 -1.8290
 8788TIP3   OH247854   2.995   0.779  12.871  0.0319 -0.4996 -0.3121
 8788TIP3    H147855   3.076   0.758  12.918 -0.5990 -1.0785  0.5414
 8788TIP3    H247856   3.008   0.869  12.841 -0.0831  0.4353  2.1861
 8789TIP3   OH247857   0.023   3.634   4.276 -0.8704 -0.3359  0.3304
 8789TIP3    H147858   0.098   3.578   4.258 -0.6536  0.3261 -0.9668
 8789TIP3    H247859  -0.008   3.607   4.363  0.6438 -0.8569  0.7335
 8790TIP3   OH247860   4.423   6.583   3.863  0.5164 -0.2335  0.5507
 8790TIP3    H147861   4.377   6.604   3.944  0.2395  0.6941  0.1672
 8790TIP3    H247862   4.368   6.620   3.794  0.4480 -1.5115 -0.1119
 8791TIP3   OH247863   4.077   4.769  14.430  0.5054  0.6247 -0.4878
 8791TIP3    H147864   4.147   4.829  14.406 -1.2907  3.1382  0.1975
 8791TIP3    H247865   4.023   4.761  14.351  1.5616 -1.4869 -1.0884
 8792TIP3   OH247866   0.132   0.382   1.673 -0.7949  0.0917  0.4744
 8792TIP3    H147867   0.170   0.447   1.614 -0.1260 -2.2061 -1.8187
 8792TIP3    H247868   0.087   0.434   1.740  1.3682  2.8806 -0.0468
 8793TIP3   OH247869   1.986   1.043  16.222  0.3853 -0.0061 -0.5073
 8793TIP3    H147870   2.080   1.047  16.241  0.4603 -1.7930 -0.3190
 8793TIP3    H247871   1.956   1.134  16.231  1.7277  0.3231  1.3626
 8794TIP3   OH247872   5.271   3.539   4.838 -0.4867 -0.1976 -0.2909
 8794TIP3    H147873   5.202   3.483   4.872 -0.8006 -0.0938 -0.7479
 8794TIP3    H247874   5.327   3.557   4.914 -2.3483  1.7958  0.7088
 8795TIP3   OH247875   3.648   5.358  11.774  0.6358 -0.2201  0.5147
 8795TIP3    H147876   3.689   5.435  11.812 -0.7422  0.8257 -0.0266
 8795TIP3    H247877   3.720   5.305  11.742  1.5689  1.3152  0.0015
 8796TIP3   OH247878   4.096   6.544  14.144 -0.4385 -0.0013  0.5629
 8796TIP3    H147879   4.184   6.580  14.144 -0.9877  1.5348  2.4813
 8796TIP3    H247880   4.040   6.617  14.120 -1.1460 -1.3968 -2.5059
 8797TIP3   OH247881   0.453   1.549   0.884 -0.1401  0.1432  0.2633
 8797TIP3    H147882   0.544   1.543   0.856 -0.8023  1.2014 -2.4077
 8797TIP3    H247883   0.426   1.458   0.900  0.9332 -0.3039 -0.4306
 8798TIP3   OH247884   6.606   3.567  15.034  0.5360 -0.5134  0.6888
 8798TIP3    H147885   6.624   3.501  15.101  1.8991 -0.5045  0.3738
 8798TIP3    H247886   6.582   3.517  14.956 -0.2878 -0.5553  0.9665
 8799TIP3   OH247887   6.602   6.064  14.951 -0.2483  0.1648 -0.6114
 8799TIP3    H147888   6.605   6.116  14.871 -1.0660 -0.2743 -0.9322
 8799TIP3    H247889   6.693   6.064  14.983  0.2916 -0.5150 -2.0840
 8800TIP3   OH247890   3.917   5.805   0.493  0.1699  0.3645 -0.1172
 8800TIP3    H147891   3.888   5.791   0.583  0.1426  1.5480  0.0737
 8800TIP3    H247892   3.837   5.832   0.447 -0.2172 -1.9912 -0.9434
 8801TIP3   OH247893   2.067   3.820  11.889 -0.0051  0.1834 -0.6903
 8801TIP3    H147894   2.111   3.904  11.880  0.7307 -0.2104 -0.8953
 8801TIP3    H247895   2.137   3.759  11.912 -0.5243 -0.3765 -0.5676
 8802TIP3   OH247896   4.172   5.085  11.599 -0.4298 -0.3117  0.1688
 8802TIP3    H147897   4.234   5.018  11.570 -0.5169 -0.8137  1.1108
 8802TIP3    H247898   4.225   5.164  11.610 -0.2830 -0.2807 -0.7179
 8803TIP3   OH247899   0.461   4.302   1.843  1.2815  0.1233  0.0661
 8803TIP3    H147900   0.503   4.388   1.840  1.8323 -0.1511 -2.0906
 8803TIP3    H247901   0.518   4.250   1.899 -0.3076  1.6726  3.4026
 8804TIP3   OH247902   3.658   6.122  12.425 -0.1645 -0.5166 -0.0626
 8804TIP3    H147903   3.696   6.165  12.501 -1.2234 -0.9786  0.7404
 8804TIP3    H247904   3.567   6.108  12.447 -0.3055 -1.4064 -1.0937
 8805TIP3   OH247905   4.291   0.322   2.675  0.3729 -0.0109  0.3260
 8805TIP3    H147906   4.251   0.367   2.601  2.9918  1.2045 -0.4341
 8805TIP3    H247907   4.309   0.234   2.642  0.3664  0.1236 -0.0439
 8806TIP3   OH247908   2.737   0.821  11.221 -0.1900 -0.6815  0.1211
 8806TIP3    H147909   2.772   0.881  11.288 -0.0148 -0.9826  0.2990
 8806TIP3    H247910   2.750   0.868  11.138 -1.9139  0.4386  0.4206
 8807TIP3   OH247911   4.422   5.305   0.240  0.4419  0.1071  0.2109
 8807TIP3    H147912   4.463   5.385   0.275 -1.4911  1.0032  0.5790
 8807TIP3    H247913   4.495   5.247   0.220  1.8612  1.5764  0.9156
 8808TIP3   OH247914   0.752   4.839  11.687  0.2158 -0.1095  0.4876
 8808TIP3    H147915   0.842   4.864  11.708  0.0183  0.7152  0.3691
 8808TIP3    H247916   0.753   4.743  11.688  0.9795 -0.1012  0.9670
 8809TIP3   OH247917   6.202   5.805  15.279  0.0174 -0.7188 -0.2252
 8809TIP3    H147918   6.225   5.747  15.352  0.2980 -0.2966  0.0300
 8809TIP3    H247919   6.108   5.818  15.287  0.0783 -0.5155  0.1867
 8810TIP3   OH247920   6.720   1.828   0.015  0.1136 -0.3662 -0.3164
 8810TIP3    H147921   6.675   1.905   0.049  0.1475  0.2731 -1.6386
 8810TIP3    H247922   6.792   1.864  -0.037  1.1955 -1.3345  0.4646
 8811TIP3   OH247923   2.406   1.825   2.714  0.3584  0.0844  0.2787
 8811TIP3    H147924   2.321   1.797   2.748  0.0705 -0.8014 -1.1287
 8811TIP3    H247925   2.465   1.752   2.733  0.2959 -0.2262 -0.7087
 8812TIP3   OH247926   6.446   4.250  14.662 -0.1866  0.2877 -0.4593
 8812TIP3    H147927   6.440   4.324  14.722 -0.4859  1.7798 -2.2526
 8812TIP3    H247928   6.530   4.208  14.685 -0.1812  0.9473  0.8149
 8813TIP3   OH247929   6.536   1.283  10.789 -0.4088  0.2009 -0.0554
 8813TIP3    H147930   6.589   1.349  10.834 -0.9311  0.6928 -0.1706
 8813TIP3    H247931   6.518   1.218  10.857  2.9108 -1.6115 -0.6704
 8814TIP3   OH247932   1.788   2.108  16.221 -0.3131  0.2603  0.1670
 8814TIP3    H147933   1.728   2.034  16.211 -0.1584 -0.1583  1.9904
 8814TIP3    H247934   1.792   2.147  16.133 -0.8878 -1.4876 -0.6910
 8815TIP3   OH247935   6.603   0.107   0.771 -0.1334 -0.4266  0.3092
 8815TIP3    H147936   6.692   0.117   0.806  0.3497 -1.3260 -0.5747
 8815TIP3    H247937   6.593   0.180   0.710  0.5065 -1.0337 -0.5453
 8816TIP3   OH247938   0.572   0.954  12.150  0.2884 -0.0311  0.0760
 8816TIP3    H147939   0.519   1.023  12.110  0.3455 -0.0485 -0.0307
 8816TIP3    H247940   0.624   1.000  12.216  0.5434  0.0761 -0.2000
 8817TIP3   OH247941   1.336   5.437   1.964  0.2345 -0.1777  0.1629
 8817TIP3    H147942   1.395   5.372   1.925 -0.6956 -0.1371 -1.4043
 8817TIP3    H247943   1.389   5.516   1.973  0.5941 -0.3159 -0.6643
 8818TIP3   OH247944   2.113   3.249   0.982 -0.9547  0.1818 -0.6194
 8818TIP3    H147945   2.048   3.221   1.047 -1.0285  1.7881  0.0448
 8818TIP3    H247946   2.103   3.344   0.978  1.8054  0.5733  0.0090
 8819TIP3   OH247947   0.725   0.987   5.548 -0.6458 -0.1995  0.0618
 8819TIP3    H147948   0.642   0.939   5.540 -0.1474 -0.9433 -0.8435
 8819TIP3    H247949   0.772   0.942   5.619  0.6994 -2.4940 -2.1090
 8820TIP3   OH247950   5.879   4.733   5.535  0.3419  0.3656  0.3234
 8820TIP3    H147951   5.920   4.668   5.592  1.7308  0.3862 -0.6196
 8820TIP3    H247952   5.792   4.697   5.516  0.5568 -0.5137  0.9696
 8821TIP3   OH247953   0.939   2.665  15.747  0.2430  0.3292  0.0455
 8821TIP3    H147954   0.927   2.757  15.723 -0.1572  0.3929  0.4691
 8821TIP3    H247955   0.984   2.668  15.831  0.1822  0.1396  0.0851
 8822TIP3   OH247956   6.694   2.757  10.598  0.2613 -0.0855  0.2888
 8822TIP3    H147957   6.601   2.756  10.622  0.1152  0.3904 -0.2491
 8822TIP3    H247958   6.725   2.843  10.624  0.9638 -0.7812  1.9317
 8823TIP3   OH247959   1.915   3.028   5.326  0.0214 -0.5982  0.6256
 8823TIP3    H147960   1.866   3.051   5.248 -0.3595 -0.5230  0.8865
 8823TIP3    H247961   1.976   2.960   5.297  1.3581  0.8814 -0.2215
 8824TIP3   OH247962   2.907   0.069   5.952  0.3279 -0.2179  0.3098
 8824TIP3    H147963   2.937   0.153   5.988 -0.8611  1.7392 -2.8324
 8824TIP3    H247964   2.819   0.057   5.990  0.7915 -0.4890  1.3417
 8825TIP3   OH247965   4.662   4.471   2.614 -0.1581 -0.2434  0.2639
 8825TIP3    H147966   4.700   4.407   2.554  0.6094 -1.1785  1.6923
 8825TIP3    H247967   4.733   4.534   2.629 -0.0286 -0.5294  0.8884
 8826TIP3   OH247968   0.551   3.680  12.999  0.8510 -0.6219 -0.0686
 8826TIP3    H147969   0.520   3.634  13.076  0.1908 -3.1912 -1.7365
 8826TIP3    H247970   0.646   3.671  13.002  0.9181  0.2592  0.9581
 8827TIP3   OH247971   5.386   6.117   6.727  0.1444 -0.5250  0.6462
 8827TIP3    H147972   5.303   6.125   6.681 -1.2291  3.1097  3.3316
 8827TIP3    H247973   5.452   6.116   6.658 -1.9040  1.3471 -1.4834
 8828TIP3   OH247974   5.991   0.146   5.395 -0.0995 -0.2653  0.6152
 8828TIP3    H147975   5.921   0.155   5.460 -0.5079  0.4969  0.0945
 8828TIP3    H247976   6.060   0.204   5.426 -0.0898 -0.2823  0.6252
 8829TIP3   OH247977   2.410   3.160  15.221 -0.2265  0.2653  0.1569
 8829TIP3    H147978   2.408   3.184  15.128 -2.2034 -0.1783  0.0343
 8829TIP3    H247979   2.432   3.067  15.222 -0.2659  0.2557  0.1315
 8830TIP3   OH247980   4.362   5.864   0.508  0.0645 -0.0669  0.0835
 8830TIP3    H147981   4.385   5.771   0.500  1.0320  0.1661  0.0625
 8830TIP3    H247982   4.406   5.906   0.434  0.1236  0.4951  0.4280
 8831TIP3   OH247983   0.693   3.290  15.377  0.6239  0.1457  0.2065
 8831TIP3    H147984   0.740   3.348  15.318 -0.4187  1.5326  0.6599
 8831TIP3    H247985   0.609   3.334  15.391 -1.4088 -2.8356 -1.6007
 8832TIP3   OH247986   1.937   0.920  10.982 -0.3006 -0.7801 -0.3068
 8832TIP3    H147987   1.868   0.854  10.972  0.2299 -1.3548 -0.2114
 8832TIP3    H247988   1.956   0.948  10.892  0.2030 -1.5183 -0.4370
 8833TIP3   OH247989   2.770   5.959  14.059  0.7446  0.6275  0.0637
 8833TIP3    H147990   2.701   6.025  14.066  0.1628 -0.0527  0.9833
 8833TIP3    H247991   2.755   5.900  14.133 -1.0224 -2.6708 -2.6127
 8834TIP3   OH247992   0.516   1.655   4.596  0.3363 -0.3907  0.0192
 8834TIP3    H147993   0.516   1.681   4.688  1.9295 -1.6085  0.4009
 8834TIP3    H247994   0.477   1.567   4.596 -0.8046  0.0871 -0.6598
 8835TIP3   OH247995   3.694   6.051  11.568 -0.1013  0.2590 -0.2612
 8835TIP3    H147996   3.722   6.066  11.477  0.3248 -1.2259 -0.3927
 8835TIP3    H247997   3.599   6.051  11.563 -0.3285  4.4811  0.0473
 8836TIP3   OH247998   3.357   3.180  15.269  0.6152  0.8352  0.0110
 8836TIP3    H147999   3.282   3.189  15.211 -1.0019 -0.3077  1.7703
 8836TIP3    H248000   3.409   3.110  15.230 -0.7334 -0.3014  0.1576
 8837TIP3   OH248001   2.810   6.707   2.508 -0.4433  0.3199 -0.1400
 8837TIP3    H148002   2.731   6.690   2.558 -0.3124  0.0318 -0.0290
 8837TIP3    H248003   2.787   6.683   2.418 -0.9362  1.6119 -0.3778
 8838TIP3   OH248004   2.094   0.306  15.923  0.0152 -0.0683 -0.4397
 8838TIP3    H148005   2.164   0.291  15.859 -0.0048 -0.5470 -0.3556
 8838TIP3    H248006   2.029   0.357  15.876  0.5961  0.7183 -0.4084
 8839TIP3   OH248007   4.180   0.263   3.151 -0.4041  0.8588  0.2967
 8839TIP3    H148008   4.217   0.186   3.194  2.0404  1.5743 -0.3249
 8839TIP3    H248009   4.135   0.228   3.075 -1.8290 -0.1381  1.5355
 8840TIP3   OH248010   0.225   6.013  11.827 -0.0234 -0.5882  0.1340
 8840TIP3    H148011   0.240   5.974  11.740 -0.4802 -1.0177  0.2443
 8840TIP3    H248012   0.200   6.104  11.808  0.7014 -0.4381 -0.1407
 8841TIP3   OH248013   0.347   2.123  16.344  0.0516 -0.5875 -0.1205
 8841TIP3    H148014   0.366   2.107  16.251 -0.4742 -0.0305 -0.3407
 8841TIP3    H248015   0.257   2.091  16.355  0.1016 -0.6190  0.1855
 8842TIP3   OH248016   2.906   2.415  12.088  0.3501  0.1699  0.4868
 8842TIP3    H148017   2.937   2.430  11.999 -0.9781  1.3698  0.1937
 8842TIP3    H248018   2.958   2.341  12.119  0.3015 -0.7792 -1.5391
 8843TIP3   OH248019   4.675   1.708  13.332 -0.1396 -0.2227  0.2816
 8843TIP3    H148020   4.660   1.619  13.363  0.8855 -0.0910  1.2089
 8843TIP3    H248021   4.722   1.751  13.403 -2.0339  1.5661  0.5587
 8844TIP3   OH248022   0.294   0.209   4.941  0.1709 -0.3042 -0.6004
 8844TIP3    H148023   0.333   0.296   4.956  2.0106 -1.2177  0.2576
 8844TIP3    H248024   0.201   0.222   4.955  0.4609  1.4422 -0.0190
 8845TIP3   OH248025   1.659   5.711   0.514 -0.6315 -0.4035  0.0972
 8845TIP3    H148026   1.717   5.682   0.444  0.7491 -1.4334  1.6128
 8845TIP3    H248027   1.661   5.640   0.578  1.1075  1.9624  2.9239
 8846TIP3   OH248028   2.543   6.460   5.027  0.0447  0.2120 -0.0999
 8846TIP3    H148029   2.519   6.388   5.085 -0.3677  0.1578 -0.3344
 8846TIP3    H248030   2.562   6.533   5.086 -0.5197  0.2040  0.0995
 8847TIP3   OH248031   6.244   4.126  12.690  0.1401 -0.1415  0.5391
 8847TIP3    H148032   6.155   4.123  12.654  0.2385 -0.7166  0.3383
 8847TIP3    H248033   6.238   4.080  12.773 -0.1639  1.4897  1.4564
 8848TIP3   OH248034   6.442   6.693   2.430  0.4784 -0.2226  0.4714
 8848TIP3    H148035   6.533   6.702   2.458  0.8838 -1.3106 -0.4265
 8848TIP3    H248036   6.436   6.605   2.395 -0.0308  0.9061 -2.5966
 8849TIP3   OH248037   0.023   1.698   5.623  0.1449  0.5704 -0.5005
 8849TIP3    H148038  -0.004   1.721   5.534 -0.2111 -0.3504 -0.6347
 8849TIP3    H248039   0.088   1.765   5.646 -0.8784  1.7364 -0.8682
 8850TIP3   OH248040   5.234   0.485   5.294 -0.0538 -0.6050  0.2782
 8850TIP3    H148041   5.195   0.570   5.310  0.8307 -0.1785  0.2272
 8850TIP3    H248042   5.189   0.452   5.216 -0.6276 -0.3415  0.4926
 8851TIP3   OH248043   0.585   6.459  16.550  0.3654  0.2322  0.1197
 8851TIP3    H148044   0.494   6.489  16.558  0.8769  1.7124  0.6553
 8851TIP3    H248045   0.596   6.397  16.622  0.1234  0.9896  0.8240
 8852TIP3   OH248046   3.161   0.626   5.734  0.3634  0.1525  0.0609
 8852TIP3    H148047   3.135   0.681   5.807  2.3842  0.5420  0.5404
 8852TIP3    H248048   3.225   0.679   5.686  2.2250 -1.6635  0.4338
 8853TIP3   OH248049   0.503   5.106   4.393 -0.2001 -0.2389  0.1815
 8853TIP3    H148050   0.489   5.159   4.472  2.4636  1.2907 -0.2686
 8853TIP3    H248051   0.456   5.152   4.324 -1.0840 -0.6286  0.5042
 8854TIP3   OH248052   1.556   6.582  15.011 -0.5399  0.0569 -0.2721
 8854TIP3    H148053   1.609   6.503  15.021 -2.1963 -1.0283  0.2184
 8854TIP3    H248054   1.532   6.607  15.100 -0.9601  0.4683 -0.4905
 8855TIP3   OH248055   3.687   3.964  12.820 -0.1021  0.0108  0.5120
 8855TIP3    H148056   3.649   4.048  12.795  0.9078  1.2161  2.7083
 8855TIP3    H248057   3.616   3.901  12.809 -1.2558  1.3400 -0.0170
 8856TIP3   OH248058   1.097   1.742  12.614 -0.1694  0.9795  0.1460
 8856TIP3    H148059   1.109   1.647  12.615  0.2059  0.9508 -2.0246
 8856TIP3    H248060   1.151   1.773  12.541 -0.5946  2.8311  0.5434
 8857TIP3   OH248061   1.567   6.443   0.983 -0.2827  0.3491  0.3283
 8857TIP3    H148062   1.661   6.440   0.966 -0.0682  2.5313  0.7899
 8857TIP3    H248063   1.544   6.353   1.007  1.0857 -0.8855 -2.4963
 8858TIP3   OH248064   6.125   5.090   3.030 -0.1448 -0.3048  0.1810
 8858TIP3    H148065   6.104   5.065   3.120 -0.3170 -2.0280 -0.2958
 8858TIP3    H248066   6.220   5.077   3.023 -0.1677 -0.4149  0.0594
 8859TIP3   OH248067   0.094   6.644  12.210 -0.2609 -0.2295 -0.0562
 8859TIP3    H148068   0.079   6.738  12.219  0.2470 -0.1583  0.0963
 8859TIP3    H248069   0.007   6.605  12.219 -0.5927  0.2723 -0.9363
 8860TIP3   OH248070   4.289   1.474  15.179 -0.0061  0.2866 -0.0694
 8860TIP3    H148071   4.297   1.567  15.157 -0.4118  0.0981 -1.0370
 8860TIP3    H248072   4.365   1.457  15.235 -0.0467  1.2479  0.3030
 8861TIP3   OH248073   4.539   2.098   4.151  0.1608  0.2652  0.3687
 8861TIP3    H148074   4.628   2.062   4.152 -0.2688 -0.9042 -0.5749
 8861TIP3    H248075   4.503   2.076   4.237  0.5111  0.0183  0.4544
 8862TIP3   OH248076   0.104   6.516   2.933  0.2335  0.3263  0.6384
 8862TIP3    H148077   0.195   6.486   2.922  0.6306  1.0421  1.7660
 8862TIP3    H248078   0.064   6.450   2.990 -0.6908 -1.2763 -1.7064
 8863TIP3   OH248079   4.222   0.045  11.668 -0.6458  0.1023 -0.6228
 8863TIP3    H148080   4.253  -0.013  11.737 -0.0564 -0.8903 -1.6873
 8863TIP3    H248081   4.136   0.075  11.697 -1.9575 -2.9953 -0.9823
 8864TIP3   OH248082   3.898   3.745   0.783  0.1510 -0.2963  0.3154
 8864TIP3    H148083   3.838   3.778   0.850 -0.7041 -2.3924  0.6725
 8864TIP3    H248084   3.848   3.749   0.702 -0.2239 -1.2975  0.4797
 8865TIP3   OH248085   5.288   5.117  15.618 -0.1107  0.1636 -0.2115
 8865TIP3    H148086   5.351   5.050  15.644 -1.6635 -1.4466 -0.4146
 8865TIP3    H248087   5.222   5.116  15.687  0.1257  1.9502  0.0970
 8866TIP3   OH248088   3.140   0.420  16.652 -0.0860  0.4620 -0.0221
 8866TIP3    H148089   3.135   0.515  16.643 -0.3065  0.3300 -1.4889
 8866TIP3    H248090   3.098   0.386  16.573  1.8947 -0.8394 -0.5859
 8867TIP3   OH248091   5.919   6.786  13.602  0.3149 -0.4503 -0.1402
 8867TIP3    H148092   5.950   6.857  13.660 -0.6923  0.8237 -1.1059
 8867TIP3    H248093   5.979   6.788  13.528  0.0484 -0.3513 -0.3517
 8868TIP3   OH248094   5.386   1.552   0.022 -0.3302  0.0909 -0.1818
 8868TIP3    H148095   5.476   1.543  -0.008 -0.2071 -1.3850  0.5387
 8868TIP3    H248096   5.341   1.476  -0.014 -1.1389  0.4548  0.0316
 8869TIP3   OH248097   0.012   2.366   5.090  0.4080 -1.3753  0.7346
 8869TIP3    H148098  -0.020   2.439   5.143  3.4217 -0.3199  1.2929
 8869TIP3    H248099  -0.065   2.336   5.042 -0.8623  2.7000 -0.1578
 8870TIP3   OH248100   3.720   4.954   2.756 -0.2070  0.0099 -0.0954
 8870TIP3    H148101   3.701   4.995   2.672  1.6689 -1.4710 -1.3173
 8870TIP3    H248102   3.788   4.890   2.737 -1.6201 -2.3375  2.0503
 8871TIP3   OH248103   5.656   3.433   6.029  0.5122 -0.2761 -0.6707
 8871TIP3    H148104   5.682   3.497   5.963  0.2267 -0.1708 -0.6842
 8871TIP3    H248105   5.566   3.458   6.053 -0.0311 -1.3510 -1.5127
 8872TIP3   OH248106   4.521   0.808  16.107  0.2660  0.0908 -0.0751
 8872TIP3    H148107   4.545   0.720  16.076  2.0119  0.5078  0.0129
 8872TIP3    H248108   4.491   0.853  16.029  4.0707  0.9408 -1.2465
 8873TIP3   OH248109   0.381   0.328  15.930  0.0703  0.0235  0.0885
 8873TIP3    H148110   0.320   0.312  16.003  1.3257  0.0718  1.1805
 8873TIP3    H248111   0.407   0.240  15.902 -0.4733  0.0029 -0.3750
 8874TIP3   OH248112   1.947   0.894  11.374 -0.0957 -0.4178  0.1552
 8874TIP3    H148113   1.893   0.851  11.308 -3.4441  1.2575  1.5639
 8874TIP3    H248114   1.941   0.837  11.451  0.4601 -0.3757  0.2357
 8875TIP3   OH248115   5.565   0.528  13.419  0.4713 -0.0138  0.4585
 8875TIP3    H148116   5.470   0.534  13.431  0.4582  0.4199  0.1641
 8875TIP3    H248117   5.593   0.463  13.483  0.0593  0.3537  1.0246
 8876TIP3   OH248118   6.225   1.266  16.580  0.4580  0.2059 -0.5711
 8876TIP3    H148119   6.141   1.230  16.552  1.1306 -1.3980 -0.6418
 8876TIP3    H248120   6.206   1.356  16.604 -0.6144  1.0757 -4.1085
 8877TIP3   OH248121   5.519   0.582  13.783  0.1814 -0.6105  0.3990
 8877TIP3    H148122   5.540   0.672  13.759 -0.1858 -0.9298 -1.2471
 8877TIP3    H248123   5.484   0.588  13.872  1.3102  0.6974  0.7773
 8878TIP3   OH248124   5.596   4.709   5.702 -0.3235 -0.4675  0.4183
 8878TIP3    H148125   5.510   4.750   5.712 -0.1507 -0.0060  0.0843
 8878TIP3    H248126   5.657   4.783   5.699  0.0755 -0.7883  0.5639
 8879TIP3   OH248127   4.158   4.119  11.344 -0.3161  0.6285  0.2717
 8879TIP3    H148128   4.250   4.147  11.338 -0.6223  1.3855 -1.4668
 8879TIP3    H248129   4.155   4.038  11.294 -0.3943 -0.0255  1.3030
 8880TIP3   OH248130   0.729   3.836  13.484  0.2013  0.0888  0.0371
 8880TIP3    H148131   0.645   3.846  13.529  0.4082  0.5119  0.3324
 8880TIP3    H248132   0.773   3.766  13.532 -0.0730 -0.2949 -0.2619
 8881TIP3   OH248133   2.374   5.414  13.739 -0.2828  0.1149 -0.1165
 8881TIP3    H148134   2.352   5.506  13.754 -1.8093 -0.0495 -1.1229
 8881TIP3    H248135   2.399   5.381  13.826  1.2678  1.6935  0.0755
 8882TIP3   OH248136   1.190   3.865  16.150  0.4420 -1.2968 -0.0127
 8882TIP3    H148137   1.146   3.820  16.222  0.7759  0.8015  1.6011
 8882TIP3    H248138   1.119   3.907  16.102  0.3967 -0.2852  0.8872
 8883TIP3   OH248139   0.046   4.546   4.063 -0.0767  0.2090  0.1020
 8883TIP3    H148140   0.125   4.593   4.089  0.0880 -0.4959  0.9333
 8883TIP3    H248141  -0.021   4.573   4.125  0.0041 -0.5857  0.5479
 8884TIP3   OH248142   1.246   5.099   4.202  0.0739  0.3669 -0.2760
 8884TIP3    H148143   1.259   5.109   4.296 -0.0719 -2.5004  0.1365
 8884TIP3    H248144   1.326   5.135   4.163  0.9554 -0.0543  1.0595
 8885TIP3   OH248145   6.700   0.163   3.372 -0.4053  0.1072  0.3525
 8885TIP3    H148146   6.616   0.118   3.362  0.1898 -1.2624  1.3431
 8885TIP3    H248147   6.730   0.140   3.460  1.7077 -0.6485 -0.5027
 8886TIP3   OH248148   1.507   4.614   2.667 -0.0064 -0.5269 -0.2022
 8886TIP3    H148149   1.452   4.547   2.706  0.9338 -1.2638 -0.1019
 8886TIP3    H248150   1.448   4.666   2.613 -0.9721 -0.6754  0.6882
 8887TIP3   OH248151   0.827   0.105  12.562  0.5036  0.0332  0.1222
 8887TIP3    H148152   0.905   0.127  12.613  0.0513  1.4658  0.2619
 8887TIP3    H248153   0.835   0.158  12.482  1.2652 -2.2755 -1.4363
 8888TIP3   OH248154   4.557   5.587  16.729 -0.3443  0.7321  0.5632
 8888TIP3    H148155   4.543   5.579  16.823 -0.3520 -0.4861  0.4834
 8888TIP3    H248156   4.633   5.644  16.721 -0.6740  1.2873  1.2846
 8889TIP3   OH248157   1.207   0.114  11.403  0.3698 -0.1562 -0.0338
 8889TIP3    H148158   1.263   0.188  11.380  1.0987 -0.0128  1.9945
 8889TIP3    H248159   1.170   0.138  11.489 -1.9761 -0.7328 -0.8038
 8890TIP3   OH248160   0.612   2.042  14.314 -0.3910  0.6269  0.0414
 8890TIP3    H148161   0.615   2.136  14.330 -0.2133  0.5444  0.5197
 8890TIP3    H248162   0.703   2.019  14.294 -0.5683  0.6851 -0.8506
 8891TIP3   OH248163   0.157   1.172   6.013 -0.2092  0.2335 -0.5468
 8891TIP3    H148164   0.088   1.131   5.960  0.5006 -0.2112 -1.1518
 8891TIP3    H248165   0.198   1.099   6.060 -0.7561  0.6074  0.5541
 8892TIP3   OH248166   2.045   1.938  15.899  0.0484 -0.8045 -0.0099
 8892TIP3    H148167   2.051   1.933  15.995  0.5751  0.5123  0.0504
 8892TIP3    H248168   2.124   1.896  15.867 -1.0786 -3.1308  0.0154
 8893TIP3   OH248169   4.669   1.667   1.991 -0.3505 -0.5273 -0.5928
 8893TIP3    H148170   4.723   1.695   2.064 -0.4801  0.0258 -0.7033
 8893TIP3    H248171   4.652   1.575   2.007  0.3582 -0.6259 -0.3900
 8894TIP3   OH248172   1.090   0.490   4.572 -0.3502  0.3410  0.4435
 8894TIP3    H148173   1.033   0.414   4.565  1.7736 -1.3318  0.1715
 8894TIP3    H248174   1.166   0.458   4.621  1.2485  1.8770 -0.8878
 8895TIP3   OH248175   5.103   0.315  16.532 -0.3669  0.5491 -0.6024
 8895TIP3    H148176   5.071   0.226  16.519 -0.0627  0.2511  0.5909
 8895TIP3    H248177   5.057   0.346  16.610  1.4268  0.4956  0.5154
 8896TIP3   OH248178   2.442   0.089  16.729  0.5659 -0.8941  0.1064
 8896TIP3    H148179   2.453   0.114  16.821  0.5193  0.0695 -0.1412
 8896TIP3    H248180   2.412   0.169  16.686 -0.8988 -1.7013 -0.4703
 8897TIP3   OH248181   3.652   4.139  13.375 -0.2431  0.4662  0.6484
 8897TIP3    H148182   3.725   4.149  13.314 -0.1615  0.1780  0.6981
 8897TIP3    H248183   3.660   4.050  13.408 -0.7320  0.3626  0.5017
 8898TIP3   OH248184   0.940   4.867   2.546 -0.7105  0.2226  0.1727
 8898TIP3    H148185   0.854   4.865   2.589 -0.7450  1.4460  0.1853
 8898TIP3    H248186   0.931   4.933   2.477  0.9262  2.2126  1.7435
 8899TIP3   OH248187   1.854   5.764   5.275 -0.1807 -0.2211  0.2130
 8899TIP3    H148188   1.866   5.695   5.210 -1.7763  0.0078 -0.3714
 8899TIP3    H248189   1.889   5.843   5.234 -1.8287  0.0734 -0.7156
 8900TIP3   OH248190   4.029   1.281   1.816  0.0301  0.1167  0.0520
 8900TIP3    H148191   3.978   1.242   1.745  1.2197  1.7757 -1.8422
 8900TIP3    H248192   4.116   1.244   1.806  0.4644  1.1400 -0.0057
 8901TIP3   OH248193   6.569   5.159  13.619 -0.1846  0.1570 -0.4587
 8901TIP3    H148194   6.494   5.100  13.620 -0.0273 -0.0448 -0.4223
 8901TIP3    H248195   6.612   5.145  13.703 -0.9795  1.4111  0.1758
 8902TIP3   OH248196   5.638   4.514  15.030 -0.1412 -0.0870 -0.0781
 8902TIP3    H148197   5.564   4.496  15.088 -0.0715  0.7534  0.2924
 8902TIP3    H248198   5.713   4.523  15.090  0.4075 -1.5559 -0.4864
 8903TIP3   OH248199   0.396   5.421   2.606 -0.1038 -0.2547  0.2998
 8903TIP3    H148200   0.328   5.467   2.656  1.1878  2.4191 -0.2012
 8903TIP3    H248201   0.367   5.330   2.604 -3.5421  0.6839  0.3157
 8904TIP3   OH248202   3.201   0.448   4.968  0.1362 -0.1654  0.8164
 8904TIP3    H148203   3.124   0.397   4.991  1.1040 -0.9644  2.4789
 8904TIP3    H248204   3.167   0.535   4.946 -1.5372 -1.3482 -1.8711
 8905TIP3   OH248205   2.130   2.435   3.286 -0.2023 -0.4560  0.7251
 8905TIP3    H148206   2.186   2.406   3.358 -0.7917 -0.8657  1.0286
 8905TIP3    H248207   2.134   2.530   3.288 -0.2118 -0.4650  1.3009
 8906TIP3   OH248208   0.172   4.632  13.233  0.1113 -0.4545  0.1749
 8906TIP3    H148209   0.155   4.557  13.177 -2.5093  0.1201  0.0792
 8906TIP3    H248210   0.195   4.595  13.318  0.5875 -1.3216 -0.3221
 8907TIP3   OH248211   6.193   4.951   1.608 -0.2072  0.1044  0.0990
 8907TIP3    H148212   6.146   5.026   1.644  1.1191 -0.0372  2.3346
 8907TIP3    H248213   6.162   4.876   1.658 -0.0706 -0.5237 -0.7352
 8908TIP3   OH248214   5.060   3.868  14.875 -0.0811  0.0074 -0.2438
 8908TIP3    H148215   5.002   3.919  14.931 -0.0860 -0.1306 -0.1235
 8908TIP3    H248216   5.015   3.784  14.864 -1.1544  0.7712 -2.2196
 8909TIP3   OH248217   3.791   3.056   5.386 -0.0294  0.1919 -0.2589
 8909TIP3    H148218   3.856   2.993   5.356  0.7170  0.6965  0.2468
 8909TIP3    H248219   3.835   3.105   5.456 -0.2733  1.8453 -1.2016
 8910TIP3   OH248220   5.953   2.854   3.828 -0.3293  0.2126  0.1868
 8910TIP3    H148221   6.040   2.893   3.823  0.1294 -0.8060  0.0372
 8910TIP3    H248222   5.897   2.925   3.861  0.4088  1.0852 -0.3635
 8911TIP3   OH248223   2.160   1.426   1.545 -0.5801  0.2604  0.1754
 8911TIP3    H148224   2.255   1.419   1.539 -0.6437  0.7041 -2.1565
 8911TIP3    H248225   2.136   1.363   1.614  1.3523 -0.0396  0.6371
 8912TIP3   OH248226   1.231   3.011   5.009 -0.4328 -0.1891  0.0619
 8912TIP3    H148227   1.151   3.017   4.958 -0.0291 -1.0086 -0.6873
 8912TIP3    H248228   1.245   2.917   5.022  0.9056 -0.1054 -0.6213
 8913TIP3   OH248229   4.173   1.186  16.350  0.3545 -0.2440 -0.4160
 8913TIP3    H148230   4.079   1.202  16.346  0.4656  0.2322 -1.6678
 8913TIP3    H248231   4.212   1.273  16.343  0.8981 -0.5579 -1.4418
 8914TIP3   OH248232   0.982   5.889   1.620  0.2018  0.5617 -0.4839
 8914TIP3    H148233   0.933   5.863   1.698 -0.7922 -2.3199 -1.9305
 8914TIP3    H248234   1.065   5.922   1.653  0.3608 -1.8654  1.7757
 8915TIP3   OH248235   2.665   2.448  16.851 -0.0847  0.1078  0.4995
 8915TIP3    H148236   2.636   2.512  16.915  0.8866  0.1339  0.9267
 8915TIP3    H248237   2.738   2.402  16.894  1.1164  0.6653 -0.8654
 8916TIP3   OH248238   4.532   1.329  15.625  0.1202  0.0146 -0.0263
 8916TIP3    H148239   4.564   1.418  15.643 -0.7564  0.3578 -0.0828
 8916TIP3    H248240   4.506   1.295  15.710  0.9301 -0.3866  0.0641
 8917TIP3   OH248241   1.565   1.372  11.422 -0.1965 -0.3348 -0.0299
 8917TIP3    H148242   1.562   1.281  11.454  0.0024 -0.2982  0.0983
 8917TIP3    H248243   1.509   1.372  11.345 -1.4504 -0.2177  0.8410
 8918TIP3   OH248244   5.426   1.706   6.872  0.0229  0.7847  0.2317
 8918TIP3    H148245   5.454   1.618   6.846 -0.7057  0.4460  0.5702
 8918TIP3    H248246   5.478   1.765   6.816  0.9312  0.1675  0.3903
 8919TIP3   OH248247   2.570   6.683   3.854 -0.7314  0.2841  0.1182
 8919TIP3    H148248   2.474   6.688   3.857 -0.8395 -1.1732 -0.2240
 8919TIP3    H248249   2.589   6.657   3.764  0.0258  1.0251  0.0567
 8920TIP3   OH248250   1.940   0.095  12.246 -0.3470  0.0499 -0.4140
 8920TIP3    H148251   1.897   0.084  12.161 -1.1818 -2.8255  0.2762
 8920TIP3    H248252   1.873   0.069  12.310  0.8809  0.2404  0.9997
 8921TIP3   OH248253   5.171   0.345   4.692  0.5469  0.5810  0.2346
 8921TIP3    H148254   5.107   0.312   4.755  0.9238 -1.2054 -0.2525
 8921TIP3    H248255   5.122   0.403   4.635 -0.2929  0.4743  0.8376
 8922TIP3   OH248256   2.903   1.615   4.480 -0.0307 -0.2847  0.3108
 8922TIP3    H148257   2.812   1.594   4.460  0.0502  0.9966 -1.6076
 8922TIP3    H248258   2.904   1.628   4.575 -1.3239 -2.5942  0.6987
 8923TIP3   OH248259   4.440   4.187  11.386  0.4108 -0.3320 -0.1682
 8923TIP3    H148260   4.457   4.237  11.305 -0.0663  1.3752  0.7378
 8923TIP3    H248261   4.499   4.226  11.450  0.3345 -1.2572  0.4702
 8924TIP3   OH248262   4.835   0.283  17.237  0.2457 -0.4385  0.2640
 8924TIP3    H148263   4.887   0.231  17.298  0.4835 -1.0464 -0.4391
 8924TIP3    H248264   4.775   0.220  17.197 -0.1138  0.0070  0.0927
 8925TIP3   OH248265   1.909   4.581   1.657 -0.1282  0.1163 -0.9878
 8925TIP3    H148266   1.901   4.486   1.668  0.4932  0.2576  1.1565
 8925TIP3    H248267   1.999   4.601   1.682 -0.9191  1.5091  1.0223
 8926TIP3   OH248268   1.821   6.478   5.607 -0.2623 -0.0158  0.4342
 8926TIP3    H148269   1.799   6.487   5.514 -1.7691 -1.8569  0.5386
 8926TIP3    H248270   1.745   6.434   5.645  0.9275 -0.6041  2.2668
 8927TIP3   OH248271   2.328   4.807   3.123  0.1958  0.5228 -0.4712
 8927TIP3    H148272   2.314   4.826   3.030  2.1865 -0.0110 -0.9189
 8927TIP3    H248273   2.423   4.807   3.134  0.0194  0.0452  1.4633
 8928TIP3   OH248274   0.849   6.667   4.887  1.3673 -0.2333  0.1836
 8928TIP3    H148275   0.839   6.595   4.948  3.3578 -1.2467 -0.6048
 8928TIP3    H248276   0.832   6.746   4.939  0.8752 -1.1647  1.4716
 8929TIP3   OH248277   3.281   6.437   0.418 -0.0367 -0.1303  0.3398
 8929TIP3    H148278   3.187   6.420   0.412 -0.0029 -0.0888 -0.4473
 8929TIP3    H248279   3.312   6.379   0.487 -1.0070  1.4609  2.2018
 8930TIP3   OH248280   3.842   4.833  17.157  0.4593 -0.5081 -0.8547
 8930TIP3    H148281   3.855   4.925  17.182 -0.4666 -0.8928  1.1860
 8930TIP3    H248282   3.826   4.837  17.063  1.7882  1.2693 -1.0775
 8931TIP3   OH248283   6.622   4.997   1.765  0.7657 -0.2656  0.5541
 8931TIP3    H148284   6.585   5.047   1.837  2.1503  0.1198  1.0391
 8931TIP3    H248285   6.679   4.933   1.808 -0.5839 -1.9689 -0.0756
 8932TIP3   OH248286   1.082   1.986  14.922 -0.2601 -0.0766  0.0838
 8932TIP3    H148287   1.120   1.994  14.834 -0.1606  1.5556  0.2547
 8932TIP3    H248288   0.990   1.967  14.906 -0.2383  0.1865 -0.3697
 8933TIP3   OH248289   3.431   5.983   1.487 -0.3775 -0.4014  0.0393
 8933TIP3    H148290   3.368   6.043   1.446  0.4067  0.2180 -0.2840
 8933TIP3    H248291   3.431   6.008   1.579 -2.7392 -2.3179  0.6646
 8934TIP3   OH248292   2.088   1.955  14.532 -0.2739  0.0758 -0.0357
 8934TIP3    H148293   2.118   1.963  14.623  0.6865  0.9248 -0.4044
 8934TIP3    H248294   1.993   1.964  14.537 -0.1038  1.9074  0.7216
 8935TIP3   OH248295   5.360   5.267   1.846  0.5686  0.2527 -1.1319
 8935TIP3    H148296   5.352   5.240   1.754 -0.0628 -0.7908 -0.7857
 8935TIP3    H248297   5.421   5.204   1.884  1.1696  0.9431 -0.9210
 8936TIP3   OH248298   2.550   6.674  15.510 -1.1719  0.0793 -0.0725
 8936TIP3    H148299   2.603   6.595  15.515 -0.6505  0.4729  1.9220
 8936TIP3    H248300   2.494   6.663  15.433 -0.2501 -1.6579 -0.5178
 8937TIP3   OH248301   5.174   3.249  13.088 -0.0543  0.2051 -0.1767
 8937TIP3    H148302   5.159   3.303  13.011  1.2538  2.2648  0.9082
 8937TIP3    H248303   5.269   3.236  13.091 -0.1402 -0.2992  0.7761
 8938TIP3   OH248304   2.257   1.355  13.945  0.0178  0.5191  0.1348
 8938TIP3    H148305   2.322   1.385  14.009  0.1719 -0.5300  0.4890
 8938TIP3    H248306   2.188   1.314  13.998 -0.0564  0.0107 -0.3396
 8939TIP3   OH248307   0.437   4.811   1.598 -0.3036  0.0337 -0.0567
 8939TIP3    H148308   0.480   4.891   1.628 -0.3482 -0.1001  0.3680
 8939TIP3    H248309   0.433   4.755   1.675  0.5439 -0.7411 -0.5528
 8940TIP3   OH248310   3.970   5.388  16.153  0.0233  0.3247 -0.1302
 8940TIP3    H148311   3.885   5.345  16.162  0.6655 -0.9888 -0.0994
 8940TIP3    H248312   4.014   5.373  16.236  0.4890  0.5408 -0.3344
 8941TIP3   OH248313   5.962   1.586  13.850 -0.1494 -0.4636 -0.1851
 8941TIP3    H148314   5.919   1.643  13.786  2.4311  0.9994 -0.7349
 8941TIP3    H248315   5.985   1.507  13.800  0.5734  0.0753 -0.7345
 8942TIP3   OH248316   6.303   6.656  15.701 -0.3904 -0.1702  0.2429
 8942TIP3    H148317   6.349   6.730  15.662  1.5451 -0.7391  1.2603
 8942TIP3    H248318   6.326   6.582  15.645 -3.3810  0.1075 -1.5430
 8943TIP3   OH248319   3.015   6.128  13.305 -0.3655 -0.5464  0.4235
 8943TIP3    H148320   3.038   6.175  13.386  0.9492 -0.9297  0.2841
 8943TIP3    H248321   2.942   6.179  13.269  1.1414  1.5588  0.1631
 8944TIP3   OH248322   0.557   2.137  16.512 -0.4859 -0.1328  0.7932
 8944TIP3    H148323   0.508   2.140  16.430 -1.6754  0.3412  1.4933
 8944TIP3    H248324   0.642   2.100  16.488 -0.7635  0.1142 -0.6666
 8945TIP3   OH248325   4.263   2.654  14.031  0.0684  0.2234  0.7674
 8945TIP3    H148326   4.184   2.606  14.004  0.4834  0.8653 -1.7855
 8945TIP3    H248327   4.307   2.595  14.092 -1.3294 -1.0281  0.6147
 8946TIP3   OH248328   1.870   2.804   1.808 -0.1054  0.7441 -0.3978
 8946TIP3    H148329   1.855   2.766   1.894 -0.4444 -3.0018 -1.8859
 8946TIP3    H248330   1.785   2.842   1.783 -0.3024  0.8775  0.4575
 8947TIP3   OH248331   4.046   2.925   5.336 -0.2401  0.8830 -0.3980
 8947TIP3    H148332   4.089   3.008   5.316  0.0509  1.0076  0.6761
 8947TIP3    H248333   4.118   2.865   5.356 -0.4964  0.7917  0.2996
 8948TIP3   OH248334   6.363   4.567  16.071 -0.0643 -0.1966 -0.1842
 8948TIP3    H148335   6.296   4.557  16.003  0.7002 -1.6094 -0.7594
 8948TIP3    H248336   6.332   4.640  16.124 -0.8091  0.8033 -1.9019
 8949TIP3   OH248337   6.188   6.441  11.806 -0.5073  0.7610  0.9912
 8949TIP3    H148338   6.206   6.514  11.866  1.5105  1.2449 -0.0806
 8949TIP3    H248339   6.268   6.434  11.754 -0.9662 -1.7300  0.5158
 8950TIP3   OH248340   1.495   0.501   1.937 -0.3037 -0.1702  0.0243
 8950TIP3    H148341   1.560   0.500   2.007 -0.2816  0.4933  0.0174
 8950TIP3    H248342   1.421   0.452   1.974 -0.8717  1.4061  1.0977
 8951TIP3   OH248343   1.201   2.404   1.636 -0.8365  0.6889 -0.0590
 8951TIP3    H148344   1.256   2.442   1.569  0.7598 -1.1133  0.1440
 8951TIP3    H248345   1.134   2.355   1.587 -0.0613 -0.0933 -0.3603
 8952TIP3   OH248346   3.797   4.740  16.344  0.2546  0.3654  0.0312
 8952TIP3    H148347   3.816   4.684  16.419 -0.1717 -0.9642 -0.8253
 8952TIP3    H248348   3.755   4.682  16.280 -0.3682  1.7053 -0.8212
 8953TIP3   OH248349   3.343   0.115   5.317 -0.1131 -0.0553  0.1772
 8953TIP3    H148350   3.376   0.101   5.406  2.1999 -0.2721 -0.6352
 8953TIP3    H248351   3.418   0.151   5.269 -1.3239  0.1444 -1.6746
 8954TIP3   OH248352   6.217   5.283  14.646 -0.2211  0.0884 -0.8441
 8954TIP3    H148353   6.243   5.375  14.648 -2.4353  0.7856  2.0525
 8954TIP3    H248354   6.251   5.246  14.727  0.7531 -1.8002 -2.0182
 8955TIP3   OH248355   4.703   4.867  14.254  0.2780 -0.6104  0.4117
 8955TIP3    H148356   4.723   4.901  14.167  1.2404 -1.0550  0.4509
 8955TIP3    H248357   4.767   4.798  14.268  1.7194  1.0420  2.4675
 8956TIP3   OH248358   0.774   4.558  11.714 -0.5021  0.0905 -0.2628
 8956TIP3    H148359   0.852   4.577  11.766 -0.8879 -0.5851  0.5678
 8956TIP3    H248360   0.747   4.471  11.741 -0.3774 -0.5346 -2.0207
 8957TIP3   OH248361   3.497   1.629   4.757  0.0787  0.5679 -0.3505
 8957TIP3    H148362   3.570   1.674   4.715 -0.6277  2.5082  0.4078
 8957TIP3    H248363   3.421   1.653   4.705 -0.5282  1.5205  0.9174
 8958TIP3   OH248364   2.660   4.978  11.969 -0.3898  0.1155  0.0160
 8958TIP3    H148365   2.708   5.056  11.997  2.0432 -1.8596  1.7947
 8958TIP3    H248366   2.628   4.940  12.050 -1.9433 -0.5598 -0.8686
 8959TIP3   OH248367   1.608   3.272  11.380  0.0467 -0.4649 -0.4083
 8959TIP3    H148368   1.609   3.180  11.404 -0.3038  0.0448  1.6832
 8959TIP3    H248369   1.556   3.315  11.447  1.2196  1.4534 -0.6273
 8960TIP3   OH248370   6.389   2.021   0.998 -0.1460  0.3237 -0.0096
 8960TIP3    H148371   6.429   1.943   0.959 -0.5589 -0.4897  1.1269
 8960TIP3    H248372   6.460   2.084   1.005 -0.3894  1.2101 -3.6619
 8961TIP3   OH248373   5.968   4.310   0.363  0.7103 -0.2635  0.0420
 8961TIP3    H148374   5.900   4.377   0.371  0.6529 -0.2977 -0.1536
 8961TIP3    H248375   6.049   4.355   0.387  0.3470 -0.7936  2.6075
 8962TIP3   OH248376   0.132   4.393  14.147 -0.1276  0.5177  0.1495
 8962TIP3    H148377   0.182   4.469  14.175  1.3469 -0.6812  0.9471
 8962TIP3    H248378   0.164   4.321  14.202 -2.2469 -0.4768  0.1912
 8963TIP3   OH248379   2.703   4.219   3.042 -0.1490  0.1648 -0.5114
 8963TIP3    H148380   2.717   4.300   3.092  3.0570 -0.5288 -0.0912
 8963TIP3    H248381   2.726   4.242   2.952 -1.3859  0.2192 -0.8357
 8964TIP3   OH248382   1.580   6.174   2.450 -0.1487  0.8324  0.1868
 8964TIP3    H148383   1.506   6.189   2.392 -0.5229 -0.2990  0.3328
 8964TIP3    H248384   1.598   6.259   2.490 -2.6221  0.7951  1.6087
 8965TIP3   OH248385   6.654   1.529  10.944 -0.4592 -0.7649  0.5431
 8965TIP3    H148386   6.695   1.595  10.889 -0.9560  0.4746  1.6023
 8965TIP3    H248387   6.723   1.502  11.005 -0.4283 -0.7590  0.5105
 8966TIP3   OH248388   3.572   1.373   2.158 -0.3740 -0.1080  0.7008
 8966TIP3    H148389   3.577   1.435   2.085  4.3825  0.2705  1.0513
 8966TIP3    H248390   3.550   1.290   2.116  0.4046  0.4588 -0.9321
 8967TIP3   OH248391   3.286   3.604   1.278 -0.4550 -0.5775 -0.1363
 8967TIP3    H148392   3.292   3.646   1.364  0.6225 -0.4510 -0.2594
 8967TIP3    H248393   3.225   3.660   1.229  2.2271  1.9736 -0.8651
 8968TIP3   OH248394   4.906   2.259  13.026 -0.5188 -0.4712  0.6034
 8968TIP3    H148395   4.816   2.266  12.994  0.2961  0.7109 -1.6424
 8968TIP3    H248396   4.902   2.289  13.117 -2.3376 -0.1244  0.4372
 8969TIP3   OH248397   6.325   0.685   2.334  0.2959 -0.2315  0.3205
 8969TIP3    H148398   6.269   0.722   2.266  0.3090  0.4997  0.7028
 8969TIP3    H248399   6.291   0.596   2.346  0.5553 -0.5241 -0.9238
 8970TIP3   OH248400   0.846   2.004  14.802  0.2342 -0.7316 -0.0740
 8970TIP3    H148401   0.819   2.089  14.837 -0.7335 -1.7261  1.7537
 8970TIP3    H248402   0.875   2.023  14.713 -2.0820  1.1649 -0.5185
 8971TIP3   OH248403   0.489   5.350   2.311 -0.0580  0.2883  0.1336
 8971TIP3    H148404   0.472   5.312   2.397  1.6549  1.5839  1.1187
 8971TIP3    H248405   0.468   5.443   2.322  2.6292  1.0071  0.0273
 8972TIP3   OH248406   5.041   4.030   0.398  0.3777  0.2116  0.1015
 8972TIP3    H148407   5.038   3.960   0.463  0.6248 -0.0406 -0.1599
 8972TIP3    H248408   4.983   4.098   0.434 -0.2703 -0.3344  0.1069
 8973TIP3   OH248409   6.478   1.807   4.472  0.2037  0.3708 -0.2956
 8973TIP3    H148410   6.390   1.822   4.507  0.5901 -1.1449  1.5037
 8973TIP3    H248411   6.466   1.737   4.408  0.1019 -0.0035  0.1207
 8974TIP3   OH248412   1.226   4.540   4.703 -0.1173 -0.0307  0.1534
 8974TIP3    H148413   1.151   4.484   4.718  0.4407 -0.3292  2.0388
 8974TIP3    H248414   1.301   4.481   4.705  0.2347  0.3179 -1.3370
 8975TIP3   OH248415   4.436   5.955   1.446 -0.5917  0.6731  0.0450
 8975TIP3    H148416   4.497   5.909   1.505  0.5742  0.4470 -1.2733
 8975TIP3    H248417   4.366   5.892   1.430 -0.0934  0.1373 -0.0661
 8976TIP3   OH248418   4.733   1.985  14.570 -0.1064 -0.1320  0.2657
 8976TIP3    H148419   4.698   2.074  14.564 -1.4897 -0.6417  0.4685
 8976TIP3    H248420   4.683   1.945  14.641  0.0892 -1.2632 -0.2256
 8977TIP3   OH248421   4.890   2.333  16.809 -0.5049  0.1021  0.1952
 8977TIP3    H148422   4.796   2.346  16.803 -0.2836  1.3155 -0.9458
 8977TIP3    H248423   4.908   2.263  16.745 -0.4557  0.8686 -0.6436
 8978TIP3   OH248424   0.631   6.302   0.208  0.5303 -0.3497  0.5179
 8978TIP3    H148425   0.677   6.279   0.289  2.3930 -1.3736 -0.7469
 8978TIP3    H248426   0.700   6.333   0.150 -1.0158  2.1570 -0.1337
 8979TIP3   OH248427   2.052   5.036  11.237  0.7339  0.2559 -0.1201
 8979TIP3    H148428   2.068   4.953  11.192  1.8397  1.1098 -1.4004
 8979TIP3    H248429   2.046   5.013  11.330  2.9789 -1.0277 -0.2342
 8980TIP3   OH248430   2.325   5.239   5.373 -0.0781 -0.5171  0.6873
 8980TIP3    H148431   2.341   5.220   5.465 -0.0526 -1.3070  0.5217
 8980TIP3    H248432   2.232   5.222   5.361 -0.2503  0.3121  0.7305
 8981TIP3   OH248433   5.103   1.203  16.187 -0.1150  0.0279  0.0645
 8981TIP3    H148434   5.161   1.136  16.150 -0.5899 -0.4486  0.1749
 8981TIP3    H248435   5.056   1.158  16.258 -0.9740  0.2751 -0.3419
 8982TIP3   OH248436   3.723   4.028   3.558 -0.1851  0.2011  0.2791
 8982TIP3    H148437   3.654   3.982   3.606 -0.5854 -0.6513 -1.0760
 8982TIP3    H248438   3.688   4.116   3.546 -0.7380 -0.0216  0.2231
 8983TIP3   OH248439   5.288   2.213   0.714  0.4999 -0.2288 -0.3109
 8983TIP3    H148440   5.256   2.132   0.674  0.5920  0.2565 -1.4003
 8983TIP3    H248441   5.321   2.265   0.641 -1.2184  1.5844  0.0908
 8984TIP3   OH248442   0.405   3.248  16.898 -0.0771 -0.1860 -0.3747
 8984TIP3    H148443   0.454   3.246  16.816  0.7112 -0.5252  0.0940
 8984TIP3    H248444   0.440   3.324  16.944  0.2713 -0.6290  0.1083
 8985TIP3   OH248445   1.254   4.440  10.470 -0.1791  0.1997  0.1596
 8985TIP3    H148446   1.326   4.380  10.450 -0.7756  0.1825 -2.2655
 8985TIP3    H248447   1.182   4.383  10.497 -0.0890 -0.0032 -0.0285
 8986TIP3   OH248448   2.435   0.673   4.765 -0.4046  0.1524  0.0859
 8986TIP3    H148449   2.402   0.596   4.720  0.4326 -1.3068  1.8276
 8986TIP3    H248450   2.528   0.675   4.744  0.0960 -0.7959  1.9431
 8987TIP3   OH248451   2.732   2.457   1.750 -0.1162  0.0935  0.7868
 8987TIP3    H148452   2.775   2.541   1.767  0.5343  0.2405 -1.2974
 8987TIP3    H248453   2.654   2.480   1.699  0.8680 -0.6227 -1.1182
 8988TIP3   OH248454   5.634   3.518   0.600  0.2874  0.3589 -0.0518
 8988TIP3    H148455   5.701   3.570   0.645  0.9266  0.8193 -1.4870
 8988TIP3    H248456   5.575   3.583   0.563 -0.8786 -0.0408  1.0372
 8989TIP3   OH248457   4.845   3.446   3.641  0.4957  0.1277 -0.6195
 8989TIP3    H148458   4.832   3.540   3.629  0.6096 -0.0198 -2.0022
 8989TIP3    H248459   4.933   3.429   3.610  1.3980 -0.0862  1.8338
 8990TIP3   OH248460   2.199   0.139  16.955 -0.8839 -0.2923 -0.1568
 8990TIP3    H148461   2.295   0.139  16.961 -0.8489 -1.8302 -0.2515
 8990TIP3    H248462   2.181   0.132  16.861 -1.0275 -1.7443 -0.0525
 8991TIP3   OH248463   2.352   6.511  16.380 -0.4384  0.6440 -0.0476
 8991TIP3    H148464   2.413   6.440  16.403  0.1628  1.1509 -0.0583
 8991TIP3    H248465   2.274   6.465  16.348 -1.3040 -0.1151  2.8345
 8992TIP3   OH248466   6.764   0.167  12.584 -0.7077 -0.2736  0.0512
 8992TIP3    H148467   6.717   0.091  12.549 -0.2000 -0.0157 -1.2418
 8992TIP3    H248468   6.715   0.192  12.661 -2.4000 -0.3271 -0.9669
 8993TIP3   OH248469   3.249   6.120  13.901 -0.1034 -0.0072 -0.0633
 8993TIP3    H148470   3.175   6.060  13.893  0.5503 -0.7216 -0.9071
 8993TIP3    H248471   3.275   6.114  13.993 -0.6987 -0.2043  0.0991
 8994TIP3   OH248472   3.984   4.336  11.301  0.1482  0.0174 -0.0345
 8994TIP3    H148473   3.994   4.319  11.207  0.1306 -0.2502  0.0124
 8994TIP3    H248474   4.015   4.257  11.343  0.3898  0.2341  0.1966
 8995TIP3   OH248475   6.282   5.629   1.093 -0.4277 -0.2273 -0.1424
 8995TIP3    H148476   6.348   5.581   1.042 -0.2397 -0.9546  0.7526
 8995TIP3    H248477   6.332   5.697   1.137 -0.7613  1.1177 -1.7501
 8996TIP3   OH248478   5.315   0.536   6.906 -0.3801  0.6470  0.3061
 8996TIP3    H148479   5.336   0.630   6.910 -0.9072  0.7113  2.0827
 8996TIP3    H248480   5.398   0.495   6.880  0.0807  1.5161  0.3351
 8997TIP3   OH248481   0.310   1.158   2.163  0.1097 -0.2252  0.3330
 8997TIP3    H148482   0.302   1.253   2.149 -0.4265  0.4283  4.0537
 8997TIP3    H248483   0.219   1.128   2.169  0.2579 -0.4355  1.8135
 8998TIP3   OH248484   5.337   0.165   6.582 -0.2191  0.3581 -0.3853
 8998TIP3    H148485   5.410   0.172   6.643 -1.2073  0.0207  0.9056
 8998TIP3    H248486   5.375   0.182   6.496  0.8425  3.2217  0.5139
 8999TIP3   OH248487   1.134   1.871   2.405  0.4157  0.2646 -0.3197
 8999TIP3    H148488   1.182   1.954   2.405  1.0387 -0.0884 -0.4645
 8999TIP3    H248489   1.134   1.843   2.496 -0.2306  0.6637 -0.1898
 9000TIP3   OH248490   4.211   3.287   1.387  0.5389  0.0685 -0.0645
 9000TIP3    H148491   4.168   3.256   1.308  0.3084  1.1070 -0.3544
 9000TIP3    H248492   4.185   3.379   1.395 -0.0091 -0.1912  1.5978
 9001TIP3   OH248493   6.129   2.198  14.838 -0.3627 -0.2000  0.0716
 9001TIP3    H148494   6.134   2.288  14.807  1.4640 -0.5006 -0.7008
 9001TIP3    H248495   6.088   2.203  14.924 -1.4556  1.2018 -0.5127
 9002TIP3   OH248496   5.350   5.308  11.593 -1.0837  0.2028 -0.5245
 9002TIP3    H148497   5.372   5.236  11.652  0.7360  1.3862  0.3110
 9002TIP3    H248498   5.409   5.296  11.518  0.0675  1.4480  0.1512
 9003TIP3   OH248499   0.811   4.125   1.044  0.2500  0.0568  0.5324
 9003TIP3    H148500   0.825   4.112   1.138  0.3321 -1.3433  0.3517
 9003TIP3    H248501   0.717   4.113   1.032 -0.3297  3.3177  0.8396
 9004TIP3   OH248502   2.929   4.889   1.496 -0.2892 -0.1706  0.2239
 9004TIP3    H148503   2.986   4.964   1.515 -0.9031  0.5533 -0.7405
 9004TIP3    H248504   2.841   4.922   1.511 -0.8365  0.4141 -3.5016
 9005TIP3   OH248505   2.780   6.774   5.514  0.4750  0.1313  0.0647
 9005TIP3    H148506   2.859   6.827   5.503  0.6365 -0.1754 -0.2415
 9005TIP3    H248507   2.749   6.757   5.425 -0.6759  1.3408  0.1944
 9006TIP3   OH248508   6.768   0.772  16.225 -0.1576  0.3501 -0.5239
 9006TIP3    H148509   6.740   0.811  16.308  2.3934 -0.0942  0.6427
 9006TIP3    H248510   6.827   0.837  16.187  0.9078 -0.6259 -0.5819
 9007TIP3   OH248511   3.664   6.688  14.029  0.2715 -0.3159 -0.1432
 9007TIP3    H148512   3.729   6.683  14.100 -0.8952 -0.1072  0.9875
 9007TIP3    H248513   3.649   6.781  14.017  0.8748 -0.3319 -1.0792
 9008TIP3   OH248514   3.698   5.225  12.410  0.0884  0.2203 -0.1309
 9008TIP3    H148515   3.666   5.136  12.393 -0.1051 -0.0531  1.5029
 9008TIP3    H248516   3.789   5.214  12.437  0.1096  0.5282 -0.0710
 9009TIP3   OH248517   2.813   3.327   1.775  0.2476 -0.7662  0.4619
 9009TIP3    H148518   2.762   3.308   1.854  0.3201 -0.6555  0.5342
 9009TIP3    H248519   2.791   3.255   1.715  0.2806 -0.9099  0.6238
 9010TIP3   OH248520   4.141   4.677   2.879 -0.0627  0.2350  0.8974
 9010TIP3    H148521   4.189   4.605   2.838  0.3154  0.0604  1.6287
 9010TIP3    H248522   4.209   4.732   2.919 -0.4356  0.2383  1.5373
 9011TIP3   OH248523   5.098   5.528  14.973 -0.1435  0.0810  0.4601
 9011TIP3    H148524   5.135   5.590  14.910  0.1170  0.1003  0.6276
 9011TIP3    H248525   5.010   5.560  14.990 -0.6347 -0.5728 -0.7579
 9012TIP3   OH248526   2.228   6.462   2.262  0.6502 -0.3016  0.5944
 9012TIP3    H148527   2.160   6.460   2.195 -0.6054  3.1104  1.5549
 9012TIP3    H248528   2.273   6.378   2.253 -1.9797 -1.6249 -1.8270
 9013TIP3   OH248529   3.785   6.111   2.695 -0.0552  0.1991  0.0500
 9013TIP3    H148530   3.801   6.205   2.685 -0.8153  0.1956 -1.5124
 9013TIP3    H248531   3.834   6.071   2.624 -1.3588 -0.3908 -0.5473
 9014TIP3   OH248532   6.528   3.379   4.290 -0.3097  0.4120 -0.8163
 9014TIP3    H148533   6.581   3.451   4.324 -0.3792  0.2029 -0.2571
 9014TIP3    H248534   6.591   3.316   4.256 -0.0745 -0.5782  1.2763
 9015TIP3   OH248535   1.929   2.204  14.491  0.3966  0.0328  0.3187
 9015TIP3    H148536   1.955   2.142  14.422 -0.8408  1.5706 -1.6354
 9015TIP3    H248537   1.900   2.148  14.563  1.4854 -1.6475 -0.4622
 9016TIP3   OH248538   1.713   5.381   0.510  0.1350  0.1896  0.3046
 9016TIP3    H148539   1.733   5.443   0.580  1.9578  0.2014 -0.1897
 9016TIP3    H248540   1.706   5.296   0.554  0.3988  0.3253  0.6084
 9017TIP3   OH248541   2.519   0.004  12.655 -0.0943  0.9615 -0.0459
 9017TIP3    H148542   2.426  -0.015  12.643 -0.8368  2.9824  1.8188
 9017TIP3    H248543   2.546   0.044  12.572 -0.5981 -0.4404 -0.9351
 9018TIP3   OH248544   0.123   5.285   2.443 -0.4122 -0.7841 -0.0019
 9018TIP3    H148545   0.053   5.340   2.408  0.1393 -1.6702 -2.7879
 9018TIP3    H248546   0.203   5.335   2.427 -0.0625 -1.6185 -1.0386
 9019TIP3   OH248547   3.047   2.992  16.811  0.4297  0.0500  0.3657
 9019TIP3    H148548   3.061   3.063  16.749  0.4337  0.8622  1.2672
 9019TIP3    H248549   2.992   2.929  16.764  1.9282 -0.2527 -1.0840
 9020TIP3   OH248550   5.838   1.829  11.880 -0.1893 -0.5872  0.2547
 9020TIP3    H148551   5.888   1.755  11.914  1.4101 -0.1091 -0.9219
 9020TIP3    H248552   5.896   1.904  11.893  0.3988 -0.3216 -3.0676
 9021TIP3   OH248553   5.926   1.184   2.809  0.7227  0.4777  0.0278
 9021TIP3    H148554   5.840   1.147   2.787  2.0132 -2.2336 -0.9072
 9021TIP3    H248555   5.906   1.258   2.867 -2.2099 -0.1369 -0.0334
 9022TIP3   OH248556   3.142   0.371   3.753 -0.5235 -0.4263 -0.8830
 9022TIP3    H148557   3.229   0.388   3.790 -0.9088  0.5537 -0.3964
 9022TIP3    H248558   3.152   0.288   3.707  0.4716 -0.7108 -0.1931
 9023TIP3   OH248559   1.242   3.142  13.139 -0.5081 -0.0532  0.0202
 9023TIP3    H148560   1.246   3.136  13.043  0.6108 -2.4297  0.1368
 9023TIP3    H248561   1.150   3.158  13.158 -0.9639 -0.6879 -1.4526
 9024TIP3   OH248562   4.150   4.865   5.604 -0.2173  0.4364 -0.6409
 9024TIP3    H148563   4.159   4.889   5.511  0.4852  0.8563 -0.4707
 9024TIP3    H248564   4.183   4.776   5.609 -0.6209  0.2701 -0.8589
 9025TIP3   OH248565   1.670   6.677   0.644 -0.2644 -0.3150 -0.3800
 9025TIP3    H148566   1.716   6.711   0.721  0.4885 -2.6712  0.2835
 9025TIP3    H248567   1.678   6.747   0.579 -0.8862  1.7328  1.6142
 9026TIP3   OH248568   5.966   0.403   3.947 -0.3427 -0.1027 -0.1050
 9026TIP3    H148569   5.932   0.337   3.886  1.5154  0.3240 -1.7115
 9026TIP3    H248570   6.059   0.410   3.925 -0.5166  3.3013 -0.2349
 9027TIP3   OH248571   4.033   5.909  13.608 -0.8909 -0.3694  0.2713
 9027TIP3    H148572   3.954   5.867  13.643 -0.6046 -1.0034  0.1777
 9027TIP3    H248573   4.059   5.852  13.536  1.7123 -2.2791  2.5103
 9028TIP3   OH248574   2.623   0.191  15.796 -0.1470 -0.2893 -0.2835
 9028TIP3    H148575   2.593   0.137  15.722 -0.6737  0.7223 -0.8390
 9028TIP3    H248576   2.604   0.281  15.769 -0.3088  0.1108  1.0721
 9029TIP3   OH248577   0.703   0.425   2.370  0.7316 -0.2176  0.5000
 9029TIP3    H148578   0.753   0.506   2.370 -1.6414  1.4291  3.2023
 9029TIP3    H248579   0.621   0.447   2.325  0.4361 -1.4061  0.4099
 9030TIP3   OH248580   0.888   5.618   5.058  0.0141 -0.3188 -0.3061
 9030TIP3    H148581   0.923   5.546   5.109  0.5963  0.4450  0.3992
 9030TIP3    H248582   0.950   5.629   4.986 -1.0610 -1.7071 -1.4890
 9031TIP3   OH248583   0.570   2.378   1.758 -0.2349  0.4936  0.8744
 9031TIP3    H148584   0.627   2.422   1.822 -0.1530 -0.0731  1.1982
 9031TIP3    H248585   0.530   2.306   1.807 -1.1919  0.8477  0.6346
 9032TIP3   OH248586   6.151   0.289   2.827 -0.3226  0.0824  0.4577
 9032TIP3    H148587   6.212   0.242   2.884 -1.3167 -0.3759  1.1876
 9032TIP3    H248588   6.206   0.339   2.767  0.7672 -1.1399  0.4052
 9033TIP3   OH248589   4.961   2.445  15.031  0.3499 -0.0684  1.1802
 9033TIP3    H148590   4.869   2.423  15.043  0.5780 -1.2152  0.9516
 9033TIP3    H248591   4.996   2.374  14.978  0.7443  1.7881 -1.2307
 9034TIP3   OH248592   5.335   0.939  15.020 -0.3049  0.2528  0.0122
 9034TIP3    H148593   5.297   0.858  15.053 -1.5977  0.2892 -1.3227
 9034TIP3    H248594   5.344   0.925  14.926  1.4837  0.8744  0.0579
 9035TIP3   OH248595   6.194   0.689   5.622 -0.0851  0.9204  0.3772
 9035TIP3    H148596   6.136   0.662   5.551 -1.2767  0.2603  1.5399
 9035TIP3    H248597   6.257   0.618   5.631 -1.5311 -0.2915  1.6241
 9036TIP3   OH248598   0.609   5.306   2.844  0.0719  0.2923  0.1927
 9036TIP3    H148599   0.579   5.355   2.921 -1.2857  0.2314 -0.2637
 9036TIP3    H248600   0.532   5.256   2.817  0.2474  0.9876 -1.7383
 9037TIP3   OH248601   0.087   2.187  10.916  0.0855  0.3218  0.2380
 9037TIP3    H148602   0.050   2.171  11.003  1.5387  1.0983  1.0335
 9037TIP3    H248603   0.014   2.223  10.865 -2.0720 -3.9702 -0.2527
 9038TIP3   OH248604   2.136   5.805   3.486  0.5222 -0.7874 -0.9004
 9038TIP3    H148605   2.198   5.809   3.559 -0.3351  3.5912 -0.1338
 9038TIP3    H248606   2.071   5.740   3.514  0.4061  0.4499  2.1972
 9039TIP3   OH248607   1.708   3.316  12.443 -0.4510 -0.3279  0.2117
 9039TIP3    H148608   1.653   3.264  12.385 -0.2772  0.7308 -0.9455
 9039TIP3    H248609   1.724   3.259  12.518 -2.8760 -0.7845  0.4773
 9040TIP3   OH248610   6.093   4.023  13.622 -0.1532 -0.7541 -0.1354
 9040TIP3    H148611   6.055   3.938  13.600 -0.5798 -1.0569  1.6272
 9040TIP3    H248612   6.185   4.016  13.596 -0.7662 -0.7616 -2.4811
 9041TIP3   OH248613   3.850   3.392  15.843  0.4766  0.0551 -0.6543
 9041TIP3    H148614   3.930   3.364  15.798  0.7239 -0.3786  0.0379
 9041TIP3    H248615   3.781   3.336  15.807  1.0123 -1.6988  0.9081
 9042TIP3   OH248616   2.984   6.431  13.231 -0.4174 -0.2014 -0.2040
 9042TIP3    H148617   2.929   6.501  13.268  0.1124 -0.4847  1.1907
 9042TIP3    H248618   3.070   6.470  13.221  0.1217 -0.8597  1.4571
 9043TIP3   OH248619   2.480   0.844   0.428  0.4336  0.8607 -0.3576
 9043TIP3    H148620   2.530   0.917   0.465  0.7052  0.7781 -0.5599
 9043TIP3    H248621   2.395   0.849   0.471  0.0195  2.0430 -1.2408
 9044TIP3   OH248622   5.341   1.633   0.687 -0.0461 -0.3106  0.3207
 9044TIP3    H148623   5.355   1.557   0.631 -0.7267 -1.0787  1.1618
 9044TIP3    H248624   5.415   1.690   0.669 -1.0688  0.2859 -2.6525
 9045TIP3   OH248625   5.359   5.986  11.497  0.1643  0.4630  0.4205
 9045TIP3    H148626   5.412   6.061  11.470  0.4266  0.0036 -0.3970
 9045TIP3    H248627   5.413   5.940  11.561  0.4380  0.4161  0.1584
 9046TIP3   OH248628   5.700   5.083   3.423  0.1770  0.3373 -0.2120
 9046TIP3    H148629   5.668   5.115   3.507  0.9623  0.0078  0.2275
 9046TIP3    H248630   5.795   5.094   3.428  0.2802 -0.1988 -0.8381
 9047TIP3   OH248631   1.329   3.735  15.956  0.0760  0.2530 -0.1095
 9047TIP3    H148632   1.374   3.808  15.912  0.2576 -0.4745 -1.1845
 9047TIP3    H248633   1.300   3.772  16.039  1.9815  0.9879  0.2892
 9048TIP3   OH248634   3.772   2.993  17.093  0.0722  0.4829 -0.7558
 9048TIP3    H148635   3.771   2.963  17.184 -1.5387  1.3779 -0.4315
 9048TIP3    H248636   3.682   3.021  17.077  0.6346  1.5384 -2.2229
 9049TIP3   OH248637   1.826   6.698   1.676 -0.1009 -0.0107  0.7627
 9049TIP3    H148638   1.906   6.719   1.628 -0.1188 -1.5774  0.0181
 9049TIP3    H248639   1.854   6.637   1.744 -0.5238  0.1780  1.1152
 9050TIP3   OH248640   3.330   2.023  17.062  0.1893 -0.1084  0.3431
 9050TIP3    H148641   3.301   2.004  16.973  0.3971  0.3479  0.1780
 9050TIP3    H248642   3.341   2.118  17.065  0.1880 -0.1185  0.8534
 9051TIP3   OH248643   3.109   3.327  13.504 -0.3716  0.1914 -0.4425
 9051TIP3    H148644   3.092   3.406  13.555  1.0426  0.0009  0.3781
 9051TIP3    H248645   3.199   3.336  13.474 -0.0296 -1.2789  0.0412
 9052TIP3   OH248646   3.760   1.181  11.443  0.3327 -0.4849  1.0370
 9052TIP3    H148647   3.815   1.211  11.515  0.8125 -1.5953  1.1655
 9052TIP3    H248648   3.723   1.098  11.474 -1.4455  0.2448  0.9575
 9053TIP3   OH248649   3.455   0.449  15.386 -0.0848 -0.0361 -0.3089
 9053TIP3    H148650   3.462   0.356  15.367  0.5798  0.3592 -2.2824
 9053TIP3    H248651   3.539   0.486  15.358  1.1272  0.7501  3.7060
 9054TIP3   OH248652   5.770   5.786   1.194  0.1339 -0.5596 -0.0883
 9054TIP3    H148653   5.760   5.833   1.111 -0.0756 -0.4336  0.0092
 9054TIP3    H248654   5.865   5.778   1.205  0.3520  2.4340  1.3353
 9055TIP3   OH248655   1.453   4.383   2.388 -0.3237  0.2575  0.3391
 9055TIP3    H148656   1.461   4.439   2.465 -0.0658  0.3451  0.2490
 9055TIP3    H248657   1.432   4.297   2.424  0.0869  0.2339  0.5235
 9056TIP3   OH248658   2.976   2.982  17.084  0.1703  0.3369 -0.2406
 9056TIP3    H148659   2.957   3.075  17.090  0.8601  0.4142  0.9735
 9056TIP3    H248660   3.011   2.970  16.995  0.7677  1.3688 -0.1548
 9057TIP3   OH248661   4.666   2.644  15.316 -0.3410  0.6180  0.5248
 9057TIP3    H148662   4.678   2.698  15.395 -0.2965  1.6710 -0.1742
 9057TIP3    H248663   4.747   2.657  15.266 -1.2631  1.7971 -0.7454
 9058TIP3   OH248664   6.537   2.525  16.280  0.2622  0.5482  0.7513
 9058TIP3    H148665   6.505   2.612  16.304 -2.0031 -0.0624  0.2083
 9058TIP3    H248666   6.480   2.497  16.208  0.4656 -1.6513  1.3472
 9059TIP3   OH248667   3.501   1.709   4.441  1.0772 -0.4156 -0.5000
 9059TIP3    H148668   3.461   1.621   4.442  0.7956 -0.3028 -1.3387
 9059TIP3    H248669   3.572   1.702   4.377  1.5187 -0.2270 -0.0321
 9060TIP3   OH248670   1.783   2.610  15.750  0.4705 -0.0656  0.2689
 9060TIP3    H148671   1.713   2.603  15.815  0.7222 -0.4514  0.5032
 9060TIP3    H248672   1.789   2.703  15.730 -0.9485 -0.1410 -0.6663
 9061TIP3   OH248673   2.909   6.624   1.753 -0.1342  0.4948  0.5306
 9061TIP3    H148674   2.985   6.681   1.739  1.0730 -0.9524  0.9633
 9061TIP3    H248675   2.869   6.616   1.667  1.2095 -0.0646 -0.0773
 9062TIP3   OH248676   3.039   5.883   4.296  0.6090  0.4441  0.1766
 9062TIP3    H148677   3.082   5.968   4.289  1.3358  0.0152 -0.7917
 9062TIP3    H248678   3.094   5.833   4.355 -0.0876  0.7935  1.1410
 9063TIP3   OH248679   6.714   0.724  13.771 -0.1436 -0.1796 -0.1104
 9063TIP3    H148680   6.662   0.688  13.843  0.1051  1.3206  0.8619
 9063TIP3    H248681   6.722   0.817  13.791 -0.9981  0.5388 -2.6567
 9064TIP3   OH248682   2.481   6.241  12.790  0.0777 -0.0508  0.0382
 9064TIP3    H148683   2.564   6.240  12.838  0.7955  0.5075 -1.1392
 9064TIP3    H248684   2.423   6.184  12.841  1.1276 -0.3289  0.9671
 9065TIP3   OH248685   1.408   0.215  14.740 -0.5082 -0.0266  0.2093
 9065TIP3    H148686   1.385   0.244  14.828 -1.1163 -1.9921  0.7623
 9065TIP3    H248687   1.426   0.295  14.692 -1.7204  1.1974  1.6917
 9066TIP3   OH248688   4.649   4.101   2.932  0.3402  0.4467 -0.2522
 9066TIP3    H148689   4.712   4.107   3.003  1.0693  1.7133 -0.9788
 9066TIP3    H248690   4.626   4.191   2.911 -2.6177  0.0235  0.7257
 9067TIP3   OH248691   5.984   2.957  13.305 -0.4124 -0.3544 -0.1897
 9067TIP3    H148692   6.030   2.971  13.222 -0.8925 -0.4938 -0.4859
 9067TIP3    H248693   6.054   2.941  13.368 -0.0638 -1.0243 -0.7205
 9068TIP3   OH248694   1.986   3.621   5.066 -1.0174  0.1278  0.3523
 9068TIP3    H148695   2.049   3.583   5.127  1.2890  0.4478 -1.6802
 9068TIP3    H248696   1.938   3.547   5.030 -0.5411 -0.2915  0.5804
 9069TIP3   OH248697   0.207   5.918  15.103  0.2298  0.2988 -0.0839
 9069TIP3    H148698   0.147   5.992  15.111 -0.7170 -0.4356 -0.3440
 9069TIP3    H248699   0.258   5.937  15.025 -2.2312 -0.8640 -2.0976
 9070TIP3   OH248700   0.042   0.183   3.768 -0.4897 -0.7750 -0.0680
 9070TIP3    H148701   0.061   0.091   3.752  1.3539 -0.3793 -0.3536
 9070TIP3    H248702   0.118   0.230   3.734 -1.6144  0.9049 -0.3974
 9071TIP3   OH248703   0.125   1.024  11.422 -0.6946  0.2680  0.2460
 9071TIP3    H148704   0.173   1.104  11.445  1.0716 -1.3509  2.6982
 9071TIP3    H248705   0.129   1.021  11.326 -2.1890  3.8105 -0.1047
 9072TIP3   OH248706   5.565   0.275   2.425  0.0153  0.0232  0.9883
 9072TIP3    H148707   5.605   0.305   2.343 -2.3730 -2.7690 -1.4242
 9072TIP3    H248708   5.495   0.338   2.441  1.7948  1.8382  2.2765
 9073TIP3   OH248709   6.361   3.923   3.732  0.0799 -0.0465 -0.4951
 9073TIP3    H148710   6.437   3.890   3.780  0.2483 -0.3490 -0.9572
 9073TIP3    H248711   6.399   3.965   3.655 -0.2490 -1.0681 -1.2457
 9074TIP3   OH248712   4.152   1.483   4.557  0.3652 -0.1186 -0.0496
 9074TIP3    H148713   4.111   1.410   4.603  0.0284  0.4101  0.4970
 9074TIP3    H248714   4.088   1.553   4.560  0.4126 -0.0103 -1.1715
 9075TIP3   OH248715   3.301   3.011   0.540 -0.0049  0.0851 -0.1720
 9075TIP3    H148716   3.238   3.078   0.514 -0.8029 -0.0579  1.2836
 9075TIP3    H248717   3.286   2.998   0.634  2.5034  0.3599  0.3576
 9076TIP3   OH248718   6.749   2.296   5.885  0.3998 -0.1540 -0.3704
 9076TIP3    H148719   6.701   2.232   5.938  2.0321 -1.1513 -0.0377
 9076TIP3    H248720   6.707   2.380   5.906 -0.4566 -0.8347  0.7749
 9077TIP3   OH248721   5.033   3.834   0.587 -0.1634  0.0984  0.2661
 9077TIP3    H148722   4.983   3.899   0.636 -0.6540 -0.6512  0.7737
 9077TIP3    H248723   5.091   3.793   0.652  0.2764  0.1491 -0.0864
 9078TIP3   OH248724   2.750   3.694  12.568  0.3644  0.0176  0.0305
 9078TIP3    H148725   2.759   3.728  12.479 -2.9097  1.2579  0.0448
 9078TIP3    H248726   2.776   3.602  12.562  2.6743  0.6867 -1.5687
 9079TIP3   OH248727   0.975   4.643  17.171  0.1238  0.0698 -0.0398
 9079TIP3    H148728   0.977   4.652  17.267 -0.0832 -0.5642  0.0339
 9079TIP3    H248729   0.908   4.576  17.156 -0.3902  0.7214 -0.6746
 9080TIP3   OH248730   3.415   3.339  14.749 -0.2761  0.4979  0.2958
 9080TIP3    H148731   3.380   3.404  14.810 -0.3556 -0.2922  1.1146
 9080TIP3    H248732   3.342   3.280  14.732 -0.5146  1.2241 -1.3027
 9081TIP3   OH248733   0.514   0.131  12.233 -0.2623 -0.3619  0.4406
 9081TIP3    H148734   0.469   0.065  12.286  0.2219  0.4991  1.9963
 9081TIP3    H248735   0.493   0.214  12.275 -2.1417  0.7242 -2.3855
 9082TIP3   OH248736   5.802   2.772  14.961  0.3470 -0.1383  0.1138
 9082TIP3    H148737   5.788   2.781  15.055 -1.4898  0.3411 -0.1768
 9082TIP3    H248738   5.775   2.856  14.924  0.2957 -0.5834 -0.9112
 9083TIP3   OH248739   3.800   2.673  12.723  0.1040  0.1909 -1.1517
 9083TIP3    H148740   3.834   2.720  12.799  0.7575 -1.1888 -0.5684
 9083TIP3    H248741   3.706   2.664  12.740  0.4136 -1.0313  0.0197
 9084TIP3   OH248742   3.614   0.618   2.535 -0.2135  0.1905  0.3086
 9084TIP3    H148743   3.635   0.616   2.629  3.3151 -0.7618 -0.3457
 9084TIP3    H248744   3.626   0.710   2.510 -0.2487  0.2775  0.6030
 9085TIP3   OH248745   4.382   5.312  11.860  0.5462  0.8487 -0.0437
 9085TIP3    H148746   4.396   5.264  11.779  0.7673 -0.0928  0.5369
 9085TIP3    H248747   4.430   5.262  11.926  0.5022  1.6850  0.6384
 9086TIP3   OH248748   1.544   1.360   1.401  0.0579 -0.0564 -0.4137
 9086TIP3    H148749   1.523   1.453   1.393  0.9813  0.1635 -0.3305
 9086TIP3    H248750   1.489   1.317   1.334 -0.2738  0.5542 -0.5397
 9087TIP3   OH248751   0.022   3.258   3.767 -0.3325  0.4045 -0.7525
 9087TIP3    H148752  -0.043   3.198   3.730  0.2836 -1.3318  0.8243
 9087TIP3    H248753   0.060   3.210   3.841  2.4351  1.5256 -1.3331
 9088TIP3   OH248754   4.493   0.547  16.546 -0.0361 -0.4138  0.0710
 9088TIP3    H148755   4.484   0.629  16.596  0.6174 -0.8276  0.8955
 9088TIP3    H248756   4.482   0.574  16.455 -1.3055  0.3548  0.4236
 9089TIP3   OH248757   0.976   3.414   2.977  0.4453  0.2759  0.1116
 9089TIP3    H148758   0.917   3.429   2.903 -0.8962 -0.5029  0.9850
 9089TIP3    H248759   0.986   3.319   2.980  1.1786  0.3574  0.4197
 9090TIP3   OH248760   4.147   6.175  15.061  0.4613  0.0180 -1.0743
 9090TIP3    H148761   4.119   6.210  14.977  1.6714 -0.5919 -1.7619
 9090TIP3    H248762   4.242   6.162  15.051  0.0161 -4.9265 -1.5039
 9091TIP3   OH248763   4.220   6.560  16.120  0.3867 -0.1483  0.5210
 9091TIP3    H148764   4.128   6.556  16.146  0.5375 -2.2782  0.8895
 9091TIP3    H248765   4.256   6.632  16.173 -0.5062 -0.9683  2.3341
 9092TIP3   OH248766   4.100   5.549  13.214 -0.2549 -0.2349 -0.9193
 9092TIP3    H148767   4.038   5.492  13.168 -0.6974  0.8197 -1.6885
 9092TIP3    H248768   4.102   5.629  13.161  2.6579 -0.6242 -1.5837
 9093TIP3   OH248769   3.866   6.489   5.932 -0.4613  0.2854  0.4161
 9093TIP3    H148770   3.947   6.515   5.977  0.6057  1.3388 -1.9558
 9093TIP3    H248771   3.822   6.432   5.995  1.7977  0.1897  2.0667
 9094TIP3   OH248772   6.629   3.180   6.211  0.3325 -0.8097 -0.4906
 9094TIP3    H148773   6.643   3.106   6.271  0.1405 -1.0943 -0.7920
 9094TIP3    H248774   6.543   3.214   6.233  0.1449 -1.0878 -0.7849
 9095TIP3   OH248775   4.053   2.178  14.851 -0.7295  0.4316  0.1273
 9095TIP3    H148776   3.989   2.200  14.783 -0.9208 -0.3093  0.0566
 9095TIP3    H248777   4.099   2.260  14.869 -0.9455  0.7210 -0.6175
 9096TIP3   OH248778   2.302   1.930   3.716  0.0684  0.2536  0.3838
 9096TIP3    H148779   2.216   1.911   3.679 -0.7230  2.3881  1.0101
 9096TIP3    H248780   2.293   1.910   3.809 -0.2965  2.0010  0.7557
 9097TIP3   OH248781   6.739   1.094  14.366 -0.4996  0.0491  0.1362
 9097TIP3    H148782   6.650   1.077  14.335 -0.0646  0.0362 -1.1711
 9097TIP3    H248783   6.780   1.008  14.372 -0.0750  0.1723 -0.8736
 9098TIP3   OH248784   1.473   3.759   1.398 -0.4642 -0.4253 -0.0040
 9098TIP3    H148785   1.446   3.711   1.319 -1.1665  0.2441 -0.1840
 9098TIP3    H248786   1.395   3.809   1.423  1.2225  3.8141 -2.1198
 9099TIP3   OH248787   6.556   5.383   3.563  0.4466  0.0570  0.7342
 9099TIP3    H148788   6.500   5.311   3.535 -0.5602  0.6547  1.1554
 9099TIP3    H248789   6.502   5.434   3.623  0.7011  1.8510 -0.4670
 9100TIP3   OH248790   2.183   4.298   1.655  0.3649  0.3996 -0.3671
 9100TIP3    H148791   2.246   4.230   1.633 -1.2866 -1.2001 -0.3610
 9100TIP3    H248792   2.122   4.256   1.716  0.7953  2.6604  1.8154
 9101TIP3   OH248793   1.887   5.406   2.716  0.4963 -0.3564 -0.1066
 9101TIP3    H148794   1.881   5.375   2.626  1.6688  2.5062 -1.3057
 9101TIP3    H248795   1.796   5.414   2.745  0.1204 -2.0131 -0.7137
 9102TIP3   OH248796   1.808   5.856   1.939  0.6953  0.5291 -0.8257
 9102TIP3    H148797   1.721   5.837   1.904  0.8680 -0.1423 -0.9140
 9102TIP3    H248798   1.835   5.936   1.894 -0.1615  1.1445 -0.2683
 9103TIP3   OH248799   2.993   3.321   3.556  0.2345  0.2853 -0.0350
 9103TIP3    H148800   3.017   3.278   3.638  1.1923 -0.1727 -0.5399
 9103TIP3    H248801   3.037   3.405   3.559 -2.0487  1.5451  1.1839
 9104TIP3   OH248802   3.701   6.249   2.941  0.5105 -0.6503  0.4079
 9104TIP3    H148803   3.783   6.228   2.985  0.4190 -1.3654  0.2536
 9104TIP3    H248804   3.722   6.246   2.848  0.9537  1.8806  0.3617
 9105TIP3   OH248805   1.258   0.210  11.900  0.1455 -0.4786 -0.0740
 9105TIP3    H148806   1.274   0.213  11.994 -0.5697 -0.4393  0.0498
 9105TIP3    H248807   1.327   0.265  11.862  0.1007 -0.0368  0.4723
 9106TIP3   OH248808   1.934   4.795  16.897  0.4311 -0.3948  0.4470
 9106TIP3    H148809   1.949   4.862  16.963  0.6269 -0.8612  0.8801
 9106TIP3    H248810   1.851   4.754  16.922  1.0841 -1.3617  1.0950
 9107TIP3   OH248811   1.311   2.938  10.497  0.1920  0.3703  0.1693
 9107TIP3    H148812   1.364   2.862  10.522  2.0188  1.9472  1.3295
 9107TIP3    H248813   1.371   3.012  10.502 -1.8451  2.0941  0.3153
 9108TIP3   OH248814   0.701   0.648   1.670  0.2647  0.2037 -0.2057
 9108TIP3    H148815   0.648   0.659   1.591 -1.2800  0.4092  0.8161
 9108TIP3    H248816   0.726   0.556   1.670 -0.1326  0.0915 -0.6785
 9109TIP3   OH248817   5.836   3.828   2.046  0.0317 -0.3933  0.1571
 9109TIP3    H148818   5.793   3.871   2.120  0.0833 -0.6617  0.3436
 9109TIP3    H248819   5.834   3.735   2.067  0.0138 -0.4748 -0.1986
 9110TIP3   OH248820   1.779   4.642   1.410  0.1834 -0.3492 -0.4786
 9110TIP3    H148821   1.688   4.659   1.433  0.1326 -0.6685 -0.4382
 9110TIP3    H248822   1.816   4.598   1.487  0.0619 -1.2581 -0.9298
 9111TIP3   OH248823   0.315   1.768   0.988 -1.0411  0.0768  0.0218
 9111TIP3    H148824   0.362   1.685   0.990 -2.5490 -0.8007  1.1931
 9111TIP3    H248825   0.324   1.803   1.077  0.2952  1.6422 -0.6670
 9112TIP3   OH248826   3.230   1.323  14.314 -0.5722  0.0565 -0.3682
 9112TIP3    H148827   3.304   1.270  14.343 -0.9479 -1.0877 -1.3793
 9112TIP3    H248828   3.232   1.317  14.218 -2.2395 -0.4281 -0.4155
 9113TIP3   OH248829   6.023   0.273   0.356 -1.2576  0.3349 -0.2720
 9113TIP3    H148830   6.011   0.272   0.261 -0.3175 -1.0251 -0.3974
 9113TIP3    H248831   6.094   0.211   0.373  0.5312  2.5437  1.0742
 9114TIP3   OH248832   6.274   5.314   4.513 -0.3294 -0.1755 -0.1777
 9114TIP3    H148833   6.238   5.393   4.472 -0.3175 -0.3845 -0.5913
 9114TIP3    H248834   6.280   5.336   4.606 -1.1174  0.0120 -0.1706
 9115TIP3   OH248835   5.779   4.796  16.930  0.0809 -0.1183 -0.6256
 9115TIP3    H148836   5.754   4.866  16.991 -0.5099  0.1066 -1.1168
 9115TIP3    H248837   5.865   4.768  16.960 -0.7325 -0.9067  1.1281
 9116TIP3   OH248838   0.539   4.155   3.886 -0.5569 -0.1321  0.3984
 9116TIP3    H148839   0.460   4.105   3.907 -0.0424 -1.0805  0.0850
 9116TIP3    H248840   0.554   4.139   3.793 -0.0001  0.0534  0.4546
 9117TIP3   OH248841   1.353   5.566   0.897  0.0277  0.5085 -0.0394
 9117TIP3    H148842   1.436   5.518   0.898  0.0785  0.5376 -1.3209
 9117TIP3    H248843   1.294   5.512   0.950  0.5550 -0.0788 -0.0333
 9118TIP3   OH248844   3.240   1.593   4.627  0.6943  0.0357 -0.1113
 9118TIP3    H148845   3.241   1.605   4.532  0.6549 -2.9324 -0.5739
 9118TIP3    H248846   3.180   1.520   4.641  0.2780  0.7538  2.2827
 9119TIP3   OH248847   2.816   3.322   5.543  0.3574 -0.0964 -0.0442
 9119TIP3    H148848   2.823   3.229   5.566  0.8179  0.3660  1.8003
 9119TIP3    H248849   2.877   3.366   5.601  0.2716  1.3753 -1.0084
 9120TIP3   OH248850   1.656   2.723  15.261 -0.2873 -0.1521 -0.2743
 9120TIP3    H148851   1.602   2.784  15.311 -0.1262  0.5844 -0.9724
 9120TIP3    H248852   1.628   2.636  15.290 -2.1308  0.2016 -0.9125
 9121TIP3   OH248853   5.884   1.172  12.495  0.5254  0.1044  0.1968
 9121TIP3    H148854   5.909   1.082  12.511 -1.6055 -1.1187 -2.4281
 9121TIP3    H248855   5.789   1.173  12.508  0.1633  1.3244 -2.0406
 9122TIP3   OH248856   4.502   6.605  12.127 -0.1680  0.2696  0.3326
 9122TIP3    H148857   4.566   6.629  12.060 -1.1526  1.5681 -0.1863
 9122TIP3    H248858   4.472   6.517  12.101 -0.1935  0.5621 -0.6793
 9123TIP3   OH248859   1.821   3.411  13.201 -0.0304  0.1801  0.0003
 9123TIP3    H148860   1.847   3.329  13.242 -1.1536 -1.0439 -1.5817
 9123TIP3    H248861   1.822   3.475  13.272  0.9568 -1.1759  1.2682
 9124TIP3   OH248862   2.515   6.726  12.281  0.5457  0.1024  0.5137
 9124TIP3    H148863   2.565   6.669  12.339  0.3171 -0.1956  0.4240
 9124TIP3    H248864   2.535   6.815  12.311 -0.5120 -0.0728  1.8460
 9125TIP3   OH248865   6.650   0.056  14.512  0.6946  0.1992  0.5237
 9125TIP3    H148866   6.681  -0.034  14.509  2.0266  0.6133  1.0740
 9125TIP3    H248867   6.725   0.106  14.545  0.8433  1.8880 -2.1012
 9126TIP3   OH248868   4.321   1.137   1.748  0.0931 -0.0778  0.3237
 9126TIP3    H148869   4.309   1.201   1.678 -2.6834 -2.1262 -1.2777
 9126TIP3    H248870   4.390   1.078   1.715  0.1894  0.0864  0.2321
 9127TIP3   OH248871   5.003   4.123  15.113 -0.2790 -0.2147 -0.3805
 9127TIP3    H148872   5.044   4.174  15.183  0.6846 -0.5161 -0.7089
 9127TIP3    H248873   4.971   4.044  15.157 -1.3504  0.4200  0.0403
 9128TIP3   OH248874   0.481   5.615  11.398  0.3501  0.0860  0.0575
 9128TIP3    H148875   0.420   5.541  11.390  0.9241 -0.6012  1.7209
 9128TIP3    H248876   0.530   5.597  11.478 -0.0922  2.7054  0.9864
 9129TIP3   OH248877   4.340   4.107   3.340 -0.5559 -0.2201 -0.2151
 9129TIP3    H148878   4.344   4.116   3.436 -2.8290  1.1311 -0.1562
 9129TIP3    H248879   4.305   4.019   3.326 -1.5048  0.0570  0.2909
 9130TIP3   OH248880   1.070   6.094  13.568  0.3622 -0.0068 -0.3900
 9130TIP3    H148881   1.040   6.030  13.503  1.7446 -0.3768 -0.6872
 9130TIP3    H248882   1.094   6.041  13.644 -2.6808  0.5163  1.0902
 9131TIP3   OH248883   6.549   6.213  15.202 -0.1977  0.3445 -0.4015
 9131TIP3    H148884   6.544   6.308  15.199  1.3619  0.4340 -2.0200
 9131TIP3    H248885   6.564   6.187  15.111  0.4955 -1.3610  0.1569
 9132TIP3   OH248886   5.692   1.656   5.990  0.2782 -0.9197 -0.2496
 9132TIP3    H148887   5.684   1.619   6.078  0.6513  0.3501  0.3364
 9132TIP3    H248888   5.745   1.735   6.002  0.1190 -0.5957 -1.5781
 9133TIP3   OH248889   6.022   6.461  13.168 -0.0640  0.4128 -0.4133
 9133TIP3    H148890   6.030   6.530  13.102  1.7417 -0.4930 -1.2002
 9133TIP3    H248891   6.041   6.380  13.121 -4.8496 -1.1396 -0.2255
 9134TIP3   OH248892   5.773   5.747  13.031 -0.8091 -0.3690  0.5724
 9134TIP3    H148893   5.807   5.658  13.038  0.6080  0.2423  2.2543
 9134TIP3    H248894   5.820   5.796  13.099 -2.2926  1.4389  0.3771
 9135TIP3   OH248895   0.237   1.698  15.382 -0.3161  0.3828 -0.6817
 9135TIP3    H148896   0.252   1.790  15.360 -1.5595  0.7741  0.0058
 9135TIP3    H248897   0.165   1.671  15.324 -0.7598  0.2011 -0.0558
 9136TIP3   OH248898   3.280   5.305   0.047 -0.1825 -0.3103  0.4646
 9136TIP3    H148899   3.226   5.259  -0.017  0.7984 -1.6079  0.5093
 9136TIP3    H248900   3.356   5.336  -0.003  0.6877 -1.5033  0.9826
 9137TIP3   OH248901   4.847   3.638  11.709 -0.5382 -0.4296 -0.2490
 9137TIP3    H148902   4.908   3.703  11.672 -0.1205 -0.8734 -0.3535
 9137TIP3    H248903   4.844   3.569  11.644  3.5499 -3.3426  2.1901
 9138TIP3   OH248904   1.482   6.783  11.103  0.0163 -0.1890 -1.0331
 9138TIP3    H148905   1.434   6.866  11.107 -0.5259 -0.5283 -0.2096
 9138TIP3    H248906   1.532   6.788  11.022  1.4054  1.7086 -0.1439
 9139TIP3   OH248907   3.433   1.139   2.078 -0.2068  0.7410  0.1334
 9139TIP3    H148908   3.422   1.118   1.985  0.0248  0.6144  0.1333
 9139TIP3    H248909   3.484   1.066   2.113 -0.1361  0.8793  0.3206
 9140TIP3   OH248910   2.753   4.663  12.858  0.4591 -0.0534 -0.1795
 9140TIP3    H148911   2.842   4.642  12.886  0.1593 -1.2605 -0.0449
 9140TIP3    H248912   2.702   4.587  12.885  0.0510 -1.0910 -3.4385
 9141TIP3   OH248913   4.909   3.750  13.353  0.2601  0.5944  0.0432
 9141TIP3    H148914   4.957   3.684  13.302 -1.6580 -0.8008 -0.0602
 9141TIP3    H248915   4.833   3.771  13.299  0.1264  1.8920  0.7087
 9142TIP3   OH248916   1.804   0.841   5.748  0.4806 -0.3466 -0.0390
 9142TIP3    H148917   1.715   0.848   5.783  0.5305 -0.4895  0.1207
 9142TIP3    H248918   1.819   0.924   5.703 -0.2853 -0.9205 -1.3877
 9143TIP3   OH248919   6.776   5.265   5.388  0.1412 -0.5093 -0.3065
 9143TIP3    H148920   6.721   5.335   5.353  1.3817  2.7258  3.4391
 9143TIP3    H248921   6.866   5.293   5.369  0.6754 -0.8723  1.5119
 9144TIP3   OH248922   4.765   6.509  15.220  0.0219  0.2939 -0.5187
 9144TIP3    H148923   4.697   6.443  15.236 -0.2577  0.7637  0.3429
 9144TIP3    H248924   4.747   6.542  15.132 -1.8701  1.5073  0.2388
 9145TIP3   OH248925   1.594   6.593  15.300  0.2103 -0.3568 -0.2518
 9145TIP3    H148926   1.687   6.598  15.321 -0.1241  1.5755  0.9449
 9145TIP3    H248927   1.551   6.646  15.366 -1.5487  0.6531 -2.0842
 9146TIP3   OH248928   3.239   0.220  13.982 -0.7397 -0.2541  0.1251
 9146TIP3    H148929   3.173   0.276  14.024 -1.7177 -1.2740 -0.0144
 9146TIP3    H248930   3.265   0.158  14.049  0.2993  0.3043  0.2595
 9147TIP3   OH248931   5.546   3.242  16.413 -0.3565 -0.2355  0.0223
 9147TIP3    H148932   5.640   3.260  16.422 -0.4867  0.8399 -0.6389
 9147TIP3    H248933   5.524   3.271  16.325 -1.2909 -0.5879  0.1313
 9148TIP3   OH248934   6.548   2.173   4.381 -0.0215 -0.8077 -0.0817
 9148TIP3    H148935   6.579   2.261   4.358 -0.2005 -0.4484  0.9929
 9148TIP3    H248936   6.522   2.180   4.473 -0.2162 -1.9414 -0.0358
 9149TIP3   OH248937   2.530   3.998   1.346 -0.3858  0.1258 -0.2837
 9149TIP3    H148938   2.593   3.952   1.291 -0.5122 -0.4706  0.0672
 9149TIP3    H248939   2.528   4.087   1.310  1.4479  0.4703  0.3230
 9150TIP3   OH248940   3.567   1.746   4.134  0.0018 -0.5910 -0.1989
 9150TIP3    H148941   3.624   1.790   4.071 -0.1084 -1.1199 -0.6668
 9150TIP3    H248942   3.618   1.747   4.216  0.4594 -0.5734 -0.4795
 9151TIP3   OH248943   4.443   1.737  15.136 -0.2655  0.8053  0.0436
 9151TIP3    H148944   4.494   1.817  15.150  1.8629 -0.7729  2.0925
 9151TIP3    H248945   4.487   1.693  15.062 -0.1196  0.5547  0.2777
 9152TIP3   OH248946   0.128   4.046  12.386 -0.0511 -0.3752 -0.1248
 9152TIP3    H148947   0.208   4.071  12.340  0.0336  1.9220  1.0908
 9152TIP3    H248948   0.072   4.124  12.382 -1.5888 -1.3957  0.3903
 9153TIP3   OH248949   0.167   6.295  15.997  0.2254  0.7669 -0.0529
 9153TIP3    H148950   0.095   6.330  15.945 -0.2676  0.1979  0.2445
 9153TIP3    H248951   0.197   6.370  16.049 -1.6306  0.4899  1.4950
 9154TIP3   OH248952   5.089   4.272  11.449 -0.0328 -0.1968 -0.3367
 9154TIP3    H148953   5.075   4.343  11.386 -1.3978 -0.5211 -0.4329
 9154TIP3    H248954   5.167   4.298  11.498  2.1762 -0.7785 -3.2882
 9155TIP3   OH248955   5.146   3.874  13.220 -0.5175 -1.1162 -0.5566
 9155TIP3    H148956   5.088   3.843  13.289 -1.3306 -0.2030 -0.7932
 9155TIP3    H248957   5.087   3.913  13.156  0.4211  1.7134  0.1429
 9156TIP3   OH248958   0.032   1.455   0.760 -1.0301 -0.0491  0.4962
 9156TIP3    H148959  -0.055   1.429   0.789 -0.0038 -1.7392  2.3508
 9156TIP3    H248960   0.065   1.512   0.830  0.4734 -2.0060  1.5144
 9157TIP3   OH248961   1.431   4.542  14.371  0.2956 -0.1613  0.2753
 9157TIP3    H148962   1.397   4.583  14.291  0.7126 -1.4864 -0.6102
 9157TIP3    H248963   1.356   4.492  14.405 -0.5958  2.1802  2.0321
 9158TIP3   OH248964   2.524   3.306  13.820 -0.4849  0.0251  0.1540
 9158TIP3    H148965   2.591   3.324  13.755  1.6970 -1.1526  1.9457
 9158TIP3    H248966   2.526   3.382  13.878  1.5531 -1.2876  1.9330
 9159TIP3   OH248967   2.259   3.927   1.660 -0.0106  0.5535  0.8098
 9159TIP3    H148968   2.265   3.831   1.659 -1.2738  0.4457  1.2380
 9159TIP3    H248969   2.198   3.948   1.590  0.3975  1.0700  0.6005
 9160TIP3   OH248970   6.050   1.837  14.261  0.2587 -0.7088  0.2389
 9160TIP3    H148971   5.984   1.906  14.272  0.6140  0.1131 -2.3195
 9160TIP3    H248972   6.058   1.825  14.167 -0.0837 -4.6121  0.5530
 9161TIP3   OH248973   3.501   4.188  14.224  0.0472  0.2429 -0.0935
 9161TIP3    H148974   3.466   4.261  14.275  0.4590 -0.6168  1.4865
 9161TIP3    H248975   3.587   4.218  14.196 -0.0846  0.6426 -0.0695
 9162TIP3   OH248976   6.789   2.617   4.885  0.4300  0.1637  0.3623
 9162TIP3    H148977   6.871   2.569   4.874  0.4791  0.3655 -0.1728
 9162TIP3    H248978   6.777   2.663   4.802  0.0399  0.5442  0.6273
 9163TIP3   OH248979   3.035   3.080   2.697  0.2489  0.5717  0.0665
 9163TIP3    H148980   2.943   3.070   2.670  0.9316 -1.9005 -1.6253
 9163TIP3    H248981   3.037   3.046   2.786 -0.0159 -2.5331 -0.9737
 9164TIP3   OH248982   6.038   6.198   0.503  0.4877 -0.0802 -0.6540
 9164TIP3    H148983   6.054   6.150   0.585  0.3921 -0.0280 -0.6051
 9164TIP3    H248984   6.030   6.289   0.530 -3.1835 -0.3908 -0.2018
 9165TIP3   OH248985   2.172   2.500   3.001  0.3312  0.1679  0.2904
 9165TIP3    H148986   2.132   2.587   3.008 -0.0868 -0.1111  1.6439
 9165TIP3    H248987   2.135   2.450   3.074  0.7932 -1.0640 -0.2805
 9166TIP3   OH248988   6.038   0.784   0.563  0.4159 -0.2224 -0.5739
 9166TIP3    H148989   6.094   0.712   0.534  1.3425  0.8707 -1.5810
 9166TIP3    H248990   6.073   0.861   0.519 -0.8220  0.7869  0.1446
 9167TIP3   OH248991   0.972   3.246  13.193  0.2251  0.1659  0.3866
 9167TIP3    H148992   0.916   3.182  13.237  0.9688 -0.1967  0.8121
 9167TIP3    H248993   0.913   3.290  13.131  0.0860 -2.2735 -1.3677
 9168TIP3   OH248994   3.856   6.263  15.711 -0.4780  0.2584  0.2799
 9168TIP3    H148995   3.897   6.342  15.673  0.8606 -0.7330 -0.4193
 9168TIP3    H248996   3.920   6.232  15.774  0.2588 -1.7255 -1.3341
 9169TIP3   OH248997   6.643   1.154  11.391  0.2066  0.0535  0.3113
 9169TIP3    H148998   6.671   1.198  11.471  0.1641  0.2051  0.2443
 9169TIP3    H248999   6.574   1.094  11.419  1.4969 -1.3136  0.6977
 9170TIP3   OH249000   2.780   0.645   0.119 -0.0024  0.2855  0.2793
 9170TIP3    H149001   2.854   0.639   0.057  1.8396  2.2644  2.1207
 9170TIP3    H249002   2.733   0.724   0.092  0.1112  0.4954  0.6961
 9171TIP3   OH249003   4.950   3.254   4.585  0.3279 -0.3932  0.4868
 9171TIP3    H149004   4.977   3.169   4.550 -1.4181  0.3180 -3.1401
 9171TIP3    H249005   4.881   3.233   4.647  0.1301 -1.6613 -0.1166
 9172TIP3   OH249006   6.407   3.049   5.196 -0.2182 -0.2267 -0.0572
 9172TIP3    H149007   6.487   3.095   5.169 -0.1301  0.0899  0.7236
 9172TIP3    H249008   6.413   3.044   5.291 -1.3400  0.1973  0.0510
 9173TIP3   OH249009   2.509   0.773   3.506 -0.5115  0.0480 -0.1768
 9173TIP3    H149010   2.482   0.696   3.557 -2.0243  1.0300  0.5739
 9173TIP3    H249011   2.574   0.816   3.562 -0.8469  0.1572  0.1377
 9174TIP3   OH249012   1.601   0.923   0.777 -0.1206  0.3057  0.0372
 9174TIP3    H149013   1.669   0.855   0.782  0.2239  0.5892 -0.6167
 9174TIP3    H249014   1.519   0.874   0.773  0.1423 -0.0933 -0.7270
 9175TIP3   OH249015   4.423   1.714  10.305 -0.1413 -0.3710 -0.3912
 9175TIP3    H149016   4.486   1.778  10.271  4.1919 -2.4687  2.7075
 9175TIP3    H249017   4.386   1.755  10.383  1.4976 -0.9834  0.7479
 9176TIP3   OH249018   6.078   3.812   1.376  0.8228  0.3492 -0.1202
 9176TIP3    H149019   5.986   3.815   1.404 -0.4875  1.7994 -3.8983
 9176TIP3    H249020   6.103   3.904   1.364  3.1089  0.0266  1.5351
 9177TIP3   OH249021   2.999   4.734   5.351  0.3987 -0.5262 -0.5414
 9177TIP3    H149022   2.964   4.645   5.359 -0.3131 -0.1838  0.3047
 9177TIP3    H249023   2.953   4.784   5.417  1.2028  0.3608 -0.6256
 9178TIP3   OH249024   3.318   1.545  10.420  0.2453  0.1195 -0.1672
 9178TIP3    H149025   3.376   1.534  10.495 -0.7009  0.9028  0.7083
 9178TIP3    H249026   3.335   1.468  10.365  1.2725 -0.2391  0.6212
 9179TIP3   OH249027   1.127   3.478   5.700 -0.1141  0.4712  0.1534
 9179TIP3    H149028   1.032   3.480   5.691  0.1026  1.1689 -2.8632
 9179TIP3    H249029   1.154   3.398   5.656  0.6472 -0.7705  2.6971
 9180TIP3   OH249030   5.920   0.363   3.379  0.4734  0.0321  0.0813
 9180TIP3    H149031   5.849   0.422   3.353  0.4991  0.1267  0.2239
 9180TIP3    H249032   5.948   0.322   3.297 -1.3719 -1.8699  0.3340
 9181TIP3   OH249033   5.798   1.510  16.966  0.1260 -0.1975 -0.1889
 9181TIP3    H149034   5.815   1.418  16.945 -0.0515 -0.7017  1.6959
 9181TIP3    H249035   5.868   1.558  16.922  0.2120 -1.2269 -1.2227
 9182TIP3   OH249036   5.690   5.980   2.049  0.0427  0.3963 -0.3964
 9182TIP3    H149037   5.724   5.909   1.995  0.7956  0.6512 -0.2661
 9182TIP3    H249038   5.596   5.961   2.057 -0.0029  0.1325 -1.4412
 9183TIP3   OH249039   0.337   3.089   4.858  0.3348  0.0182  0.5260
 9183TIP3    H149040   0.319   2.996   4.845  2.2839 -0.2039 -1.0725
 9183TIP3    H249041   0.431   3.092   4.875  0.2783  1.7112  0.6675
 9184TIP3   OH249042   3.060   6.262   5.877  0.5946 -0.3455 -0.0640
 9184TIP3    H149043   2.991   6.286   5.939  2.1819  0.1089  1.6027
 9184TIP3    H249044   3.014   6.254   5.793 -1.3859  0.4563  0.8619
 9185TIP3   OH249045   1.757   5.524   0.737  0.1085  0.4166 -0.4309
 9185TIP3    H149046   1.724   5.457   0.798 -0.2450 -0.8769 -1.9833
 9185TIP3    H249047   1.837   5.556   0.778 -0.8579  0.6278  1.4027
 9186TIP3   OH249048   1.950   6.226  16.198  0.2584  0.1181 -0.2633
 9186TIP3    H149049   2.010   6.161  16.160  1.8545  0.9875  0.6430
 9186TIP3    H249050   1.924   6.280  16.124 -0.1626 -0.8249 -0.8268
 9187TIP3   OH249051   2.034   6.292   5.594 -0.1685 -0.0052 -0.3375
 9187TIP3    H149052   1.954   6.344   5.591  0.3339  0.7655 -2.6468
 9187TIP3    H249053   2.065   6.290   5.503  2.7716  0.2707  0.5558
 9188TIP3   OH249054   4.533   1.377   4.406  0.0465 -0.0640 -0.3217
 9188TIP3    H149055   4.605   1.373   4.468  0.5306 -0.1404 -0.8854
 9188TIP3    H249056   4.477   1.447   4.439 -1.0617 -1.7588  1.6491
 9189TIP3   OH249057   0.673   2.616  12.224 -0.2734  0.2634  0.6896
 9189TIP3    H149058   0.634   2.629  12.138  0.3149 -0.8138  0.2501
 9189TIP3    H249059   0.700   2.524  12.225 -0.8162  0.0873  2.2383
 9190TIP3   OH249060   0.821   6.727  15.685 -0.2202  0.2471  0.0461
 9190TIP3    H149061   0.811   6.777  15.767 -2.1674  1.7474 -1.0182
 9190TIP3    H249062   0.732   6.697  15.665  0.0835  0.5348 -1.8699
 9191TIP3   OH249063   6.273   2.160  16.375  0.3936 -0.5933  0.1581
 9191TIP3    H149064   6.289   2.241  16.327  3.4622 -1.1363  0.0705
 9191TIP3    H249065   6.180   2.141  16.360  0.1137  1.7280 -1.5890
 9192TIP3   OH249066   2.357   4.419   0.810 -0.0756  0.0327 -0.6683
 9192TIP3    H149067   2.403   4.460   0.738  0.9459  0.4565  0.1988
 9192TIP3    H249068   2.312   4.344   0.771 -0.8569  1.1590 -2.0233
 9193TIP3   OH249069   6.231   5.924  16.901  0.6763  0.4153  0.6097
 9193TIP3    H149070   6.203   5.959  16.816  1.9767 -0.2228 -0.1109
 9193TIP3    H249071   6.166   5.956  16.963 -0.0488  1.2696 -0.5601
 9194TIP3   OH249072   5.490   3.335  15.249  0.1889  0.1343  0.1739
 9194TIP3    H149073   5.495   3.264  15.313 -0.8289 -0.2891 -0.2055
 9194TIP3    H249074   5.576   3.334  15.206  1.4818  1.4229  2.5195
 9195TIP3   OH249075   5.174   4.033   5.346 -0.8221  0.4695  0.6150
 9195TIP3    H149076   5.083   4.041   5.375 -1.6308 -0.8224 -1.3519
 9195TIP3    H249077   5.197   3.941   5.363 -0.6477  0.2171 -0.8427
 9196TIP3   OH249078   0.042   0.029  16.493  0.5616 -0.2032  0.3432
 9196TIP3    H149079   0.126  -0.010  16.466  0.2526 -0.1465 -0.7479
 9196TIP3    H249080   0.066   0.116  16.525  1.1549 -0.9379  2.0339
 9197TIP3   OH249081   0.712   1.485   0.886 -0.7332 -0.6015 -0.5897
 9197TIP3    H149082   0.802   1.474   0.855 -0.5243  0.1388 -0.2641
 9197TIP3    H249083   0.699   1.413   0.948  0.7858  1.1299  1.9291
 9198TIP3   OH249084   3.615   6.271  14.239  0.3499 -0.7037  0.3477
 9198TIP3    H149085   3.547   6.203  14.232 -1.2919  1.0124 -2.6267
 9198TIP3    H249086   3.697   6.222  14.246 -0.9274 -2.9338  0.8677
 9199TIP3   OH249087   2.749   4.298   2.427  0.2068 -0.4681 -0.4798
 9199TIP3    H149088   2.736   4.393   2.433  0.9626 -0.3678 -0.2557
 9199TIP3    H249089   2.845   4.287   2.429  0.1341 -1.2148 -0.8271
 9200TIP3   OH249090   3.683   5.139   5.950 -0.2237 -0.0467  0.3424
 9200TIP3    H149091   3.773   5.156   5.976 -0.1227 -0.3920  0.2099
 9200TIP3    H249092   3.656   5.063   6.002 -0.1319 -0.5255 -0.3034
 9201TIP3   OH249093   1.009   2.213   2.226  0.2355  0.2514  0.2281
 9201TIP3    H149094   1.044   2.291   2.270 -0.7042  0.8679 -0.0910
 9201TIP3    H249095   0.968   2.162   2.296 -0.5113  0.8130  0.2075
 9202TIP3   OH249096   4.247   0.199  16.713 -0.3228 -0.5202  0.6467
 9202TIP3    H149097   4.167   0.221  16.761 -0.6870 -0.0811 -0.1402
 9202TIP3    H249098   4.272   0.113  16.747  0.0718  0.2491  2.4210
 9203TIP3   OH249099   4.800   3.818  16.179  0.1687  0.0042  0.0755
 9203TIP3    H149100   4.758   3.790  16.097 -0.0943 -1.0987  0.5732
 9203TIP3    H249101   4.765   3.759  16.246  0.8434  0.4970  0.8860
 9204TIP3   OH249102   0.431   5.163  14.031  0.5903  0.2471  0.4452
 9204TIP3    H149103   0.464   5.169  13.941 -1.2450 -0.6486 -0.3471
 9204TIP3    H249104   0.503   5.123  14.080  1.2012 -0.3894 -0.9074
 9205TIP3   OH249105   3.126   0.260  14.929 -0.5124 -0.2150  0.4345
 9205TIP3    H149106   3.077   0.342  14.935 -0.0223  0.5900 -3.7347
 9205TIP3    H249107   3.218   0.286  14.927 -0.3473 -0.7978 -0.7561
 9206TIP3   OH249108   5.425   2.614  13.840  0.3179  0.0544 -0.0586
 9206TIP3    H149109   5.402   2.627  13.748  1.2838 -0.4242 -0.3751
 9206TIP3    H249110   5.513   2.651  13.848  0.6308 -0.7970  0.4448
 9207TIP3   OH249111   3.534   6.638  15.354 -0.1874  0.7971 -0.8670
 9207TIP3    H149112   3.458   6.619  15.299  0.9538 -0.9564 -1.9596
 9207TIP3    H249113   3.518   6.590  15.435 -0.3988  0.7153 -0.9553
 9208TIP3   OH249114   4.884   3.729   3.530 -0.5902 -0.1056  0.0607
 9208TIP3    H149115   4.908   3.749   3.440 -0.6652 -0.1959  0.0199
 9208TIP3    H249116   4.828   3.802   3.557 -0.1656  0.1698  0.2004
 9209TIP3   OH249117   3.574   1.211  17.193  0.1042 -0.0902  0.1126
 9209TIP3    H149118   3.545   1.301  17.209 -0.0106  0.1049 -1.0694
 9209TIP3    H249119   3.610   1.181  17.276 -0.8595  0.6729  0.8242
 9210TIP3   OH249120   5.194   1.450  12.728  0.4978 -0.2299  0.2942
 9210TIP3    H149121   5.232   1.481  12.811 -0.6819 -0.1100  0.8033
 9210TIP3    H249122   5.114   1.501  12.718  0.6333 -0.2391 -0.9433
 9211TIP3   OH249123   2.448   6.000  15.314 -0.2392 -0.6337 -0.1415
 9211TIP3    H149124   2.446   5.936  15.386  0.1589 -0.8462 -0.3193
 9211TIP3    H249125   2.496   5.956  15.244  0.3542 -0.0047 -0.1380
 9212TIP3   OH249126   5.421   3.469   3.931  0.1167  0.1035 -0.1456
 9212TIP3    H149127   5.401   3.439   3.842  0.3522 -0.7795  0.0894
 9212TIP3    H249128   5.351   3.530   3.953  0.4355  0.8894 -1.2025
 9213TIP3   OH249129   6.709   5.518   4.655 -0.0328 -0.1315 -0.7297
 9213TIP3    H149130   6.713   5.428   4.623  2.5159 -1.7629  3.4241
 9213TIP3    H249131   6.632   5.520   4.711  1.3755 -0.7053  1.3386
 9214TIP3   OH249132   3.002   0.549  14.656  0.2282 -0.0682  0.1700
 9214TIP3    H149133   2.927   0.495  14.630  0.3828  0.5313 -1.7064
 9214TIP3    H249134   3.002   0.547  14.751 -0.7749 -1.9773  0.1702
 9215TIP3   OH249135   1.975   6.657   5.171 -0.5343  0.3045  0.0224
 9215TIP3    H149136   2.047   6.720   5.172 -0.9249  0.7541  0.4851
 9215TIP3    H249137   1.929   6.674   5.089  0.8712 -1.1403 -1.1234
 9216TIP3   OH249138   4.282   1.733   5.390 -0.2994  0.5489 -0.0027
 9216TIP3    H149139   4.322   1.655   5.429 -0.7514  0.5065  0.3947
 9216TIP3    H249140   4.297   1.723   5.296  1.4194  0.9983  0.1984
 9217TIP3   OH249141   6.752   5.211   3.781 -0.2254  0.2957 -0.0613
 9217TIP3    H149142   6.794   5.266   3.715  2.7005 -0.9289  0.6271
 9217TIP3    H249143   6.762   5.122   3.749  0.6063 -0.2720  1.6387
 9218TIP3   OH249144   6.182   5.123  15.800 -0.0560 -0.0026  0.0466
 9218TIP3    H149145   6.272   5.092  15.813 -0.1568 -0.3130  0.0031
 9218TIP3    H249146   6.191   5.218  15.791  0.1644  0.0696  0.9777
 9219TIP3   OH249147   0.884   2.144  14.080  0.1865 -0.4236 -0.2925
 9219TIP3    H149148   0.958   2.178  14.029 -1.0623  1.3851 -0.9747
 9219TIP3    H249149   0.883   2.197  14.160 -0.1573 -0.7197 -0.0959
 9220TIP3   OH249150   3.522   0.927   3.628 -0.1901  0.4257  0.2882
 9220TIP3    H149151   3.523   1.021   3.611 -0.2488  0.4809  0.5943
 9220TIP3    H249152   3.431   0.901   3.615 -0.5001  0.6935  1.7373
 9221TIP3   OH249153   6.509   0.482  14.140 -0.2061  0.4711 -0.0645
 9221TIP3    H149154   6.518   0.388  14.155  0.4587  0.7537  1.4797
 9221TIP3    H249155   6.451   0.513  14.210 -0.8133  1.1409 -0.8402
 9222TIP3   OH249156   0.615   1.677   0.212 -0.6666  0.2274  0.3995
 9222TIP3    H149157   0.538   1.724   0.180  0.6865  2.2261 -0.0902
 9222TIP3    H249158   0.672   1.745   0.247  2.0935 -0.7897 -1.7418
 9223TIP3   OH249159   0.433   5.918  11.408  0.5507 -0.3488  0.5370
 9223TIP3    H149160   0.416   5.975  11.333  2.5250 -0.0122  0.2687
 9223TIP3    H249161   0.483   5.845  11.372 -1.9623 -2.3504  0.8869
 9224TIP3   OH249162   4.071   6.194   4.616 -0.2312  0.0974  0.1927
 9224TIP3    H149163   4.054   6.287   4.604 -1.5518  0.4041  3.4609
 9224TIP3    H249164   4.008   6.150   4.558 -0.1959  1.1950 -0.7187
 9225TIP3   OH249165   5.931   2.095  11.878  0.1700  0.3129 -0.0777
 9225TIP3    H149166   5.857   2.126  11.826  0.1096  0.4753  0.1071
 9225TIP3    H249167   5.997   2.163  11.867 -0.5425  1.3372  1.6580
 9226TIP3   OH249168   2.992   2.173   0.227 -0.1546  0.0424 -0.1426
 9226TIP3    H149169   3.037   2.110   0.284 -1.1095 -1.1407 -0.6514
 9226TIP3    H249170   2.959   2.241   0.287  1.1067  0.2080  0.3829
 9227TIP3   OH249171   5.348   2.962  16.980  0.3985  0.4514  0.5733
 9227TIP3    H149172   5.422   2.914  16.944  0.3992  1.0190 -0.2072
 9227TIP3    H249173   5.295   2.895  17.024  1.9286  0.2039  2.1327
 9228TIP3   OH249174   3.571   3.673   3.238 -0.0171 -0.1745 -0.2537
 9228TIP3    H149175   3.585   3.766   3.256 -0.4255  0.0418 -0.9925
 9228TIP3    H249176   3.645   3.629   3.280  0.2113  0.4893  0.0562
 9229TIP3   OH249177   4.958   0.026   6.143  0.1536 -0.2927 -0.7319
 9229TIP3    H149178   4.934  -0.039   6.077 -1.8946 -0.8125  0.4202
 9229TIP3    H249179   4.906   0.103   6.120  1.5529  0.5177 -1.3081
 9230TIP3   OH249180   1.263   0.395  16.209 -0.1625 -0.5391  0.6488
 9230TIP3    H149181   1.204   0.377  16.283  3.4127 -1.2030  3.6918
 9230TIP3    H249182   1.325   0.459  16.244  0.2036  1.1918 -2.8019
 9231TIP3   OH249183   4.245   1.641  14.512  0.4305  0.4777 -0.0000
 9231TIP3    H149184   4.228   1.618  14.603  0.2166 -1.1914 -0.4307
 9231TIP3    H249185   4.331   1.682  14.512 -0.1850  1.8477  1.1365
 9232TIP3   OH249186   1.449   2.236   1.257 -0.5794 -0.0450 -0.3122
 9232TIP3    H149187   1.455   2.262   1.165 -0.0899 -0.1933 -0.3252
 9232TIP3    H249188   1.527   2.274   1.297 -1.0139  0.3823  0.1359
 9233TIP3   OH249189   6.740   0.995  15.898 -0.2861  0.1755 -0.4285
 9233TIP3    H149190   6.699   0.975  15.815 -0.5533  0.5582 -0.3882
 9233TIP3    H249191   6.705   1.081  15.923  0.9345  0.7560 -0.6559
 9234TIP3   OH249192   3.452   1.502  16.019  0.6876 -0.3658  0.2835
 9234TIP3    H149193   3.542   1.535  16.022  0.4081  0.6604 -1.3852
 9234TIP3    H249194   3.397   1.578  16.038  0.1397 -1.5638  4.3301
 9235TIP3   OH249195   1.079   0.369   1.892  0.1966  0.3967 -0.7036
 9235TIP3    H149196   1.105   0.422   1.817  0.7209  3.1547  1.2800
 9235TIP3    H249197   0.999   0.411   1.924 -0.2409 -0.9604  0.0742
 9236TIP3   OH249198   0.231   2.978  12.049  0.5741 -0.1913 -0.1332
 9236TIP3    H149199   0.290   3.037  12.095 -1.5684  2.7806 -0.9144
 9236TIP3    H249200   0.162   3.035  12.014 -1.9518 -3.2238 -0.5652
 9237TIP3   OH249201   2.670   1.045  14.412  0.3729  0.0191 -0.3202
 9237TIP3    H149202   2.727   1.055  14.489 -0.6571 -0.9234  0.5930
 9237TIP3    H249203   2.724   0.997  14.349  1.9675  2.5390 -1.0638
 9238TIP3   OH249204   3.836   4.597  14.090  0.5082 -0.9571  0.7318
 9238TIP3    H149205   3.886   4.673  14.118 -1.1077  0.8104 -0.9220
 9238TIP3    H249206   3.878   4.567  14.010 -0.5622  0.0990 -0.2698
 9239TIP3   OH249207   1.614   3.244  12.886 -0.0671  0.2825 -0.3278
 9239TIP3    H149208   1.596   3.337  12.890 -0.0438  0.2907 -0.4096
 9239TIP3    H249209   1.583   3.209  12.970 -2.7286 -0.1203 -1.3790
 9240TIP3   OH249210   0.703   4.542  15.712  0.6696  0.2319 -0.0777
 9240TIP3    H149211   0.693   4.635  15.693  1.0729  0.1414 -0.7454
 9240TIP3    H249212   0.782   4.537  15.765 -0.6934  0.5352  2.1089
 9241TIP3   OH249213   0.550   4.852   3.669  0.8302  0.1360 -0.6418
 9241TIP3    H149214   0.507   4.861   3.584  1.0446 -0.9979 -0.8871
 9241TIP3    H249215   0.483   4.877   3.733  0.9091  1.7722 -1.1452
 9242TIP3   OH249216   5.144   5.850  10.752 -0.2932 -0.0595 -0.4961
 9242TIP3    H149217   5.171   5.912  10.818 -1.4750 -0.3509  0.2997
 9242TIP3    H249218   5.131   5.902  10.673 -0.4026  0.5521 -0.0770
 9243TIP3   OH249219   3.219   1.540   3.985 -0.2203  0.1594 -0.0971
 9243TIP3    H149220   3.251   1.513   3.899 -1.6965  0.2790 -0.7235
 9243TIP3    H249221   3.263   1.623   4.003  1.2083 -0.5934 -0.0595
 9244TIP3   OH249222   1.259   5.938   1.711  0.1871  0.0059 -0.4568
 9244TIP3    H149223   1.266   5.851   1.672 -0.2221 -0.5880  0.7532
 9244TIP3    H249224   1.311   5.933   1.791 -1.2669  0.3085  0.5541
 9245TIP3   OH249225   0.270   4.517   3.239  0.4387  0.3477  0.6212
 9245TIP3    H149226   0.256   4.444   3.179  0.7503 -1.4228  2.6120
 9245TIP3    H249227   0.353   4.556   3.210 -0.4793  0.9337 -1.3864
 9246TIP3   OH249228   6.672   0.399  16.629 -0.6321 -0.5662 -0.9686
 9246TIP3    H149229   6.755   0.353  16.616  0.1215  0.5796 -0.3922
 9246TIP3    H249230   6.638   0.364  16.711  0.4253  0.5148 -0.0066
 9247TIP3   OH249231   5.531   0.452  17.137  0.3337 -0.3551  0.0625
 9247TIP3    H149232   5.535   0.494  17.223 -0.6089  1.7204 -0.8489
 9247TIP3    H249233   5.588   0.506  17.081  0.2323 -1.1509 -0.8304
 9248TIP3   OH249234   4.836   5.423   3.973 -0.7002  0.6401  0.0049
 9248TIP3    H149235   4.920   5.468   3.964 -0.7137  0.2648 -2.7495
 9248TIP3    H249236   4.770   5.491   3.963 -0.7106  0.5707 -0.4240
 9249TIP3   OH249237   0.932   0.717  12.620  0.3606 -0.0518  0.1593
 9249TIP3    H149238   0.954   0.699  12.711  0.3183  0.6393  0.3137
 9249TIP3    H249239   0.921   0.630  12.580  0.6467 -0.3621  0.7399
 9250TIP3   OH249240   6.236   1.797   4.901 -0.0316 -0.4870  0.3795
 9250TIP3    H149241   6.204   1.877   4.941 -1.8694 -1.4543  0.9456
 9250TIP3    H249242   6.185   1.727   4.943  0.1035 -1.7816 -1.5012
 9251TIP3   OH249243   3.269   5.350   5.106 -0.2100  0.0066  0.9049
 9251TIP3    H149244   3.332   5.377   5.173  0.2284  1.0079  0.1309
 9251TIP3    H249245   3.209   5.424   5.099 -1.7935 -1.1283  1.9642
 9252TIP3   OH249246   4.484   0.958   5.138  0.6144 -0.3107  0.3387
 9252TIP3    H149247   4.426   0.912   5.077  2.0693  1.0279 -2.2436
 9252TIP3    H249248   4.515   0.891   5.198 -1.2866 -1.6124 -0.0734
 9253TIP3   OH249249   1.334   3.066  11.317 -0.4514 -0.1965 -0.0798
 9253TIP3    H149250   1.389   3.145  11.312 -1.1986  0.4796  1.5355
 9253TIP3    H249251   1.246   3.099  11.337 -0.7754 -1.4227  0.6585
 9254TIP3   OH249252   6.067   1.631   6.843 -0.2951 -0.7535  0.0806
 9254TIP3    H149253   5.986   1.580   6.841 -0.6084 -0.3425 -3.2907
 9254TIP3    H249254   6.054   1.699   6.777  2.3194  0.1390  0.3738
 9255TIP3   OH249255   2.100   1.647  11.010  0.4371  0.3168 -0.3570
 9255TIP3    H149256   2.098   1.584  11.083  0.3312 -2.4822 -2.6055
 9255TIP3    H249257   2.188   1.686  11.015  0.9542 -0.8723  0.4446
 9256TIP3   OH249258   0.735   4.350   3.722 -0.2500 -0.0071 -0.0548
 9256TIP3    H149259   0.740   4.278   3.785 -0.1785  0.5529  0.5962
 9256TIP3    H249260   0.787   4.321   3.647  0.4650 -0.2974  0.5443
 9257TIP3   OH249261   3.223   3.029   0.823  0.6826  0.2453  0.2273
 9257TIP3    H149262   3.230   3.124   0.830  0.3192  0.3603 -0.7906
 9257TIP3    H249263   3.295   2.995   0.875  2.2968  1.1249 -1.3333
 9258TIP3   OH249264   5.595   3.325  11.969  0.0189  0.4896  0.1426
 9258TIP3    H149265   5.645   3.331  11.887  0.4172  0.0804  0.3539
 9258TIP3    H249266   5.559   3.413  11.981 -3.1325 -0.2511 -2.3829
 9259TIP3   OH249267   0.080   5.121  12.618  0.5252  0.0729 -0.5194
 9259TIP3    H149268   0.077   5.126  12.713 -0.6057  0.9456 -0.5745
 9259TIP3    H249269   0.069   5.212  12.589 -0.3035 -0.3191 -1.4826
 9260TIP3   OH249270   1.276   1.165  15.355  0.3395 -0.5204  0.2818
 9260TIP3    H149271   1.189   1.126  15.351  0.0252  0.1717  0.2868
 9260TIP3    H249272   1.261   1.259  15.342  1.4056 -0.7202 -3.3619
 9261TIP3   OH249273   2.282   2.362   2.777 -0.5883  0.1727 -0.1599
 9261TIP3    H149274   2.264   2.422   2.849  0.3957  1.2623 -0.7983
 9261TIP3    H249275   2.318   2.284   2.820 -0.3455  0.6725  0.5654
 9262TIP3   OH249276   5.434   3.346   5.220 -0.2755  0.0912 -0.1018
 9262TIP3    H149277   5.425   3.420   5.160 -0.6703  0.5334  0.4975
 9262TIP3    H249278   5.526   3.349   5.248 -0.3940  0.6022  0.2365
 9263TIP3   OH249279   6.237   3.792   3.329 -0.3028  0.2676 -0.2121
 9263TIP3    H149280   6.154   3.809   3.373  0.4914  0.3790  1.3251
 9263TIP3    H249281   6.272   3.878   3.308 -0.7523  0.2124 -1.2638
 9264TIP3   OH249282   2.507   3.467   3.266  0.0444 -0.0453 -0.0546
 9264TIP3    H149283   2.553   3.495   3.345  0.3361 -1.0301  0.1450
 9264TIP3    H249284   2.539   3.525   3.197  1.6113 -0.7071  0.0814
 9265TIP3   OH249285   2.978   1.653   4.182 -0.4181 -0.0940 -0.0413
 9265TIP3    H149286   3.035   1.656   4.259 -1.2117 -1.6162  0.6555
 9265TIP3    H249287   2.904   1.598   4.209 -0.1872 -1.6152 -2.2048
 9266TIP3   OH249288   6.327   6.737  14.767 -0.1668 -0.1297  0.2267
 9266TIP3    H149289   6.342   6.828  14.742 -0.3659  0.1351  1.0275
 9266TIP3    H249290   6.268   6.703  14.700  0.4125  0.1426 -0.4302
 9267TIP3   OH249291   6.688   6.519  14.850 -0.3450  0.4746  0.4235
 9267TIP3    H149292   6.697   6.513  14.945 -1.5303 -2.5687  0.4467
 9267TIP3    H249293   6.601   6.484  14.832  0.3823 -0.3425 -1.8726
 9268TIP3   OH249294   0.083   1.665   4.041 -0.3115  0.3773  0.3062
 9268TIP3    H149295   0.177   1.656   4.026 -0.0249  0.8024  1.6963
 9268TIP3    H249296   0.066   1.611   4.119 -1.2081  0.3694  0.1185
 9269TIP3   OH249297   0.303   1.789   5.858 -0.2541 -0.4177 -0.3285
 9269TIP3    H149298   0.268   1.844   5.787  0.2794  0.6486  0.2185
 9269TIP3    H249299   0.303   1.847   5.935 -0.3937 -1.4231  0.4421
 9270TIP3   OH249300   6.349   4.655  13.753  0.4932  0.4800  0.3633
 9270TIP3    H149301   6.299   4.593  13.700 -0.5435  0.6606  1.1027
 9270TIP3    H249302   6.418   4.687  13.694  1.6915 -2.0886  0.2371
 9271TIP3   OH249303   2.725   5.337  14.745 -0.2060  0.4563 -0.3209
 9271TIP3    H149304   2.697   5.320  14.835  0.0434  0.6033 -0.2138
 9271TIP3    H249305   2.752   5.429  14.746 -4.2207  1.8978 -1.5305
 9272TIP3   OH249306   0.393   1.645  11.547  0.3943 -0.1058  0.2056
 9272TIP3    H149307   0.486   1.623  11.549  0.2597 -0.6338  0.8953
 9272TIP3    H249308   0.392   1.741  11.540  1.0038  0.0200  1.5413
 9273TIP3   OH249309   4.385   2.907  16.517  0.0345  0.7055 -0.4530
 9273TIP3    H149310   4.404   2.954  16.598  0.5940 -0.2317 -0.0281
 9273TIP3    H249311   4.290   2.901  16.514  0.0420 -0.1138  0.6399
 9274TIP3   OH249312   3.413   1.917   5.166 -0.2923 -0.2099 -0.0142
 9274TIP3    H149313   3.425   1.841   5.109 -0.8949  0.2563 -0.7908
 9274TIP3    H249314   3.338   1.963   5.129 -0.3545  0.4092  0.8402
 9275TIP3   OH249315   1.626   1.755  14.197  0.2549  0.7295  0.1256
 9275TIP3    H149316   1.604   1.847  14.212  0.3381  0.4053  2.6312
 9275TIP3    H249317   1.708   1.758  14.149 -1.2012  1.9158 -2.5217
 9276TIP3   OH249318   3.742   6.688   2.073  0.6113 -0.5610 -0.5141
 9276TIP3    H149319   3.764   6.764   2.128  0.2011 -0.7838 -0.0356
 9276TIP3    H249320   3.778   6.613   2.120  2.1159 -0.5671 -1.5989
 9277TIP3   OH249321   1.531   4.301   0.934 -0.0645 -0.0078 -0.3859
 9277TIP3    H149322   1.481   4.249   0.871  2.1429 -2.2813 -0.4003
 9277TIP3    H249323   1.614   4.319   0.891  0.7877  0.0044  1.1914
 9278TIP3   OH249324   0.968   3.546  10.289  0.2471 -0.0409  0.0776
 9278TIP3    H149325   0.985   3.637  10.263  0.0861 -0.0562 -0.0821
 9278TIP3    H249326   1.049   3.500  10.266 -0.0514 -0.1378 -0.8012
 9279TIP3   OH249327   4.154   0.862   3.807 -0.0504 -0.0088 -0.4412
 9279TIP3    H149328   4.145   0.903   3.722  0.0246  0.7146 -0.1070
 9279TIP3    H249329   4.196   0.929   3.862  0.2426 -0.5914  0.0623
 9280TIP3   OH249330   1.066   0.978   4.540 -0.3428 -0.6030 -0.3290
 9280TIP3    H149331   1.132   0.989   4.472  0.6242 -0.3938  0.6137
 9280TIP3    H249332   1.017   1.060   4.539 -0.8240 -0.8826 -1.2513
 9281TIP3   OH249333   3.593   3.175   0.284 -0.3022  0.1046 -0.1603
 9281TIP3    H149334   3.509   3.152   0.246  0.7194 -1.0652 -1.8699
 9281TIP3    H249335   3.582   3.160   0.378 -1.8139 -0.5828 -0.4185
 9282TIP3   OH249336   4.106   1.904  12.310  0.4869 -0.4738 -0.2091
 9282TIP3    H149337   4.168   1.965  12.351  0.5010  0.2852 -1.2939
 9282TIP3    H249338   4.162   1.846  12.257  0.2801  0.6925 -1.8012
 9283TIP3   OH249339   3.057   2.263  17.195  0.1823 -0.1718  0.7170
 9283TIP3    H149340   3.114   2.209  17.140 -0.3840 -0.5733  0.5103
 9283TIP3    H249341   3.031   2.206  17.267 -1.8555 -0.8178 -0.4343
 9284TIP3   OH249342   1.329   1.015  12.269 -0.1563 -0.3810  0.1033
 9284TIP3    H149343   1.367   0.957  12.335  1.2100 -0.2941 -0.5846
 9284TIP3    H249344   1.385   1.006  12.193  0.5090  2.3255  0.1615
 9285TIP3   OH249345   2.212   3.238  12.285  0.0574 -0.5760 -0.2111
 9285TIP3    H149346   2.199   3.329  12.311  0.5757  0.0619 -2.0153
 9285TIP3    H249347   2.307   3.230  12.272  0.0103 -1.3477 -0.1373
 9286TIP3   OH249348   4.232   0.713  16.492 -0.1804 -0.0755  0.1177
 9286TIP3    H149349   4.166   0.782  16.493 -2.1195 -1.8117  1.6911
 9286TIP3    H249350   4.314   0.758  16.514 -0.6019  2.2477 -2.4965
 9287TIP3   OH249351   6.483   4.707  16.827 -0.3628  0.3938 -0.1727
 9287TIP3    H149352   6.567   4.675  16.795  0.3040  1.3445  0.5638
 9287TIP3    H249353   6.452   4.638  16.886  1.2559  1.1942  1.7382
 9288TIP3   OH249354   4.569   1.395  14.511 -0.5522  0.2520  0.6814
 9288TIP3    H149355   4.561   1.309  14.552 -1.1463  0.8756  1.9263
 9288TIP3    H249356   4.490   1.442  14.538 -1.9957  0.1229 -2.7096
 9289TIP3   OH249357   4.493   1.429  15.369 -1.2923 -0.7909  0.1727
 9289TIP3    H149358   4.441   1.504  15.397  3.0605  2.2798  1.1113
 9289TIP3    H249359   4.527   1.392  15.451  1.8664  0.5961 -0.3568
 9290TIP3   OH249360   6.279   6.190   1.349  0.3863 -0.3332  0.0348
 9290TIP3    H149361   6.337   6.250   1.301  1.2970 -1.2341 -0.0331
 9290TIP3    H249362   6.339   6.133   1.397 -0.4217 -1.6805 -0.5022
 9291TIP3   OH249363   1.950   4.406   5.211 -0.1373  0.0383 -0.2036
 9291TIP3    H149364   2.029   4.373   5.168 -0.1061  0.1763 -0.2504
 9291TIP3    H249365   1.911   4.328   5.252  0.8598  0.2127  1.1657
 9292TIP3   OH249366   2.192   3.843   0.044  0.5606  0.0718 -0.6111
 9292TIP3    H149367   2.164   3.812  -0.043 -0.3924  0.0391 -0.3037
 9292TIP3    H249368   2.196   3.938   0.036  0.4402  0.0708 -0.6898
 9293TIP3   OH249369   5.564   4.114   2.650 -0.0115 -0.6013 -0.1352
 9293TIP3    H149370   5.641   4.058   2.658 -0.0291 -0.6019  0.0331
 9293TIP3    H249371   5.544   4.114   2.556  0.5807 -0.0757 -0.2696
 9294TIP3   OH249372   4.442   6.473   6.286  0.2142 -0.6013  0.3597
 9294TIP3    H149373   4.503   6.542   6.260 -0.6735 -0.1612 -0.6274
 9294TIP3    H249374   4.498   6.402   6.318  1.1228  0.8925  2.2720
 9295TIP3   OH249375   1.563   0.628   1.678 -0.1679  0.2958  0.1937
 9295TIP3    H149376   1.491   0.624   1.741 -0.5278 -0.0136 -0.2345
 9295TIP3    H249377   1.548   0.554   1.620 -1.9762  2.5966 -2.5499
 9296TIP3   OH249378   1.999   5.054  17.073 -0.3818  0.2815 -0.3290
 9296TIP3    H149379   1.951   5.029  17.152 -1.1781 -1.1577 -1.2042
 9296TIP3    H249380   1.944   5.122  17.033 -0.6610  0.0774 -0.2995
 9297TIP3   OH249381   1.468   3.391   0.507  0.3979 -0.8924  0.0081
 9297TIP3    H149382   1.404   3.323   0.486  0.4939 -0.8225 -0.5137
 9297TIP3    H249383   1.442   3.466   0.455  0.6953 -0.7494  0.0615
 9298TIP3   OH249384   1.856   4.762   4.273 -0.5971  0.1451 -0.4414
 9298TIP3    H149385   1.943   4.727   4.288 -1.7774 -3.0953 -0.4136
 9298TIP3    H249386   1.843   4.826   4.343  1.3769 -0.0099  0.1192
 9299TIP3   OH249387   1.602   4.229   4.974  0.0823  0.2181 -0.3000
 9299TIP3    H149388   1.614   4.198   5.064  0.6438  3.3377  0.8169
 9299TIP3    H249389   1.692   4.244   4.942 -0.1695  1.3820 -0.4935
 9300TIP3   OH249390   5.366   4.338   3.438 -0.5905 -0.1542  0.0632
 9300TIP3    H149391   5.450   4.328   3.483  0.0338 -4.0949 -1.5829
 9300TIP3    H249392   5.302   4.297   3.498 -0.7906 -0.0801 -0.0988
 9301TIP3   OH249393   5.938   2.764  13.571 -0.0637 -0.9876  0.0556
 9301TIP3    H149394   5.846   2.769  13.600  0.4594 -1.5764  2.0113
 9301TIP3    H249395   5.981   2.835  13.618  0.5276 -0.8126 -0.7344
 9302TIP3   OH249396   4.975   4.723   1.511 -0.2394 -0.2030  0.4317
 9302TIP3    H149397   4.892   4.769   1.516  0.9309  1.9580  1.3691
 9302TIP3    H249398   4.952   4.633   1.488 -2.6134  0.9081 -1.9761
 9303TIP3   OH249399   4.394   6.113   2.300 -0.1646  0.2001  0.3301
 9303TIP3    H149400   4.473   6.164   2.283  0.4463 -1.1205 -1.0951
 9303TIP3    H249401   4.322   6.173   2.281  0.4770  1.3529  1.4379
 9304TIP3   OH249402   4.514   5.877   0.292 -0.7450  0.1603  0.1327
 9304TIP3    H149403   4.574   5.823   0.343 -1.4101 -2.3769 -1.5925
 9304TIP3    H249404   4.538   5.860   0.201  0.4421  4.5265 -0.6201
 9305TIP3   OH249405   3.337   4.923   4.497  0.2946 -0.4058  0.0429
 9305TIP3    H149406   3.388   4.990   4.542  1.3832 -0.2159 -1.3834
 9305TIP3    H249407   3.271   4.896   4.560  0.4231  1.3430  0.9761
 9306TIP3   OH249408   4.883   3.417   2.682  0.0804  0.2576 -0.2841
 9306TIP3    H149409   4.871   3.376   2.768  0.6641  0.8030  0.0614
 9306TIP3    H249410   4.872   3.511   2.698  0.6435  0.4039 -0.7219
 9307TIP3   OH249411   3.943   5.375   2.494  0.1262  0.1679  0.2313
 9307TIP3    H149412   4.027   5.409   2.463  0.1221 -1.3652 -1.6531
 9307TIP3    H249413   3.882   5.393   2.422 -0.8741  0.0978  1.0427
 9308TIP3   OH249414   2.364   2.364   0.304 -0.1878 -0.0913  0.1512
 9308TIP3    H149415   2.452   2.396   0.325  0.4364 -0.2106 -2.0155
 9308TIP3    H249416   2.380   2.288   0.248 -1.6711 -0.1531 -0.2128
 9309TIP3   OH249417   4.082   5.941   4.180  0.1276 -0.9861  0.4066
 9309TIP3    H149418   4.004   5.946   4.235  1.8508 -0.9593  3.0329
 9309TIP3    H249419   4.110   6.032   4.169  1.0464 -1.1008  1.5240
 9310TIP3   OH249420   3.869   2.829  13.942  0.6511  0.4342  0.6407
 9310TIP3    H149421   3.911   2.796  13.862 -1.7120 -2.4681  0.4255
 9310TIP3    H249422   3.918   2.788  14.013 -0.4502 -1.3336  0.4450
 9311TIP3   OH249423   2.742   6.061  16.625 -0.1311  0.0614  0.0654
 9311TIP3    H149424   2.788   5.978  16.640  0.0181 -0.0388 -0.8973
 9311TIP3    H249425   2.748   6.106  16.709  0.7074 -0.4548  0.3044
 9312TIP3   OH249426   3.303   6.020  13.115 -0.7353 -0.4071 -0.4838
 9312TIP3    H149427   3.247   5.973  13.053 -0.8047 -0.5449 -0.3165
 9312TIP3    H249428   3.242   6.060  13.177 -0.7360  0.6521 -1.1397
 9313TIP3   OH249429   0.444   6.822   4.969  0.1477 -0.2136  0.3057
 9313TIP3    H149430   0.429   6.794   5.059  0.1198 -2.3988 -0.3202
 9313TIP3    H249431   0.374   6.886   4.952  0.1919  0.2860  1.8153
 9314TIP3   OH249432   0.866   1.158   5.763 -0.9692 -0.1337  0.0153
 9314TIP3    H149433   0.828   1.072   5.746 -1.8484  0.1960  0.2442
 9314TIP3    H249434   0.893   1.155   5.855 -0.1209 -0.4781 -0.2350
 9315TIP3   OH249435   3.010   5.582   4.289 -0.3189 -0.7715 -0.5077
 9315TIP3    H149436   2.940   5.517   4.279 -1.3939  0.2899 -0.0881
 9315TIP3    H249437   3.069   5.544   4.354 -0.3991 -1.7474 -0.9788
 9316TIP3   OH249438   2.942   0.570  16.421 -0.0272  0.9635 -0.4374
 9316TIP3    H149439   2.978   0.641  16.369  2.8454 -0.5067 -0.6368
 9316TIP3    H249440   2.997   0.495  16.401 -1.6417 -0.8185  1.3385
 9317TIP3   OH249441   5.018   1.607  13.774  0.3683  0.1807  0.2216
 9317TIP3    H149442   4.991   1.690  13.812  0.5989  0.6428 -0.5868
 9317TIP3    H249443   4.951   1.544  13.802  1.2792  0.1606  2.5426
 9318TIP3   OH249444   4.158   5.813  15.426  0.1647  0.3460  0.0809
 9318TIP3    H149445   4.221   5.743  15.444 -0.5356 -0.5833 -0.9124
 9318TIP3    H249446   4.138   5.804  15.333 -0.5488  1.3646  0.1164
 9319TIP3   OH249447   2.953   6.015   3.222 -0.1875 -1.0058  0.5502
 9319TIP3    H149448   2.886   6.080   3.245  0.5097 -0.5359  1.2989
 9319TIP3    H249449   3.020   6.066   3.175 -0.7776 -1.6441 -1.0719
 9320TIP3   OH249450   6.516   6.396   5.621  0.2273 -0.2903  0.2157
 9320TIP3    H149451   6.587   6.441   5.666  0.6671 -1.8603  1.1750
 9320TIP3    H249452   6.557   6.316   5.587  0.1596  1.1404 -3.7900
 9321TIP3   OH249453   3.263   0.786  14.872 -0.0860 -0.1699 -0.4360
 9321TIP3    H149454   3.323   0.854  14.843 -0.1675  0.4900  0.8807
 9321TIP3    H249455   3.299   0.705  14.834  0.6229  0.4411 -1.1168
 9322TIP3   OH249456   2.469   2.366  16.368 -0.4998 -0.0658  0.2170
 9322TIP3    H149457   2.501   2.362  16.458  1.2162 -0.8178 -0.3781
 9322TIP3    H249458   2.527   2.427  16.323 -1.7041  0.7732 -0.2783
 9323TIP3   OH249459   5.208   3.623  11.964 -0.2682 -0.1146 -0.4358
 9323TIP3    H149460   5.245   3.537  11.946 -1.1834 -0.7975  0.8438
 9323TIP3    H249461   5.260   3.683  11.910  1.3220 -1.2776 -0.2514
 9324TIP3   OH249462   0.179   1.898  14.119  0.6601  0.5276  0.6303
 9324TIP3    H149463   0.250   1.911  14.182  0.9936 -0.5702  0.5068
 9324TIP3    H249464   0.217   1.842  14.051 -0.0897  0.5874  0.1481
 9325TIP3   OH249465   0.928   3.119  15.400  0.5444  0.2264 -0.1038
 9325TIP3    H149466   0.854   3.170  15.433  0.1388 -2.1064  3.1299
 9325TIP3    H249467   0.888   3.046  15.353  0.8566 -0.0104 -0.0056
 9326TIP3   OH249468   1.376   4.000  11.967 -0.4155 -0.1154  0.2840
 9326TIP3    H149469   1.389   4.071  11.905 -0.1622  0.6507  1.1765
 9326TIP3    H249470   1.281   3.989  11.972 -0.4895  0.5562  0.5415
 9327TIP3   OH249471   3.211   1.084   2.622 -0.9024  0.1069  0.0592
 9327TIP3    H149472   3.230   0.990   2.617 -2.9247 -0.3682  0.6414
 9327TIP3    H249473   3.151   1.100   2.549 -1.7518  0.6204  0.8559
 9328TIP3   OH249474   6.269   3.987   1.010  0.3397 -0.0399  0.2857
 9328TIP3    H149475   6.299   3.975   0.920 -0.5747 -2.7767  0.2301
 9328TIP3    H249476   6.283   3.902   1.052  2.4454  1.6056  3.3445
 9329TIP3   OH249477   0.539   1.801  15.637 -0.3543 -0.6840  0.0757
 9329TIP3    H149478   0.560   1.827  15.547  0.2404 -1.0464  0.1017
 9329TIP3    H249479   0.447   1.822  15.647  0.5799  4.2368  1.0851
 9330TIP3   OH249480   1.132   1.202   5.603 -0.5846 -0.0933 -0.3181
 9330TIP3    H149481   1.079   1.122   5.600 -1.4349  0.4631 -0.3149
 9330TIP3    H249482   1.069   1.273   5.606  0.1674  0.5694  0.2982
 9331TIP3   OH249483   1.362   0.965  12.683  0.5048 -0.0368 -0.0654
 9331TIP3    H149484   1.443   1.004  12.650  0.6195 -0.1202  0.1174
 9331TIP3    H249485   1.372   0.871  12.668  0.0264  0.0354 -0.9513
 9332TIP3   OH249486   1.679   0.427  14.426  0.4335 -0.2687 -0.3762
 9332TIP3    H149487   1.762   0.397  14.389  0.8680 -0.1926  0.5028
 9332TIP3    H249488   1.624   0.349  14.429  0.5587 -0.3726 -0.7258
 9333TIP3   OH249489   3.747   6.637  11.185 -0.9454 -0.2188  0.2805
 9333TIP3    H149490   3.783   6.586  11.113 -1.2595  1.5043 -1.1982
 9333TIP3    H249491   3.814   6.703  11.204 -1.6171  0.4915  0.2678
 9334TIP3   OH249492   5.807   0.372  12.021  0.0084  0.2737 -0.1440
 9334TIP3    H149493   5.871   0.313  12.060 -0.6060 -0.0217  0.4294
 9334TIP3    H249494   5.840   0.389  11.933 -1.1469 -3.0450 -1.3468
 9335TIP3   OH249495   5.116   1.909  13.159  0.0392 -0.7626 -0.4450
 9335TIP3    H149496   5.101   1.936  13.249 -0.1489  1.7057 -1.1370
 9335TIP3    H249497   5.156   1.823  13.165 -2.2878 -1.8036  1.9092
 9336TIP3   OH249498   3.819   3.505   6.150 -0.1356  0.3154 -0.2998
 9336TIP3    H149499   3.725   3.522   6.161 -0.0365  1.0295 -0.4927
 9336TIP3    H249500   3.860   3.555   6.220  0.0241 -1.1198  0.6613
 9337TIP3   OH249501   4.339   4.382  12.382 -0.2388 -0.4876  0.6349
 9337TIP3    H149502   4.260   4.331  12.399 -0.2859 -0.1607  1.4299
 9337TIP3    H249503   4.308   4.460  12.336 -0.2399 -0.8852 -0.0438
 9338TIP3   OH249504   2.437   4.358   4.296  0.2980 -0.2447 -0.0682
 9338TIP3    H149505   2.517   4.328   4.339  1.2678  1.6678 -0.4158
 9338TIP3    H249506   2.447   4.330   4.205  0.0587 -0.9399  0.1162
 9339TIP3   OH249507   2.488   6.742  11.515  0.2428  0.1249  0.5079
 9339TIP3    H149508   2.559   6.732  11.578  1.2492  0.4373 -0.5562
 9339TIP3    H249509   2.526   6.720  11.431 -0.6270  1.3083 -0.2371
 9340TIP3   OH249510   5.992   0.955  17.155 -0.2932  0.1465 -0.3316
 9340TIP3    H149511   6.013   0.915  17.240  0.5110  2.2756  0.5284
 9340TIP3    H249512   6.015   0.888  17.091  0.3254 -1.0391  1.0708
 9341TIP3   OH249513   0.222   0.086  16.787  0.1263 -0.3741  0.1270
 9341TIP3    H149514   0.140   0.036  16.780  0.1613 -0.4837  0.4588
 9341TIP3    H249515   0.195   0.172  16.817 -0.0652  0.2240 -1.6732
 9342TIP3   OH249516   3.910   0.816   0.556 -0.1226  0.2095 -0.2298
 9342TIP3    H149517   3.846   0.813   0.627 -0.9301  0.4292 -0.9353
 9342TIP3    H249518   3.988   0.775   0.593 -0.6252  0.0427  0.6829
 9343TIP3   OH249519   3.770   3.857   4.306 -0.5465 -0.2133  0.1073
 9343TIP3    H149520   3.792   3.765   4.316 -1.5903 -0.3560  1.4889
 9343TIP3    H249521   3.687   3.867   4.352  0.4492  1.7723  1.6705
 9344TIP3   OH249522   3.205   2.416   3.709 -0.3346  0.3793 -0.0077
 9344TIP3    H149523   3.264   2.394   3.637 -0.8819 -0.7979 -0.1277
 9344TIP3    H249524   3.137   2.348   3.705 -0.6618  0.6119  1.2962
 9345TIP3   OH249525   3.363   3.655  13.456 -0.0651  0.1211 -0.5112
 9345TIP3    H149526   3.351   3.697  13.542  2.4982 -0.6836  0.3581
 9345TIP3    H249527   3.359   3.728  13.394 -2.1151  0.7075  0.2123
 9346TIP3   OH249528   0.878   5.459   2.870  0.2581  0.7295  0.4633
 9346TIP3    H149529   0.874   5.552   2.847 -0.0774  0.7233  0.4856
 9346TIP3    H249530   0.811   5.418   2.817 -0.5109  0.7144  1.4124
 9347TIP3   OH249531   6.082   6.610   4.499  0.0115  0.8450  0.5449
 9347TIP3    H149532   6.153   6.673   4.484 -0.7110  1.3954 -0.6724
 9347TIP3    H249533   6.101   6.537   4.440  1.4942 -0.7003  2.7861
 9348TIP3   OH249534   0.382   1.189  13.260 -0.0244 -0.0327  0.2454
 9348TIP3    H149535   0.368   1.283  13.253  1.4950  0.1527 -0.8932
 9348TIP3    H249536   0.335   1.152  13.184 -0.6885 -0.2254  0.7359
 9349TIP3   OH249537   4.146   4.882  14.930 -0.1787  0.3658  0.4968
 9349TIP3    H149538   4.159   4.836  15.013  1.0343  0.1889  0.2309
 9349TIP3    H249539   4.213   4.845  14.872  0.6327  2.2220  0.1806
 9350TIP3   OH249540   4.559   5.384  15.496 -0.3807 -0.2393 -0.3874
 9350TIP3    H149541   4.651   5.367  15.476 -0.0857 -1.4237  1.6940
 9350TIP3    H249542   4.560   5.427  15.582 -1.7839 -1.0589  0.0736
 9351TIP3   OH249543   6.513   1.968   3.202 -0.7483 -0.0194  1.1486
 9351TIP3    H149544   6.600   1.928   3.214 -0.6472 -0.2615 -0.2379
 9351TIP3    H249545   6.453   1.906   3.243 -0.5942 -1.6914 -0.9755
 9352TIP3   OH249546   3.007   4.460   4.919  0.3107  0.5587  0.1937
 9352TIP3    H149547   2.957   4.526   4.967  0.1314  0.2055  0.5046
 9352TIP3    H249548   2.940   4.410   4.871  0.3940  0.2942  0.3491
 9353TIP3   OH249549   3.748   0.054  13.445  0.3048  0.8586 -0.4239
 9353TIP3    H149550   3.808   0.123  13.474 -0.0044  1.1524 -0.4765
 9353TIP3    H249551   3.737  -0.002  13.522 -1.8585  2.5871  0.6259
 9354TIP3   OH249552   2.906   1.848   0.178  0.5622 -0.0354  0.2714
 9354TIP3    H149553   2.904   1.842   0.273  0.5651  0.0113  0.2742
 9354TIP3    H249554   2.999   1.849   0.156  0.6653  2.7908  0.4396
 9355TIP3   OH249555   3.928   4.639  12.593  0.0862  0.0731 -0.4244
 9355TIP3    H149556   4.014   4.676  12.614 -0.4941  1.9226 -1.0506
 9355TIP3    H249557   3.915   4.659  12.500 -0.7794 -0.6954 -0.4873
 9356TIP3   OH249558   0.641   1.156   4.684 -0.2769  0.7444 -0.6196
 9356TIP3    H149559   0.582   1.231   4.679  1.0282  1.8010 -0.6830
 9356TIP3    H249560   0.598   1.089   4.630 -0.8981  1.8507 -1.5519
 9357TIP3   OH249561   6.021   6.551   4.893 -0.1830 -0.0829 -0.0064
 9357TIP3    H149562   6.037   6.465   4.933  0.5557 -0.9695 -2.0567
 9357TIP3    H249563   6.104   6.597   4.902 -0.7197  0.6598  1.5258
 9358TIP3   OH249564   0.743   0.989   1.085 -0.1998 -0.1609 -1.0085
 9358TIP3    H149565   0.813   0.928   1.060 -0.3495 -0.4346 -0.7681
 9358TIP3    H249566   0.698   0.945   1.157 -0.1263  0.3634 -0.6352
 9359TIP3   OH249567   2.988   0.077   1.349  0.3793  0.3296 -0.1023
 9359TIP3    H149568   2.987   0.065   1.444  1.8850  3.5791  0.4797
 9359TIP3    H249569   2.911   0.131   1.331 -1.5002 -2.5147 -1.2735
 9360TIP3   OH249570   6.760   6.003  11.151  0.0319  0.1679 -0.0128
 9360TIP3    H149571   6.816   6.044  11.085  1.4544  0.8287  1.5256
 9360TIP3    H249572   6.739   5.917  11.115  0.5988  0.5848 -1.3911
 9361TIP3   OH249573   0.004   4.130  13.523 -0.1533  0.8259  0.0697
 9361TIP3    H149574   0.082   4.181  13.543  0.2963  0.4322 -0.6610
 9361TIP3    H249575   0.013   4.107  13.431 -1.4785  1.3789 -0.2169
 9362TIP3   OH249576   4.535   2.227   5.893  0.1158 -0.5662 -0.7248
 9362TIP3    H149577   4.463   2.266   5.943  0.1417 -0.8928 -0.4289
 9362TIP3    H249578   4.577   2.167   5.955 -0.6805 -2.0151 -1.5503
 9363TIP3   OH249579   4.591   5.045   2.666 -0.8647  0.2741  0.2055
 9363TIP3    H149580   4.592   4.949   2.672 -0.3685  0.2186 -0.6729
 9363TIP3    H249581   4.545   5.063   2.584 -1.1215  0.7963  0.4605
 9364TIP3   OH249582   0.984   3.677  13.771 -0.2307 -0.0359  0.1320
 9364TIP3    H149583   1.004   3.654  13.681 -0.9507  0.7842 -0.2500
 9364TIP3    H249584   0.938   3.761  13.765 -1.8284 -0.8046  1.1398
 9365TIP3   OH249585   5.789   5.955  14.242 -0.2443 -0.3972 -0.1855
 9365TIP3    H149586   5.813   6.036  14.287 -0.0664 -0.6147  0.1066
 9365TIP3    H249587   5.845   5.954  14.164 -1.4235  0.6177 -1.1147
 9366TIP3   OH249588   6.799   4.862  12.170  0.2675 -0.6125 -0.7214
 9366TIP3    H149589   6.850   4.922  12.116 -0.1737 -0.1110 -0.5890
 9366TIP3    H249590   6.839   4.865  12.256  0.1974 -0.4522 -0.6955
 9367TIP3   OH249591   1.067   0.397  14.082  0.4209 -0.2048  0.3953
 9367TIP3    H149592   1.143   0.366  14.034 -0.5353 -0.1116 -1.2558
 9367TIP3    H249593   1.014   0.318  14.097 -0.8021  0.1569 -1.5937
 9368TIP3   OH249594   3.074   4.815   0.762 -0.2979  0.1412  0.2309
 9368TIP3    H149595   3.042   4.832   0.673 -1.5189 -2.6116  0.0435
 9368TIP3    H249596   3.012   4.753   0.799  1.3267 -0.4022  2.2787
 9369TIP3   OH249597   4.944   1.097   2.644  0.1643 -0.6908 -0.1160
 9369TIP3    H149598   4.869   1.115   2.702 -0.7514  0.0982 -1.5029
 9369TIP3    H249599   4.909   1.035   2.580  1.4231 -2.2703  0.6453
 9370TIP3   OH249600   1.231   3.925  13.954  0.3150 -0.0737 -0.3017
 9370TIP3    H149601   1.229   4.000  14.013  1.7665  0.3200 -0.7154
 9370TIP3    H249602   1.148   3.880  13.970  0.6922 -0.0448  2.1042
 9371TIP3   OH249603   5.260   2.730  12.085 -0.5988  0.1669 -0.1341
 9371TIP3    H149604   5.205   2.803  12.058  2.0059  2.0562 -0.7064
 9371TIP3    H249605   5.336   2.734  12.027 -0.3450 -3.0623 -0.2062
 9372TIP3   OH249606   0.008   3.945   0.454 -0.7946 -0.3221 -0.0077
 9372TIP3    H149607   0.021   3.993   0.372  0.9400  0.8705  0.8973
 9372TIP3    H249608   0.061   3.992   0.518 -2.5092 -0.8891  1.9619
 9373TIP3   OH249609   1.130   2.160   5.812  0.2304  0.3053  0.0776
 9373TIP3    H149610   1.182   2.101   5.867 -0.7732 -0.7749 -0.0832
 9373TIP3    H249611   1.040   2.147   5.842 -0.3795 -0.4933 -1.9428
 9374TIP3   OH249612   0.598   3.725   3.532 -0.1433  0.3398 -0.0246
 9374TIP3    H149613   0.628   3.642   3.569 -0.5691  0.5314  0.7633
 9374TIP3    H249614   0.668   3.750   3.470  0.5637  0.0029  0.6185
 9375TIP3   OH249615   0.793   3.244  12.686 -0.0652  0.1862  0.4878
 9375TIP3    H149616   0.806   3.281  12.773 -0.1457  0.9595  0.1765
 9375TIP3    H249617   0.704   3.268  12.662 -0.6629 -1.4764  0.8681
 9376TIP3   OH249618   5.929   0.862   1.077  0.1660  0.2103  0.6397
 9376TIP3    H149619   5.958   0.798   1.141 -1.3291 -1.9332 -0.7223
 9376TIP3    H249620   5.847   0.896   1.112 -0.7847 -1.1494 -0.1858
 9377TIP3   OH249621   4.381   5.715   1.713  0.0640 -0.7966 -0.1383
 9377TIP3    H149622   4.360   5.663   1.791 -1.4205 -1.5417 -0.9926
 9377TIP3    H249623   4.466   5.682   1.685 -0.4207 -2.1154 -0.1092
 9378TIP3   OH249624   0.640   6.399  10.600  0.5161  0.3143  0.2090
 9378TIP3    H149625   0.726   6.439  10.593  0.9621 -0.6065  0.3173
 9378TIP3    H249626   0.579   6.469  10.577  1.3639  0.5156 -1.5733
 9379TIP3   OH249627   2.705   0.649   2.207 -0.0007 -0.0737 -0.4601
 9379TIP3    H149628   2.747   0.681   2.127  2.0872 -0.9249  0.2337
 9379TIP3    H249629   2.663   0.567   2.181 -3.3632  1.8244 -1.6840
 9380TIP3   OH249630   2.467   6.242  16.192 -0.0867 -0.4755  0.3757
 9380TIP3    H149631   2.392   6.254  16.134  0.9228  0.4581 -0.7955
 9380TIP3    H249632   2.502   6.156  16.169 -0.1116 -0.4112  0.0930
 9381TIP3   OH249633   0.433   3.258  14.438 -0.3413  0.3798 -0.2311
 9381TIP3    H149634   0.349   3.219  14.459 -0.6896  1.2333  0.0171
 9381TIP3    H249635   0.495   3.185  14.437 -1.4091 -0.5903 -2.4096
 9382TIP3   OH249636   1.792   2.679  14.772 -0.1253  0.2633 -0.3179
 9382TIP3    H149637   1.786   2.774  14.777  0.9392  0.3055  0.8824
 9382TIP3    H249638   1.794   2.651  14.863  1.1739 -0.7648 -0.6222
 9383TIP3   OH249639   4.231   6.767  11.402 -0.0463  0.2464  0.0355
 9383TIP3    H149640   4.234   6.824  11.479  1.6873  0.1727  0.0617
 9383TIP3    H249641   4.302   6.798  11.346  0.0958 -1.0734 -0.5613
 9384TIP3   OH249642   6.794   5.696   5.261 -0.3622  0.0673  0.1447
 9384TIP3    H149643   6.794   5.753   5.183 -2.6094 -0.2689 -0.1550
 9384TIP3    H249644   6.877   5.650   5.256  0.0828  0.9547 -1.3868
 9385TIP3   OH249645   0.102   3.946   5.990 -0.5174 -0.0396 -0.4166
 9385TIP3    H149646   0.128   4.019   5.935 -0.7613  0.7138  0.4383
 9385TIP3    H249647   0.007   3.956   6.002 -0.2569  0.7455  1.3934
 9386TIP3   OH249648   5.487   3.587  16.007  0.3797  0.2326 -0.2372
 9386TIP3    H149649   5.407   3.574  15.956 -0.0621  0.6026  0.3416
 9386TIP3    H249650   5.534   3.504  15.999 -1.3740 -1.0437  1.6706
 9387TIP3   OH249651   6.824   0.586   6.722  0.5198 -0.1377 -0.3848
 9387TIP3    H149652   6.735   0.582   6.686  0.8739  0.7649 -1.3914
 9387TIP3    H249653   6.850   0.677   6.710  0.7968  0.1335  1.8388
 9388TIP3   OH249654   4.294   4.941   3.998  0.3843 -0.6908 -0.1256
 9388TIP3    H149655   4.231   4.883   3.956  0.3666 -0.1350 -0.9000
 9388TIP3    H249656   4.354   4.883   4.045 -0.9614 -1.2062  1.0190
 9389TIP3   OH249657   5.362   0.458  16.562  0.0450 -0.2806 -0.2794
 9389TIP3    H149658   5.284   0.407  16.542 -1.0672  1.4267 -0.5618
 9389TIP3    H249659   5.433   0.410  16.520 -0.7039 -2.2821  0.6113
 9390TIP3   OH249660   1.512   5.455  12.154 -0.3338  0.1422  0.1793
 9390TIP3    H149661   1.488   5.438  12.246 -1.6358 -1.3897 -0.3995
 9390TIP3    H249662   1.509   5.369  12.112  0.2185  0.8265 -1.3170
 9391TIP3   OH249663   5.391   0.381  12.375  0.4911 -0.5021 -0.2103
 9391TIP3    H149664   5.406   0.448  12.308 -0.0045  0.1342  0.3131
 9391TIP3    H249665   5.462   0.394  12.438  1.1216 -1.2811 -0.7349
 9392TIP3   OH249666   5.259   3.019   3.816 -0.7922  0.3409 -0.0755
 9392TIP3    H149667   5.230   2.984   3.901  2.0582 -1.4390  0.3003
 9392TIP3    H249668   5.210   2.967   3.752  0.8332 -2.0749  0.5239
 9393TIP3   OH249669   3.566   2.237   4.599 -0.0142  0.0966  0.1353
 9393TIP3    H149670   3.587   2.177   4.527 -2.0712  0.7848 -1.1219
 9393TIP3    H249671   3.615   2.317   4.579  0.1365 -0.0248  0.0126
 9394TIP3   OH249672   2.427   5.160   1.269  0.3574  0.3932  0.1161
 9394TIP3    H149673   2.506   5.203   1.302  1.6925 -0.7467 -1.3998
 9394TIP3    H249674   2.410   5.203   1.185 -0.6542  0.6265  0.4295
 9395TIP3   OH249675   3.177   0.715   4.467  0.1279  1.0922 -0.0474
 9395TIP3    H149676   3.242   0.648   4.445 -1.0110  0.0182 -0.2389
 9395TIP3    H249677   3.211   0.756   4.546  0.7946  0.2203  0.1370
 9396TIP3   OH249678   0.600   6.718  14.984 -0.1300 -0.2389  0.3332
 9396TIP3    H149679   0.586   6.666  14.905 -0.7646 -0.9843  0.9211
 9396TIP3    H249680   0.629   6.655  15.050  0.0326  0.3099  0.7941
 9397TIP3   OH249681   2.255   3.669  16.859 -0.0131  0.3432  0.2115
 9397TIP3    H149682   2.194   3.605  16.895 -0.6208 -0.2936 -1.7903
 9397TIP3    H249683   2.340   3.625  16.860 -0.1377  0.1058  0.2952
 9398TIP3   OH249684   3.041   3.619   4.584  0.1643  0.6629 -0.0843
 9398TIP3    H149685   3.070   3.542   4.534  0.6499  0.2970  0.7506
 9398TIP3    H249686   2.971   3.585   4.640 -2.0858  1.5540 -2.1749
 9399TIP3   OH249687   3.009   3.822  13.451  0.0112  0.7874 -0.0491
 9399TIP3    H149688   2.954   3.892  13.486  0.1624  0.8163  0.1317
 9399TIP3    H249689   3.052   3.860  13.375  0.6173  1.1010  0.4465
 9400TIP3   OH249690   6.361   6.563  13.097 -0.4408 -0.1346 -0.3719
 9400TIP3    H149691   6.327   6.648  13.127  1.8790  0.8006 -0.2396
 9400TIP3    H249692   6.359   6.569  13.001  0.3532  0.3626 -0.3658
 9401TIP3   OH249693   0.662   6.002  14.144 -0.2244 -0.1561  0.4553
 9401TIP3    H149694   0.731   5.991  14.209 -0.1140  0.9781  0.5623
 9401TIP3    H249695   0.668   6.095  14.118  0.9693 -0.9443 -2.5686
 9402TIP3   OH249696   6.313   0.725  12.779 -0.4265  0.3070 -0.1053
 9402TIP3    H149697   6.369   0.795  12.813  2.9382 -2.3459  0.3269
 9402TIP3    H249698   6.314   0.737  12.684  0.8720  0.3798 -0.1022
 9403TIP3   OH249699   6.189   1.508   0.152  0.2746  0.2888  0.0370
 9403TIP3    H149700   6.148   1.574   0.096  0.3568  0.7421  0.5095
 9403TIP3    H249701   6.282   1.513   0.130  0.3111  0.4888  0.2413
 9404TIP3   OH249702   4.131   2.195  12.930  0.0316  0.4838  0.1206
 9404TIP3    H149703   4.088   2.270  12.891  3.3176  2.3296 -0.2995
 9404TIP3    H249704   4.116   2.205  13.024  2.8622  3.5501  0.4131
 9405TIP3   OH249705   2.503   3.364  11.404  0.2687  0.3329  0.1172
 9405TIP3    H149706   2.540   3.361  11.492  0.0944 -2.8933  0.2158
 9405TIP3    H249707   2.408   3.360  11.418  0.2589 -2.6811 -0.0828
 9406TIP3   OH249708   1.406   3.788  16.331  0.9823  0.3065 -0.1630
 9406TIP3    H149709   1.311   3.784  16.317  0.8503  0.6041  0.6288
 9406TIP3    H249710   1.443   3.783  16.242  0.3821 -3.1117 -0.3512
 9407TIP3   OH249711   0.595   4.274  13.039  0.1356 -0.0331 -0.4227
 9407TIP3    H149712   0.559   4.185  13.037 -0.4592  0.2063 -1.7258
 9407TIP3    H249713   0.545   4.319  13.107 -0.1898 -0.4427 -0.3885
 9408TIP3   OH249714   4.867   5.531   2.501 -0.2407 -0.0488  0.0011
 9408TIP3    H149715   4.844   5.442   2.530 -0.9917  0.1820  0.1373
 9408TIP3    H249716   4.908   5.518   2.415 -0.2194 -0.5353  0.0784
 9409TIP3   OH249717   2.614   3.482  16.716 -0.6506  0.9390  0.3210
 9409TIP3    H149718   2.573   3.536  16.648  0.5092  1.2394 -0.1556
 9409TIP3    H249719   2.566   3.399  16.713 -0.7033  1.0019 -0.7671
 9410TIP3   OH249720   1.585   4.216   4.500 -0.0306 -0.2258 -0.2258
 9410TIP3    H149721   1.627   4.282   4.445 -0.3700  0.3426  0.1825
 9410TIP3    H249722   1.608   4.133   4.459  0.6469  0.1255 -0.5832
 9411TIP3   OH249723   0.731   4.858   5.085  0.1182 -0.9024  0.4374
 9411TIP3    H149724   0.648   4.838   5.041 -0.4852  0.3573  0.9542
 9411TIP3    H249725   0.798   4.849   5.017 -0.5959 -0.6561 -0.3119
 9412TIP3   OH249726   1.331   2.578  14.450 -0.1686 -0.2909 -0.3088
 9412TIP3    H149727   1.370   2.664  14.433 -0.9734  0.4029  1.1721
 9412TIP3    H249728   1.244   2.583  14.409 -0.5359 -0.0797  0.4768
 9413TIP3   OH249729   4.515   0.032  14.366  0.0492 -0.0946 -0.2049
 9413TIP3    H149730   4.576  -0.017  14.421 -0.4031 -1.1437 -0.6102
 9413TIP3    H249731   4.509   0.118  14.407  1.6249 -0.0334 -0.0265
 9414TIP3   OH249732   0.268   4.898   4.985  0.0125 -0.1098  0.0148
 9414TIP3    H149733   0.335   4.966   4.989 -0.4249  0.3928 -0.8993
 9414TIP3    H249734   0.185   4.944   4.994 -0.2629 -0.6056  0.0666
 9415TIP3   OH249735   5.463   0.885  16.949 -0.0856 -0.6142 -0.4044
 9415TIP3    H149736   5.470   0.950  16.879 -0.3212  0.8597  0.8586
 9415TIP3    H249737   5.372   0.893  16.978  0.0328 -1.1361  0.1126
 9416TIP3   OH249738   0.163   2.868   2.404 -0.3318 -0.2528 -0.1958
 9416TIP3    H149739   0.106   2.942   2.383  1.1352  0.7917 -0.6830
 9416TIP3    H249740   0.252   2.904   2.397  0.4283 -2.1198 -0.6516
 9417TIP3   OH249741   4.325   2.278  15.615  0.5284 -0.1319 -0.6909
 9417TIP3    H149742   4.327   2.230  15.698  0.6459 -1.4406 -1.4220
 9417TIP3    H249743   4.240   2.322  15.614  0.8376  0.5359  0.4462
 9418TIP3   OH249744   0.931   2.076   2.504  0.0617  0.0256  0.3259
 9418TIP3    H149745   0.895   2.158   2.538  0.1097  0.6827 -1.1369
 9418TIP3    H249746   0.984   2.041   2.576 -2.4045 -0.3277  2.1088
 9419TIP3   OH249747   3.875   3.663  13.055 -0.4100  0.5911  0.6132
 9419TIP3    H149748   3.926   3.638  12.978  2.5435  1.9611  1.9965
 9419TIP3    H249749   3.827   3.741  13.028  0.1879  0.7548  0.0076
 9420TIP3   OH249750   5.740   3.820   3.691 -0.8464  0.5085 -0.7575
 9420TIP3    H149751   5.685   3.805   3.768  2.3685  0.4788  1.7951
 9420TIP3    H249752   5.756   3.732   3.656 -0.8031  0.3165 -0.2666
 9421TIP3   OH249753   0.944   4.873   0.384 -0.0035 -0.5633 -0.2991
 9421TIP3    H149754   1.027   4.872   0.335  0.3935 -0.1522  0.3629
 9421TIP3    H249755   0.931   4.965   0.407 -0.5574 -0.6543 -0.2513
 9422TIP3   OH249756   2.504   1.175   6.205  0.5790 -0.9837  0.3460
 9422TIP3    H149757   2.458   1.184   6.289  1.2648 -2.2707  0.8871
 9422TIP3    H249758   2.466   1.096   6.166 -1.6506  0.9816 -1.8561
 9423TIP3   OH249759   6.110   0.437   1.419  0.0902  0.2813 -0.2250
 9423TIP3    H149760   6.067   0.481   1.492 -0.5461 -1.8294  0.7659
 9423TIP3    H249761   6.199   0.420   1.451  0.8144  2.0761 -1.1698
 9424TIP3   OH249762   3.663   1.223  16.903 -0.7484  0.0542 -0.0296
 9424TIP3    H149763   3.692   1.132  16.902 -2.1937 -0.4850 -2.4858
 9424TIP3    H249764   3.594   1.225  16.969  0.4724 -0.1598  1.2999
 9425TIP3   OH249765   1.450   3.008   0.813 -0.2908 -0.0596 -0.0621
 9425TIP3    H149766   1.492   3.021   0.898 -0.0978  0.3656 -0.2177
 9425TIP3    H249767   1.420   2.918   0.814  0.5036 -0.3318  0.1145
 9426TIP3   OH249768   3.660   2.327  12.367  0.3322 -0.0383 -0.1343
 9426TIP3    H149769   3.629   2.297  12.452  0.0498 -2.2019 -0.9254
 9426TIP3    H249770   3.580   2.351  12.320  0.4694  0.9312  0.1034
 9427TIP3   OH249771   4.137   0.403  10.625 -0.1489  0.2320 -0.1935
 9427TIP3    H149772   4.208   0.387  10.563 -1.5111 -2.1819 -1.2603
 9427TIP3    H249773   4.132   0.323  10.676 -1.8256  0.5338  0.1545
 9428TIP3   OH249774   5.732   0.270  13.270  0.1369 -0.0445 -0.0843
 9428TIP3    H149775   5.730   0.216  13.349 -0.8222  0.2779  0.1261
 9428TIP3    H249776   5.810   0.242  13.224  0.0485 -1.1062  0.3807
 9429TIP3   OH249777   2.741   1.433   2.991 -0.3648 -0.2039  0.4739
 9429TIP3    H149778   2.796   1.487   2.933 -1.0098 -1.8033 -1.7678
 9429TIP3    H249779   2.656   1.431   2.948 -2.2765  2.0058  3.7276
 9430TIP3   OH249780   6.657   2.433   6.188  0.3501  0.1920 -0.1237
 9430TIP3    H149781   6.680   2.343   6.165  3.1161  1.1725 -1.7082
 9430TIP3    H249782   6.601   2.463   6.116 -1.2734 -0.4563  0.8259
 9431TIP3   OH249783   6.508   6.800   5.505 -0.4943 -0.0368  0.3842
 9431TIP3    H149784   6.420   6.780   5.538  0.3043 -1.4030  1.7562
 9431TIP3    H249785   6.565   6.794   5.581  0.9847 -0.3913 -0.7058
 9432TIP3   OH249786   0.344   5.224   3.258 -0.0300 -0.2798 -0.0037
 9432TIP3    H149787   0.398   5.168   3.202 -0.9082 -0.6572 -0.4993
 9432TIP3    H249788   0.400   5.246   3.332  0.6678 -0.9873 -0.3119
 9433TIP3   OH249789   1.215   2.100  13.604 -0.5059 -0.1042 -0.3580
 9433TIP3    H149790   1.209   2.048  13.524 -3.8154 -2.4768  1.1895
 9433TIP3    H249791   1.167   2.180  13.585 -0.5045 -0.2564 -1.0219
 9434TIP3   OH249792   1.622   3.340   1.591 -0.2690  0.1422 -0.2778
 9434TIP3    H149793   1.623   3.428   1.628 -0.8406 -0.4702  1.3213
 9434TIP3    H249794   1.567   3.347   1.513 -1.5388  0.9408  0.6423
 9435TIP3   OH249795   5.112   3.534   2.866 -0.2590  0.0966 -0.0347
 9435TIP3    H149796   5.172   3.542   2.940 -1.6967  0.5850  1.1281
 9435TIP3    H249797   5.150   3.589   2.798  1.3988 -0.8156  0.0985
 9436TIP3   OH249798   1.117   2.819  11.129  0.3141  0.0093 -0.1427
 9436TIP3    H149799   1.073   2.737  11.107  2.1432 -1.0440 -0.0552
 9436TIP3    H249800   1.046   2.880  11.147 -1.1341 -0.9274 -2.3329
 9437TIP3   OH249801   6.140   0.202   0.957 -0.0683  0.5107 -0.1848
 9437TIP3    H149802   6.153   0.269   0.890 -0.3978  0.5002 -0.2600
 9437TIP3    H249803   6.228   0.185   0.992  0.2461 -0.1335 -1.2324
 9438TIP3   OH249804   2.561   1.643  15.090 -0.1599 -0.1630 -0.2095
 9438TIP3    H149805   2.503   1.707  15.131 -1.4229 -1.1786 -0.3390
 9438TIP3    H249806   2.556   1.663  14.996 -4.0090 -2.9397 -0.8558
 9439TIP3   OH249807   5.684   6.308   3.941 -0.0037  0.4090 -0.3105
 9439TIP3    H149808   5.651   6.329   3.854 -1.9024 -2.0680 -0.2995
 9439TIP3    H249809   5.771   6.270   3.925  0.0510  0.8232 -1.0226
 9440TIP3   OH249810   2.606   0.880  15.538 -0.4210 -0.1261 -0.6938
 9440TIP3    H149811   2.671   0.831  15.589 -0.7379 -1.8340 -1.8510
 9440TIP3    H249812   2.624   0.858  15.447 -2.1465 -0.0593 -1.0919
 9441TIP3   OH249813   4.725   1.236  10.430 -0.7188 -0.0713  0.2166
 9441TIP3    H149814   4.668   1.312  10.418  1.5275  1.4322 -1.6710
 9441TIP3    H249815   4.672   1.161  10.403 -2.2364  1.0725 -0.0820
 9442TIP3   OH249816   1.513   1.204   1.029  0.1036 -0.7831 -0.1193
 9442TIP3    H149817   1.597   1.163   1.051  0.2567  0.5642  2.1796
 9442TIP3    H249818   1.537   1.291   0.995 -0.3293 -0.8794 -0.6805
 9443TIP3   OH249819   5.157   0.329  14.244  0.2010  0.5933 -0.2207
 9443TIP3    H149820   5.252   0.341  14.238  0.6698 -0.1584  3.4134
 9443TIP3    H249821   5.142   0.240  14.211  1.1584 -0.1050  1.0896
 9444TIP3   OH249822   5.758   3.815  16.345 -0.7445  0.2407 -0.6808
 9444TIP3    H149823   5.751   3.873  16.420  0.2143 -1.5414  0.8852
 9444TIP3    H249824   5.677   3.830  16.295 -2.4521  0.0266  1.8242
 9445TIP3   OH249825   2.265   0.373   0.377 -0.3854  0.3631  0.4180
 9445TIP3    H149826   2.342   0.321   0.356 -0.6423  0.3669 -0.5845
 9445TIP3    H249827   2.286   0.462   0.348 -0.2006  0.6925  1.5209
 9446TIP3   OH249828   0.815   3.542   1.303  0.5226  0.0618  0.3314
 9446TIP3    H149829   0.808   3.525   1.397 -1.3051 -0.4865  0.1456
 9446TIP3    H249830   0.742   3.493   1.265  1.5141 -0.1222 -1.4409
 9447TIP3   OH249831   1.015   6.666   2.137  0.2075  0.5123  0.4272
 9447TIP3    H149832   1.010   6.731   2.067  2.6331  0.3390  0.0057
 9447TIP3    H249833   1.063   6.593   2.098  0.4135 -0.1512  1.8593
 9448TIP3   OH249834   5.582   3.822  15.811  0.0632  0.2656 -0.0856
 9448TIP3    H149835   5.541   3.784  15.889 -0.8651 -0.2151 -0.7867
 9448TIP3    H249836   5.663   3.862  15.843  1.4541 -2.8602  0.5909
 9449TIP3   OH249837   5.126   6.705  11.568  0.1695  0.7934  0.0189
 9449TIP3    H149838   5.148   6.777  11.628  0.0839 -0.2536  1.3773
 9449TIP3    H249839   5.086   6.747  11.492 -1.4901  2.0878  1.5228
 9450TIP3   OH249840   6.098   3.577   5.470 -0.1919 -0.7404  0.0504
 9450TIP3    H149841   6.065   3.519   5.402 -0.0409  0.1103 -0.7672
 9450TIP3    H249842   6.191   3.587   5.450  0.2934 -1.9750  1.4921
 9451TIP3   OH249843   3.052   0.611  11.958  0.0381 -0.2394 -0.4644
 9451TIP3    H149844   3.120   0.672  11.930  1.2844 -1.2084  0.3712
 9451TIP3    H249845   3.098   0.544  12.008 -1.8047  0.5841  2.6617
 9452TIP3   OH249846   2.443   2.171  15.379 -0.5809  0.1459 -0.3507
 9452TIP3    H149847   2.501   2.126  15.441 -0.1776 -1.1178 -1.5977
 9452TIP3    H249848   2.444   2.262  15.408 -0.1190 -0.3280  1.2782
 9453TIP3   OH249849   3.762   5.306  15.727  0.0145  0.2777 -0.0298
 9453TIP3    H149850   3.816   5.325  15.650  0.3225 -0.8493 -0.1121
 9453TIP3    H249851   3.790   5.371  15.792 -0.5490  1.5109 -0.9758
 9454TIP3   OH249852   5.140   3.742   1.851 -0.9001 -0.1310 -0.1955
 9454TIP3    H149853   5.183   3.826   1.834 -0.7115 -0.2058 -0.0875
 9454TIP3    H249854   5.172   3.716   1.938 -1.6167  0.0952  0.1423
 9455TIP3   OH249855   1.425   1.243   4.036 -0.3057 -0.4542  0.5256
 9455TIP3    H149856   1.386   1.328   4.054  0.1335 -0.4588  1.5581
 9455TIP3    H249857   1.442   1.205   4.122 -0.3114 -1.5060  0.0859
 9456TIP3   OH249858   4.048   0.316   2.460  0.4570  0.3166 -0.2282
 9456TIP3    H149859   3.968   0.359   2.429  0.9665  0.7695 -0.9633
 9456TIP3    H249860   4.027   0.222   2.458 -0.6139  0.4893  1.2463
 9457TIP3   OH249861   6.256   2.280   3.182 -0.5609 -0.0745  0.3580
 9457TIP3    H149862   6.235   2.370   3.158  0.6412  0.1254 -0.0308
 9457TIP3    H249863   6.324   2.254   3.120 -1.1475 -1.3843  0.2316
 9458TIP3   OH249864   5.166   6.507   0.817  0.1743 -0.5261  0.0855
 9458TIP3    H149865   5.078   6.529   0.786  0.2083  1.6753  1.3267
 9458TIP3    H249866   5.154   6.426   0.867 -1.5858  0.7114  1.8538
 9459TIP3   OH249867   4.462   6.063  13.357  0.6081  0.9373  0.3923
 9459TIP3    H149868   4.477   5.987  13.302 -1.3358 -0.0387  1.1093
 9459TIP3    H249869   4.517   6.049  13.434  0.4363  0.3850  0.4145
 9460TIP3   OH249870   1.408   3.084  16.440 -0.2141 -0.4997  0.0436
 9460TIP3    H149871   1.406   2.988  16.437  0.8596 -0.6105  1.6525
 9460TIP3    H249872   1.415   3.105  16.533  0.5920  1.1128 -0.3426
 9461TIP3   OH249873   2.052   0.565  11.991  0.1496  0.1570 -0.1868
 9461TIP3    H149874   2.089   0.601  11.910  0.5702 -0.4839 -0.2847
 9461TIP3    H249875   2.064   0.471  11.983  0.5935  0.1131  0.8131
 9462TIP3   OH249876   0.304   3.165  13.424  0.3962 -0.3603  0.6539
 9462TIP3    H149877   0.376   3.185  13.364  0.7381 -0.9346  0.8757
 9462TIP3    H249878   0.225   3.185  13.373  0.6940 -0.4651  0.1482
 9463TIP3   OH249879   2.376   5.340  16.099  0.7069  0.5336 -0.2095
 9463TIP3    H149880   2.465   5.334  16.133  1.0455  0.3492 -1.1217
 9463TIP3    H249881   2.322   5.354  16.177  1.2104 -2.0535  0.7132
 9464TIP3   OH249882   3.889   6.686   5.692  0.4493 -0.1223 -0.5697
 9464TIP3    H149883   3.911   6.771   5.730 -0.8207  0.9856 -2.1650
 9464TIP3    H249884   3.870   6.630   5.768  0.6689  1.1978  0.5037
 9465TIP3   OH249885   1.195   1.555   2.958  0.0898 -0.3920 -0.2162
 9465TIP3    H149886   1.214   1.489   2.891 -0.1893  1.3132 -2.0933
 9465TIP3    H249887   1.101   1.549   2.973  0.1463 -0.7549 -0.0133
 9466TIP3   OH249888   4.670   5.951  15.226  0.9217  0.3071  0.1866
 9466TIP3    H149889   4.684   5.856  15.223  2.2524  0.4854 -0.0553
 9466TIP3    H249890   4.694   5.976  15.315  0.1049  0.3677  0.3988
 9467TIP3   OH249891   3.992   2.165  12.021  0.3363 -0.0681 -0.3003
 9467TIP3    H149892   4.000   2.169  12.117  1.0832 -1.6097 -0.2602
 9467TIP3    H249893   3.898   2.177  12.005 -0.0831 -1.4840  0.7863
 9468TIP3   OH249894   2.745   4.251   4.875  0.1952  0.1948  0.2417
 9468TIP3    H149895   2.739   4.340   4.839 -2.0049 -0.1058 -0.3157
 9468TIP3    H249896   2.764   4.196   4.799  2.3931  0.2144  0.7152
 9469TIP3   OH249897   3.332   3.837   3.152  0.2462 -0.1554  0.9604
 9469TIP3    H149898   3.401   3.802   3.095  2.1668  2.3302  1.5378
 9469TIP3    H249899   3.347   3.795   3.237 -1.5307 -2.5563  0.1931
 9470TIP3   OH249900   2.932   5.263  16.056 -0.5455 -0.6424 -0.1370
 9470TIP3    H149901   2.907   5.335  15.998  1.1178  0.5094  0.4909
 9470TIP3    H249902   2.966   5.195  15.997  0.1490  0.0839 -0.5936
 9471TIP3   OH249903   2.093   6.260  17.236  0.0224  0.2910  0.2356
 9471TIP3    H149904   2.074   6.320  17.164  1.7852 -0.2059 -0.7097
 9471TIP3    H249905   2.008   6.223  17.260 -1.0648  2.8545  0.6088
 9472TIP3   OH249906   0.875   3.428   5.638  0.4695  0.1350  0.0259
 9472TIP3    H149907   0.793   3.478   5.635  1.5574  2.1779  1.7812
 9472TIP3    H249908   0.901   3.422   5.546  0.7376  3.7684 -0.3002
 9473TIP3   OH249909   6.481   3.101  11.868  0.3868  0.0689 -0.2271
 9473TIP3    H149910   6.415   3.139  11.925 -1.7595 -3.2776 -0.1976
 9473TIP3    H249911   6.450   3.119  11.779  0.8270  0.6413 -0.2723
 9474TIP3   OH249912   4.278   6.666   2.404  0.6621  0.0461 -0.3475
 9474TIP3    H149913   4.213   6.598   2.419  2.0929 -1.4078 -0.5258
 9474TIP3    H249914   4.358   6.632   2.443  1.1209  2.2115  0.7309
 9475TIP3   OH249915   6.703   4.164  14.063 -0.2996 -0.2197  0.5222
 9475TIP3    H149916   6.680   4.253  14.087  0.5286 -0.0078  0.5395
 9475TIP3    H249917   6.708   4.165  13.967  0.7532  0.0236  0.5674
 9476TIP3   OH249918   6.286   0.095   3.977 -0.0102 -0.0646 -0.0323
 9476TIP3    H149919   6.259   0.155   3.908  1.2933 -3.0348 -3.4257
 9476TIP3    H249920   6.374   0.123   4.001  0.5676 -0.4888 -1.5453
 9477TIP3   OH249921   4.104   2.260  16.202  0.5694 -0.5542 -0.2274
 9477TIP3    H149922   4.116   2.203  16.126 -2.0865 -0.0840 -1.1217
 9477TIP3    H249923   4.104   2.349  16.165  0.5961 -0.2368  0.5281
 9478TIP3   OH249924   4.853   5.023  15.930  0.3518 -0.8945 -0.1279
 9478TIP3    H149925   4.794   5.093  15.901  1.9588  0.6320  0.1474
 9478TIP3    H249926   4.898   5.059  16.007 -0.1502 -2.9733  1.2389
 9479TIP3   OH249927   4.492   3.730  10.805  0.4267 -0.0043 -0.0871
 9479TIP3    H149928   4.583   3.725  10.777  0.3188 -1.3002 -0.2737
 9479TIP3    H249929   4.445   3.760  10.727  0.5157 -0.7310 -0.4304
 9480TIP3   OH249930   0.990   1.035   3.132 -0.7062  0.1355 -0.4819
 9480TIP3    H149931   1.008   1.118   3.089 -0.7224 -0.1288 -1.0027
 9480TIP3    H249932   1.043   0.971   3.085 -0.2910 -0.0669  0.2535
 9481TIP3   OH249933   2.623   2.092  13.224 -0.3713 -0.4334  0.1907
 9481TIP3    H149934   2.599   2.101  13.132  0.2279 -0.7822 -0.0015
 9481TIP3    H249935   2.544   2.119  13.272 -1.0688 -1.3126 -0.4288
 9482TIP3   OH249936   6.185   3.540   2.918 -0.2360 -0.4608  0.4199
 9482TIP3    H149937   6.101   3.502   2.894 -0.3930 -0.4359  0.9200
 9482TIP3    H249938   6.200   3.511   3.008 -2.0647  3.4473  2.2491
 9483TIP3   OH249939   2.544   6.050  12.217  0.1144  0.4995 -0.1492
 9483TIP3    H149940   2.463   6.008  12.187  0.3397 -0.1613  0.1630
 9483TIP3    H249941   2.607   6.033  12.147  0.1586  0.4615 -0.0998
 9484TIP3   OH249942   4.766   5.751  16.662  0.1530 -0.8014 -0.4005
 9484TIP3    H149943   4.742   5.834  16.622 -4.5232 -0.8285  1.7597
 9484TIP3    H249944   4.769   5.689  16.589  1.5683  0.7601 -1.7578
 9485TIP3   OH249945   3.931   1.511  10.595  0.5289 -0.2859 -0.1599
 9485TIP3    H149946   3.900   1.421  10.587  0.0228 -0.1419  0.1269
 9485TIP3    H249947   3.867   1.553  10.653  0.1852  0.5322 -1.1094
 9486TIP3   OH249948   4.511   0.795  14.724  0.2706  0.7610  0.0702
 9486TIP3    H149949   4.437   0.743  14.693  0.4951 -0.2200  1.0779
 9486TIP3    H249950   4.520   0.769  14.816  1.6467  1.1216  0.0500
 9487TIP3   OH249951   3.943   1.198  14.354 -0.3330  0.4748 -0.5200
 9487TIP3    H149952   3.922   1.290  14.338 -1.3006  0.4366  0.4108
 9487TIP3    H249953   3.892   1.175  14.432  1.1355 -0.4080  0.2302
 9488TIP3   OH249954   4.855   3.080   3.183 -0.2277  0.6119 -0.5125
 9488TIP3    H149955   4.934   3.105   3.135  0.4750  0.8926  0.7347
 9488TIP3    H249956   4.812   3.016   3.127  0.8770  0.4734 -1.2315
 9489TIP3   OH249957   3.090   1.622   5.412  0.1620  0.0246  0.1252
 9489TIP3    H149958   3.130   1.540   5.382 -0.2936  0.8042 -2.8561
 9489TIP3    H249959   3.019   1.594   5.470  0.8724 -1.6100  0.2620
 9490TIP3   OH249960   0.708   3.471   3.583  0.9317 -0.2840  0.6418
 9490TIP3    H149961   0.680   3.382   3.603  4.0434 -1.8770 -1.1927
 9490TIP3    H249962   0.769   3.493   3.654  1.1997 -0.1637  0.3748
 9491TIP3   OH249963   1.972   2.626  12.092 -0.0982  0.7656  0.4189
 9491TIP3    H149964   1.959   2.562  12.022 -1.8035  1.9468 -0.4191
 9491TIP3    H249965   1.952   2.711  12.051  0.3335  1.6441  1.9545
 9492TIP3   OH249966   2.109   1.090  13.014  0.3358  0.0645 -0.2634
 9492TIP3    H149967   2.068   1.163  12.967 -0.8400  0.7122  1.6320
 9492TIP3    H249968   2.180   1.131  13.064  0.0544 -0.1825  0.3485
 9493TIP3   OH249969   2.473   5.095   3.184 -0.1361  0.2900  0.0647
 9493TIP3    H149970   2.466   5.164   3.118 -1.0898 -1.2298 -1.4953
 9493TIP3    H249971   2.567   5.081   3.196  0.0551  1.3469 -0.1276
 9494TIP3   OH249972   3.712   0.696  12.271  0.2997  0.1487  0.1298
 9494TIP3    H149973   3.648   0.751  12.316  1.5059  0.8919  0.9778
 9494TIP3    H249974   3.785   0.689  12.332  1.2310 -0.3043 -0.9975
 9495TIP3   OH249975   5.144   4.192   1.432 -0.5683  0.5063 -0.1833
 9495TIP3    H149976   5.195   4.150   1.363 -0.7895 -1.8245  0.9855
 9495TIP3    H249977   5.195   4.269   1.456  0.5819  0.1717 -1.4609
 9496TIP3   OH249978   6.029   1.414   5.178 -0.6969  0.0263  0.0327
 9496TIP3    H149979   6.002   1.453   5.261  0.9589  0.1922  0.5440
 9496TIP3    H249980   6.087   1.480   5.139 -0.0233 -0.7896 -0.3838
 9497TIP3   OH249981   3.649   0.151   5.928  0.6525  0.1435 -0.1269
 9497TIP3    H149982   3.719   0.215   5.940  2.5036 -1.4985 -1.5358
 9497TIP3    H249983   3.687   0.069   5.959 -2.4767 -0.0550  4.0299
 9498TIP3   OH249984   3.231   5.729  17.079  0.2794  0.8465  0.2654
 9498TIP3    H149985   3.272   5.647  17.049 -0.9544 -0.3930  1.7829
 9498TIP3    H249986   3.232   5.786  17.002  0.4008 -0.9088 -1.0968
 9499TIP3   OH249987   1.681   1.604  15.486  0.0188  0.4801  0.0894
 9499TIP3    H149988   1.652   1.695  15.488  0.8965  0.7901 -0.8286
 9499TIP3    H249989   1.775   1.608  15.471  0.1312 -0.5786  0.3852
 9500TIP3   OH249990   4.881   4.476   1.438  0.3345  0.2293  0.3388
 9500TIP3    H149991   4.809   4.460   1.498  1.5921 -0.5773  1.7069
 9500TIP3    H249992   4.897   4.392   1.396  0.4649  0.4149  0.0107
 9501TIP3   OH249993   5.827   2.065   0.066 -0.2184 -0.0826  0.2457
 9501TIP3    H149994   5.790   2.151   0.047 -0.5441 -0.5400 -1.3537
 9501TIP3    H249995   5.812   2.014  -0.014 -0.6058 -1.8333  1.3701
 9502TIP3   OH249996   5.324   4.897   6.248  0.2170 -0.6572  0.3983
 9502TIP3    H149997   5.303   4.917   6.339 -0.7151 -1.2143  0.3271
 9502TIP3    H249998   5.243   4.919   6.200  1.1437  0.9848 -0.5178
 9503TIP3   OH249999   3.478   0.974   0.408  0.3954 -0.2453 -0.0019
 9503TIP3    H150000   3.444   1.044   0.352  0.4428 -0.6698 -0.5752
 9503TIP3    H250001   3.496   0.902   0.348 -0.5162 -1.0812  0.6775
 9504TIP3   OH250002   3.836   4.635   0.112 -0.1479 -0.3940 -0.3155
 9504TIP3    H150003   3.840   4.694   0.036  0.1101 -0.8756 -0.6788
 9504TIP3    H250004   3.925   4.603   0.123  0.2587  1.1839  1.4202
 9505TIP3   OH250005   0.928   1.918   5.862 -0.0052  0.3138 -0.1672
 9505TIP3    H150006   1.009   1.875   5.888 -1.2827 -0.7406  2.3528
 9505TIP3    H250007   0.893   1.955   5.943 -2.6312 -0.3040 -0.9178
 9506TIP3   OH250008   4.158   1.964  15.177 -0.5045  0.0217  0.1347
 9506TIP3    H150009   4.122   1.898  15.235  0.2165  1.3453  2.2168
 9506TIP3    H250010   4.172   2.040  15.233  0.4101  1.3357 -1.7574
 9507TIP3   OH250011   1.025   1.665  13.622 -0.4302 -0.0585  0.2724
 9507TIP3    H150012   1.051   1.740  13.569 -1.8569 -0.2908 -0.8449
 9507TIP3    H250013   0.934   1.684  13.646 -0.6646 -1.2144  0.3394
 9508TIP3   OH250014   5.944   3.736  11.853  0.5291  0.1148  0.1928
 9508TIP3    H150015   5.903   3.740  11.766  3.6538  0.8595 -1.3982
 9508TIP3    H250016   5.918   3.651  11.888  0.4772 -0.9477 -2.2275
 9509TIP3   OH250017   3.001   4.022   2.286  0.1673  0.0398  0.6725
 9509TIP3    H150018   2.908   4.004   2.291  0.1449  0.3028  1.2300
 9509TIP3    H250019   3.007   4.116   2.274  0.2991 -0.2177 -1.8152
 9510TIP3   OH250020   1.974   5.540  13.529 -0.4102  0.1807  0.3630
 9510TIP3    H150021   2.035   5.612  13.514 -1.3765  1.1898  1.0869
 9510TIP3    H250022   1.920   5.570  13.602 -0.6983 -1.3806  0.8253
 9511TIP3   OH250023   2.515   4.293  16.528  1.0669  0.1210 -0.6144
 9511TIP3    H150024   2.511   4.206  16.488  0.5474  0.2301 -0.8048
 9511TIP3    H250025   2.474   4.351  16.465 -1.2126  0.0555  0.6814
 9512TIP3   OH250026   0.288   2.254   3.882 -0.6006 -0.2032  0.2482
 9512TIP3    H150027   0.338   2.207   3.816 -0.4461 -1.0644  0.9627
 9512TIP3    H250028   0.286   2.196   3.958  0.1372  1.1860  1.3868
 9513TIP3   OH250029   0.942   2.594   0.823  0.2555 -0.0206 -0.2623
 9513TIP3    H150030   0.906   2.672   0.866  1.7258  0.8922 -0.6075
 9513TIP3    H250031   1.036   2.611   0.818  0.4534 -1.3055 -1.4097
 9514TIP3   OH250032   2.547   2.539   6.004  0.1333  0.0946 -0.0467
 9514TIP3    H150033   2.477   2.513   6.064 -0.6031  0.2405 -0.8278
 9514TIP3    H250034   2.529   2.631   5.984  0.9732  0.3481  0.3156
 9515TIP3   OH250035   3.560   1.878  12.947 -0.2838  0.5653 -0.8140
 9515TIP3    H150036   3.549   1.972  12.961  2.0337  0.7709  0.0699
 9515TIP3    H250037   3.604   1.847  13.026  2.6807 -0.4634 -2.6808
 9516TIP3   OH250038   6.298   2.867   5.934 -0.0441  0.0110  0.3210
 9516TIP3    H150039   6.283   2.961   5.927  0.8820  0.0660 -1.6311
 9516TIP3    H250040   6.290   2.848   6.027 -1.3592  1.8097  0.6305
 9517TIP3   OH250041   4.064   4.416   2.602  0.4498  0.2993  0.1872
 9517TIP3    H150042   4.143   4.407   2.549  1.2713  1.1499  1.2144
 9517TIP3    H250043   4.092   4.397   2.691 -0.2700  1.5955  0.7209
 9518TIP3   OH250044   1.343   5.271  12.386  0.1525  0.2262  0.1602
 9518TIP3    H150045   1.388   5.192  12.355 -0.5917 -0.0682 -0.1865
 9518TIP3    H250046   1.413   5.335  12.400  0.8156 -0.6171  0.8350
 9519TIP3   OH250047   5.083   5.374   5.655 -0.4121  0.0571 -0.0150
 9519TIP3    H150048   5.141   5.299   5.670 -0.9130 -0.5182 -0.8951
 9519TIP3    H250049   4.995   5.340   5.671 -0.6527  0.4229 -0.5497
 9520TIP3   OH250050   3.679   2.945  13.673 -0.0742  0.1501  0.7031
 9520TIP3    H150051   3.772   2.964  13.672 -0.3256  1.5716 -0.7987
 9520TIP3    H250052   3.641   3.012  13.730 -0.2232 -0.2272  1.0558
 9521TIP3   OH250053   2.857   0.247  12.264 -0.4813  0.4034  0.1287
 9521TIP3    H150054   2.911   0.187  12.213  0.6787  1.0977  0.5128
 9521TIP3    H250055   2.847   0.324  12.209 -0.8732  0.3805  0.1632
 9522TIP3   OH250056   3.303   3.931  13.091 -0.5777  0.0683  0.0593
 9522TIP3    H150057   3.352   4.008  13.059 -0.0721 -0.5762 -0.7511
 9522TIP3    H250058   3.294   3.875  13.014 -0.6865 -0.8202  0.7159
 9523TIP3   OH250059   0.897   4.962  16.102 -0.5144  0.4420 -0.4626
 9523TIP3    H150060   0.804   4.940  16.104 -0.6339  0.7844 -1.6075
 9523TIP3    H250061   0.941   4.877  16.090 -0.8717  0.5196 -2.9146
 9524TIP3   OH250062   4.694   2.513  13.668 -0.5431 -0.8488  0.0554
 9524TIP3    H150063   4.789   2.508  13.681 -0.7107 -2.2661  0.9906
 9524TIP3    H250064   4.684   2.549  13.580  0.8426 -0.1907  0.1280
 9525TIP3   OH250065   6.501   5.355  11.118  0.6132 -0.4670  0.3908
 9525TIP3    H150066   6.431   5.300  11.081 -1.8218  2.2971  0.5305
 9525TIP3    H250067   6.499   5.335  11.211  0.4322 -0.8362  0.3134
 9526TIP3   OH250068   1.219   6.813   5.300 -0.0210  0.2728  0.0949
 9526TIP3    H150069   1.292   6.859   5.341  0.6742 -0.6193 -0.1132
 9526TIP3    H250070   1.142   6.864   5.325  0.4752  0.2839  1.7394
 9527TIP3   OH250071   5.732   3.076   3.546  0.5901  0.2111 -0.2337
 9527TIP3    H150072   5.680   3.105   3.621  1.8073  0.7282  0.4340
 9527TIP3    H250073   5.727   2.981   3.550 -1.1322  0.2430 -0.7948
 9528TIP3   OH250074   2.456   1.623   1.375  0.6674  0.1098 -0.4345
 9528TIP3    H150075   2.406   1.601   1.297 -0.7619 -0.1640  0.5232
 9528TIP3    H250076   2.506   1.544   1.395 -0.3856 -0.4713 -0.0332
 9529TIP3   OH250077   1.897   2.504   1.475  0.4345 -0.4643  0.0610
 9529TIP3    H150078   1.946   2.525   1.396 -0.9107 -0.0527 -0.7061
 9529TIP3    H250079   1.927   2.567   1.540  1.9338 -1.1449  0.0564
 9530TIP3   OH250080   1.414   0.915  10.744 -0.1110  0.3006 -0.5390
 9530TIP3    H150081   1.462   0.835  10.723  0.2223  0.5986 -0.9449
 9530TIP3    H250082   1.377   0.899  10.831  1.1163  0.2348 -0.0042
 9531TIP3   OH250083   5.683   6.361  12.026 -0.6698  0.3672 -0.6841
 9531TIP3    H150084   5.657   6.291  12.086 -2.1340  1.4108 -0.0275
 9531TIP3    H250085   5.730   6.423  12.082  0.1645  0.1743 -1.1534
 9532TIP3   OH250086   5.569   2.594  16.459  0.3358  0.6830  0.4492
 9532TIP3    H150087   5.500   2.619  16.398  0.6424 -0.2585 -0.3006
 9532TIP3    H250088   5.543   2.632  16.542 -1.7287 -0.7068  0.4934
 9533TIP3   OH250089   5.998   0.888  12.403 -0.6140 -0.6094  0.2786
 9533TIP3    H150090   5.930   0.885  12.470 -3.1545  1.1035 -1.9643
 9533TIP3    H250091   5.968   0.826  12.336 -2.1705  2.7590 -2.4378
 9534TIP3   OH250092   6.010   4.498   5.606 -0.3407 -0.1353 -0.8473
 9534TIP3    H150093   6.093   4.510   5.561 -0.3838  1.0025 -0.6614
 9534TIP3    H250094   5.962   4.435   5.553 -0.3338  1.0722 -2.3444
 9535TIP3   OH250095   0.468   4.344   3.429  0.2947 -0.4035 -0.1720
 9535TIP3    H150096   0.397   4.407   3.428  0.1301 -0.4787  2.2333
 9535TIP3    H250097   0.547   4.397   3.418 -0.0338 -0.2306 -1.9594
 9536TIP3   OH250098   2.722   0.437  16.920 -0.0310 -0.0085  0.7529
 9536TIP3    H150099   2.649   0.487  16.957  0.4110  0.4280  1.0463
 9536TIP3    H250100   2.772   0.409  16.996  0.8659  0.8665  0.5023
 9537TIP3   OH250101   4.908   1.407   5.571  0.3217 -0.0453  0.0504
 9537TIP3    H150102   4.872   1.485   5.612 -0.2719  0.7944 -1.9427
 9537TIP3    H250103   4.875   1.334   5.624 -0.0843  0.9760  1.2471
 9538TIP3   OH250104   1.690   1.978   4.264 -0.1752 -0.6909  0.3980
 9538TIP3    H150105   1.619   1.962   4.203  0.8121 -2.4463 -0.3798
 9538TIP3    H250106   1.770   1.973   4.211  0.6280 -0.6880  1.5536
 9539TIP3   OH250107   1.155   0.735   2.690  0.0946 -0.7145 -0.2292
 9539TIP3    H150108   1.152   0.798   2.618 -0.5192 -0.0358  0.3733
 9539TIP3    H250109   1.087   0.671   2.667  0.6076 -1.0805 -0.7605
 9540TIP3   OH250110   4.192   6.236  11.911  0.4752  0.4671 -0.5698
 9540TIP3    H150111   4.159   6.198  11.992  0.6513  1.2194 -0.1324
 9540TIP3    H250112   4.253   6.171  11.877  0.0875 -0.0328 -0.3149
 9541TIP3   OH250113   2.451   6.513   0.298 -0.3005 -0.1626 -0.5604
 9541TIP3    H150114   2.419   6.436   0.250  0.7973  0.2919 -2.0889
 9541TIP3    H250115   2.476   6.575   0.230 -0.1447  1.1474  0.6387
 9542TIP3   OH250116   2.466   0.096  13.782  0.5639  0.2687 -0.5775
 9542TIP3    H150117   2.556   0.072  13.759  0.5598  0.0342 -0.3475
 9542TIP3    H250118   2.470   0.115  13.875  0.3084 -0.0414 -0.5041
 9543TIP3   OH250119   6.256   1.356  11.800  0.1729 -0.1106 -0.1912
 9543TIP3    H150120   6.168   1.378  11.830  0.0610  0.8050 -1.1169
 9543TIP3    H250121   6.243   1.317  11.713  0.6228 -0.7860  0.0351
 9544TIP3   OH250122   4.897   4.465  14.463  0.2818  0.1627  0.2389
 9544TIP3    H150123   4.980   4.457  14.511 -0.6888  0.3000  2.0287
 9544TIP3    H250124   4.863   4.376  14.460  1.0153 -0.0876 -1.5390
 9545TIP3   OH250125   1.795   1.499   0.115  0.0226  0.7181 -0.7076
 9545TIP3    H150126   1.791   1.503   0.019  1.7521 -0.7287 -0.8943
 9545TIP3    H250127   1.748   1.420   0.138 -0.3393  1.0327 -0.3505
 9546TIP3   OH250128   2.812   4.212  11.332  0.1736  0.4597  0.3306
 9546TIP3    H150129   2.749   4.211  11.404  0.4740 -0.1044  0.5961
 9546TIP3    H250130   2.825   4.304  11.312 -1.4685  0.5798 -0.3789
 9547TIP3   OH250131   5.812   6.591   4.125 -0.1662 -0.2427 -0.9942
 9547TIP3    H150132   5.881   6.547   4.076 -0.4623 -1.1417 -0.6273
 9547TIP3    H250133   5.731   6.548   4.096 -0.4303 -0.1633 -0.3814
 9548TIP3   OH250134   5.871   0.197  10.796 -0.2350 -0.3753 -0.6795
 9548TIP3    H150135   5.933   0.150  10.851 -0.5488 -0.8466 -0.7233
 9548TIP3    H250136   5.871   0.286  10.830 -0.0244 -0.5316 -0.2676
 9549TIP3   OH250137   6.622   5.218  13.345 -0.0889 -0.1149  0.7332
 9549TIP3    H150138   6.702   5.263  13.370  0.4255 -1.4790  1.6122
 9549TIP3    H250139   6.591   5.177  13.425  0.8152 -3.3673 -0.4272
 9550TIP3   OH250140   1.500   1.106   4.260  0.5835  0.3736  0.5293
 9550TIP3    H150141   1.572   1.076   4.315  1.7050  1.8864 -0.0357
 9550TIP3    H250142   1.468   1.026   4.218  0.8243 -0.5607  2.0407
 9551TIP3   OH250143   6.533   1.478   3.323  0.0363 -0.0269  0.1839
 9551TIP3    H150144   6.592   1.515   3.388 -0.6070  1.2828  0.0685
 9551TIP3    H250145   6.531   1.384   3.341 -0.9048  0.4006  2.7149
 9552TIP3   OH250146   0.866   3.229   5.174  0.4894  0.3398  0.2288
 9552TIP3    H150147   0.864   3.161   5.241 -0.0712 -0.3058 -0.4248
 9552TIP3    H250148   0.898   3.307   5.219  0.9791 -0.3156  1.0274
 9553TIP3   OH250149   2.827   2.958   3.163 -0.2839 -0.6575 -0.0522
 9553TIP3    H150150   2.739   2.922   3.172 -0.7040  0.3850  0.0791
 9553TIP3    H250151   2.816   3.038   3.113  0.5678 -0.4251  0.1079
 9554TIP3   OH250152   1.384   4.152  13.035  0.2288  0.0825 -0.4686
 9554TIP3    H150153   1.373   4.119  13.124 -0.6414  0.0812 -0.5750
 9554TIP3    H250154   1.297   4.179  13.008  0.6130  0.7471 -1.0677
 9555TIP3   OH250155   2.487   2.293   2.569  0.2376 -0.0787  0.5550
 9555TIP3    H150156   2.516   2.296   2.660 -0.1983  1.3831  0.6703
 9555TIP3    H250157   2.391   2.292   2.574  0.2064 -0.6209  0.1026
 9556TIP3   OH250158   1.608   2.069   0.727 -0.1928 -0.1117  0.0941
 9556TIP3    H150159   1.631   2.106   0.643 -1.7516 -0.6554 -0.6211
 9556TIP3    H250160   1.617   1.975   0.716  1.2878 -0.1205  1.1053
 9557TIP3   OH250161   2.067   0.851   2.056  0.6280 -0.3036  0.0059
 9557TIP3    H150162   2.049   0.839   1.963 -0.1234 -2.5230  0.3582
 9557TIP3    H250163   1.989   0.894   2.090 -0.4719 -2.2018  0.0598
 9558TIP3   OH250164   5.176   2.795  16.727 -0.2826 -0.5136  0.1029
 9558TIP3    H150165   5.164   2.886  16.702 -0.2125  0.4793  3.3058
 9558TIP3    H250166   5.154   2.792  16.820 -0.5801 -3.8430  0.0551
 9559TIP3   OH250167   1.460   0.623   4.342  0.5694 -1.3428  0.2736
 9559TIP3    H150168   1.505   0.646   4.261  0.5737 -1.4599  0.2432
 9559TIP3    H250169   1.501   0.678   4.409 -0.4558 -0.1335 -0.0540
 9560TIP3   OH250170   1.317   0.666  16.956  0.3265 -0.1646 -0.0970
 9560TIP3    H150171   1.346   0.755  16.978 -1.4247  0.7557 -1.2118
 9560TIP3    H250172   1.304   0.668  16.861  0.7585 -1.7972 -0.2147
 9561TIP3   OH250173   0.493   1.180  13.524  0.6007 -0.0305  0.3835
 9561TIP3    H150174   0.546   1.141  13.594  2.3217  1.4065 -0.0534
 9561TIP3    H250175   0.545   1.169  13.445  0.3953  1.6177 -0.0287
 9562TIP3   OH250176   1.551   6.805  16.669  0.3515 -0.0246 -0.0840
 9562TIP3    H150177   1.469   6.768  16.701  0.8681 -1.7688 -0.6711
 9562TIP3    H250178   1.540   6.808  16.574  0.8605  0.0003 -0.1445
 9563TIP3   OH250179   6.448   6.605   4.322  0.0170  0.4681  0.3065
 9563TIP3    H150180   6.454   6.681   4.381  1.5651  0.5442  0.1053
 9563TIP3    H250181   6.383   6.630   4.257  0.0755  1.3797  0.5825
 9564TIP3   OH250182   4.929   3.190   4.203 -0.0015  0.0481 -0.6139
 9564TIP3    H150183   4.980   3.270   4.196 -0.3722  0.2745 -0.7985
 9564TIP3    H250184   4.839   3.220   4.217 -0.1518 -0.3333 -0.7356
 9565TIP3   OH250185   0.598   5.749  10.738 -0.2377 -0.0297 -0.3633
 9565TIP3    H150186   0.600   5.675  10.678 -2.2309  0.9378 -1.7069
 9565TIP3    H250187   0.670   5.805  10.710 -0.0983 -0.3948 -0.7412
 9566TIP3   OH250188   3.674   4.740  16.776  0.2813 -0.1325  0.2572
 9566TIP3    H150189   3.734   4.801  16.732  0.2023 -1.0931 -1.2530
 9566TIP3    H250190   3.591   4.788  16.780  0.3282  0.0363 -0.5388
 9567TIP3   OH250191   0.433   1.449  16.172 -0.0696 -0.0871 -1.0969
 9567TIP3    H150192   0.448   1.512  16.242 -0.2623  0.0948 -1.2175
 9567TIP3    H250193   0.409   1.368  16.217 -0.2966  0.0569 -0.9549
 9568TIP3   OH250194   5.068   5.125   1.000 -0.3879 -0.0233  0.2427
 9568TIP3    H150195   5.092   5.160   0.914 -0.7197 -0.0365  0.1429
 9568TIP3    H250196   5.038   5.036   0.982  0.3649 -0.3410  0.4849
 9569TIP3   OH250197   6.518   0.311   5.911  0.4726  0.5098 -0.5644
 9569TIP3    H150198   6.547   0.261   5.987  1.9519  0.0502 -1.3898
 9569TIP3    H250199   6.439   0.357   5.941  0.0660 -0.9526  0.7260
 9570TIP3   OH250200   4.276   4.083  14.871 -0.4711  0.2673 -0.7322
 9570TIP3    H150201   4.372   4.089  14.869 -0.4451  0.0935 -0.2153
 9570TIP3    H250202   4.258   4.012  14.933 -0.9562  0.8915 -0.1492
 9571TIP3   OH250203   5.197   0.666   1.480  0.2341 -0.2368  0.0534
 9571TIP3    H150204   5.268   0.690   1.419  1.5991 -3.8528 -0.0959
 9571TIP3    H250205   5.136   0.616   1.426 -2.4148  2.5098  0.2756
 9572TIP3   OH250206   3.630   6.304  15.344 -0.0313 -0.0429 -0.6554
 9572TIP3    H150207   3.694   6.297  15.274  1.1584 -1.0157  0.4909
 9572TIP3    H250208   3.672   6.265  15.420 -1.2889  0.9498  0.6196
 9573TIP3   OH250209   0.042   0.428  14.221  0.0941  0.4412  0.0056
 9573TIP3    H150210  -0.038   0.398  14.263  0.4346  0.5705  0.7794
 9573TIP3    H250211   0.060   0.363  14.152 -0.0890 -0.1893  0.5434
 9574TIP3   OH250212   3.510   0.661   2.841  0.1652 -0.3065  0.3863
 9574TIP3    H150213   3.579   0.658   2.907 -0.0253 -0.3273  0.5864
 9574TIP3    H250214   3.478   0.571   2.835  0.9509 -0.5306 -0.5618
 9575TIP3   OH250215   5.729   4.470  16.432 -0.1427 -0.1581  0.1034
 9575TIP3    H150216   5.813   4.459  16.478  1.3630  0.4252 -2.2975
 9575TIP3    H250217   5.708   4.383  16.399  0.8775  0.1034 -1.3572
 9576TIP3   OH250218   6.107   5.524  17.214 -0.1059 -0.0018  0.3110
 9576TIP3    H150219   6.104   5.524  17.310 -0.1560 -1.3762  0.3243
 9576TIP3    H250220   6.043   5.591  17.188  0.5392  1.0110  1.2361
 9577TIP3   OH250221   0.095   0.538   2.585 -0.1214  0.7772 -0.2133
 9577TIP3    H150222   0.176   0.498   2.617 -1.4351 -1.3955  0.5892
 9577TIP3    H250223   0.051   0.569   2.664 -0.3558  1.4240 -0.5887
 9578TIP3   OH250224   3.010   5.603  11.953 -0.5484 -0.3668  0.2677
 9578TIP3    H150225   3.101   5.627  11.973 -0.6103  0.0545  0.0578
 9578TIP3    H250226   3.014   5.562  11.867 -0.5436 -0.4234  0.2949
 9579TIP3   OH250227   4.896   0.104   2.816  0.2852  0.5745 -0.0534
 9579TIP3    H150228   4.874   0.148   2.898  0.9534  0.4851  0.1784
 9579TIP3    H250229   4.870   0.167   2.748  0.9897  1.2292  0.2651
 9580TIP3   OH250230   1.126   5.723   5.232 -0.3792 -0.3754  0.1760
 9580TIP3    H150231   1.081   5.696   5.311 -0.0224 -0.0649  0.4890
 9580TIP3    H250232   1.111   5.817   5.226  0.5934 -0.1864  0.5309
 9581TIP3   OH250233   5.963   3.901   5.659  0.4695 -0.0624 -0.6097
 9581TIP3    H150234   6.041   3.907   5.716 -0.0887  1.6159  0.0400
 9581TIP3    H250235   5.909   3.975   5.686 -0.3730  0.0618 -2.5412
 9582TIP3   OH250236   6.243   4.673  13.081  0.3363  0.1444  0.1054
 9582TIP3    H150237   6.187   4.609  13.037  0.1588  0.5329 -0.2412
 9582TIP3    H250238   6.182   4.735  13.121  0.5134  0.2980  0.1390
 9583TIP3   OH250239   3.372   1.042  13.146 -0.3627  0.5270 -0.2142
 9583TIP3    H150240   3.377   1.085  13.231  0.8516  1.6816 -0.8356
 9583TIP3    H250241   3.458   1.001  13.135 -0.7788 -0.2715 -0.5583
 9584TIP3   OH250242   5.648   5.281  14.927 -0.8761 -0.2035  0.2890
 9584TIP3    H150243   5.571   5.336  14.943 -0.9920 -0.2108 -0.2217
 9584TIP3    H250244   5.707   5.337  14.876 -2.1344 -1.3646 -2.7138
 9585TIP3   OH250245   0.728   1.366   2.206 -0.7375 -0.4370  0.0234
 9585TIP3    H150246   0.685   1.305   2.266  0.6126  0.0821  1.6210
 9585TIP3    H250247   0.793   1.312   2.160 -1.0649 -0.6400 -0.1985
 9586TIP3   OH250248   0.752   1.025  16.697 -0.1692  0.1787 -0.2012
 9586TIP3    H150249   0.750   1.097  16.761 -0.0215  0.0089 -0.0080
 9586TIP3    H250250   0.736   1.068  16.613 -0.5510  0.3791 -0.0303
 9587TIP3   OH250251   3.608   3.919  14.400  0.2276 -0.3179 -0.0192
 9587TIP3    H150252   3.686   3.935  14.453  0.7718 -2.0653 -0.2172
 9587TIP3    H250253   3.630   3.955  14.313  0.9574 -1.0932 -0.1632
 9588TIP3   OH250254   2.898   5.392   1.117 -0.0572  0.2979  0.3359
 9588TIP3    H150255   2.872   5.484   1.117  0.8272  0.5651  0.1282
 9588TIP3    H250256   2.974   5.389   1.176 -0.5462 -0.4455  0.9445
 9589TIP3   OH250257   5.570   1.836   4.813  0.4794 -0.3449 -0.2308
 9589TIP3    H150258   5.584   1.928   4.837  3.6601 -0.0141 -2.6344
 9589TIP3    H250259   5.617   1.786   4.880  1.0355 -0.0194 -0.3693
 9590TIP3   OH250260   5.053   2.499  11.432  0.6734  0.2716  0.0232
 9590TIP3    H150261   5.104   2.418  11.425  1.0648  0.3036  2.0421
 9590TIP3    H250262   5.080   2.538  11.515 -0.0039  2.1500 -0.5788
 9591TIP3   OH250263   5.511   0.062   5.239  0.2976 -0.4894  0.4118
 9591TIP3    H150264   5.445  -0.004   5.215  1.4597 -1.7659  0.5747
 9591TIP3    H250265   5.539   0.098   5.155 -1.0775  0.5822  0.3789
 9592TIP3   OH250266   5.871   0.986   1.949  0.0224  0.4440 -0.4527
 9592TIP3    H150267   5.781   0.993   1.918  0.3031  0.7770 -1.2384
 9592TIP3    H250268   5.876   1.045   2.024 -0.2626  0.8973 -0.7856
 9593TIP3   OH250269   2.465   2.523   0.622  0.4460  0.1726 -0.3265
 9593TIP3    H150270   2.407   2.522   0.546 -2.2402 -1.5859  1.5538
 9593TIP3    H250271   2.499   2.434   0.628  0.8958  0.3760  0.3511
 9594TIP3   OH250272   4.497   0.362  12.853  0.4881  0.1060 -0.0914
 9594TIP3    H150273   4.496   0.332  12.762 -0.4028  0.6041 -0.2598
 9594TIP3    H250274   4.443   0.298  12.899 -2.7872  2.1395 -0.7337
 9595TIP3   OH250275   1.349   5.995   0.811  0.8292  0.0881 -0.4033
 9595TIP3    H150276   1.397   5.942   0.875  1.5016  0.6541 -0.4178
 9595TIP3    H250277   1.264   5.953   0.804  0.6783  0.1052  0.9961
 9596TIP3   OH250278   3.789   3.737  11.779 -0.3816  0.4140 -1.4698
 9596TIP3    H150279   3.717   3.701  11.727 -0.2321  1.1379 -2.2002
 9596TIP3    H250280   3.746   3.776  11.855 -0.7980  1.0659 -2.0272
 9597TIP3   OH250281   1.548   0.873   5.818 -0.0602  0.3363 -0.0924
 9597TIP3    H150282   1.505   0.956   5.840  0.2758  0.2952  0.7480
 9597TIP3    H250283   1.518   0.812   5.885 -1.4917 -0.6488 -1.5496
 9598TIP3   OH250284   0.641   3.394  11.405 -0.2091 -0.1399 -0.3590
 9598TIP3    H150285   0.657   3.304  11.377 -1.8925 -0.6836  0.3329
 9598TIP3    H250286   0.606   3.387  11.494  0.2214  1.2459 -0.0446
 9599TIP3   OH250287   5.814   2.946   5.411  0.5382  0.3505  0.8476
 9599TIP3    H150288   5.781   2.929   5.500  1.9078  2.3363  1.8062
 9599TIP3    H250289   5.833   2.859   5.376 -2.3768 -0.6774  1.5062
 9600TIP3   OH250290   1.551   6.731   3.940 -0.0626 -0.5197  0.2091
 9600TIP3    H150291   1.626   6.770   3.986  2.0189 -1.7037 -1.9610
 9600TIP3    H250292   1.482   6.797   3.947  2.0282  1.8415  0.0590
 9601TIP3   OH250293   1.405   0.663  16.505  0.2624  0.2437  0.2064
 9601TIP3    H150294   1.342   0.593  16.523  0.3771  0.6362  2.4416
 9601TIP3    H250295   1.405   0.716  16.584  2.5618  0.9297 -0.1728
 9602TIP3   OH250296   6.009   2.355  16.186  0.0184 -0.6508  0.3311
 9602TIP3    H150297   5.955   2.277  16.171 -0.9588  0.2206 -0.9359
 9602TIP3    H250298   5.956   2.409  16.245  0.6462 -0.8751  1.1216
 9603TIP3   OH250299   0.475   2.655  11.850  0.0419 -0.0667 -0.4205
 9603TIP3    H150300   0.426   2.710  11.789 -0.2645  0.2287  0.0879
 9603TIP3    H250301   0.425   2.660  11.932  1.4067  0.9655  0.3788
 9604TIP3   OH250302   3.593   4.265   3.776  0.0611  0.2248  0.1590
 9604TIP3    H150303   3.614   4.217   3.857 -0.1074  0.9566  0.6398
 9604TIP3    H250304   3.589   4.356   3.802  0.3549  0.5113 -0.7550
 9605TIP3   OH250305   0.302   2.780  16.242 -0.1543 -0.0345  0.1858
 9605TIP3    H150306   0.238   2.827  16.295  0.8396  0.5185  0.9161
 9605TIP3    H250307   0.352   2.727  16.305 -0.0117 -0.6100 -0.3971
 9606TIP3   OH250308   0.420   0.409  13.825  0.9257  0.4280  0.0557
 9606TIP3    H150309   0.493   0.389  13.766 -0.5583 -4.1232 -0.6153
 9606TIP3    H250310   0.460   0.409  13.913  1.7987 -2.6116 -0.2329
 9607TIP3   OH250311   0.161   3.541  17.003  0.0735 -0.6514 -0.0876
 9607TIP3    H150312   0.117   3.467  17.043  1.8244 -1.6310  0.1359
 9607TIP3    H250313   0.117   3.618  17.040 -1.2657 -1.5528  0.2689
 9608TIP3   OH250314   4.409   1.304   0.067 -0.1427 -0.4124  0.2538
 9608TIP3    H150315   4.316   1.291   0.046  0.0671 -2.4078  0.4055
 9608TIP3    H250316   4.456   1.256   0.000  0.6471 -2.9581  2.4873
 9609TIP3   OH250317   5.446   6.006  12.864  0.4763 -0.0686  0.0309
 9609TIP3    H150318   5.377   5.975  12.923  0.8757 -0.3205  0.3679
 9609TIP3    H250319   5.411   6.088  12.828  0.4418  0.3756  1.0343
 9610TIP3   OH250320   1.225   0.887   5.916  0.3091  0.1535  0.1653
 9610TIP3    H150321   1.257   0.967   5.955 -1.5730  1.2677 -0.4266
 9610TIP3    H250322   1.233   0.901   5.822  0.9006 -0.7770  0.0672
 9611TIP3   OH250323   1.932   0.861   0.489  0.6361 -0.5566 -0.2568
 9611TIP3    H150324   1.998   0.810   0.442  2.0675  0.0171  1.0424
 9611TIP3    H250325   1.848   0.824   0.461  1.5875 -3.0421 -0.0606
 9612TIP3   OH250326   3.739   0.027   5.454  0.4846  0.1032  0.1516
 9612TIP3    H150327   3.718   0.090   5.523 -1.7663  0.6001 -0.9190
 9612TIP3    H250328   3.822   0.058   5.418  0.3066  1.4293  0.8121
 9613TIP3   OH250329   2.862   5.624  12.164 -0.6542 -0.1157  0.0627
 9613TIP3    H150330   2.771   5.654  12.155 -0.3293  0.6383 -0.8890
 9613TIP3    H250331   2.894   5.620  12.074  0.5968  0.6937  0.4574
 9614TIP3   OH250332   2.217   4.150   0.764 -0.3781  0.3168 -0.1535
 9614TIP3    H150333   2.280   4.078   0.777  0.7789  1.3479  0.1370
 9614TIP3    H250334   2.136   4.118   0.804  0.0726 -0.8740 -0.1332
 9615TIP3   OH250335   5.536   1.573  16.875  0.6054  0.7739 -0.2094
 9615TIP3    H150336   5.543   1.659  16.834  0.5503  0.9616  0.1749
 9615TIP3    H250337   5.627   1.548  16.892  0.8106 -0.2976 -2.4665
 9616TIP3   OH250338   4.817   0.283   1.078  0.2824 -0.3064 -0.3759
 9616TIP3    H150339   4.853   0.216   1.020  0.5302 -0.5384  0.0450
 9616TIP3    H250340   4.855   0.365   1.047 -1.6886 -0.0047 -2.3118
 9617TIP3   OH250341   2.287   1.157   4.658  0.7718  0.2219  0.2527
 9617TIP3    H150342   2.234   1.175   4.735 -0.3054 -0.0853 -0.3922
 9617TIP3    H250343   2.270   1.065   4.638  0.7488  0.3954 -0.5634
 9618TIP3   OH250344   6.187   4.091   1.380  0.5443 -0.2547 -0.1256
 9618TIP3    H150345   6.281   4.084   1.363  0.4188  0.7650 -1.3986
 9618TIP3    H250346   6.181   4.111   1.474  1.5239 -1.4315  0.2080
 9619TIP3   OH250347   3.486   2.828  15.055 -0.0144  0.3431 -0.2973
 9619TIP3    H150348   3.456   2.852  14.968 -2.3427  0.7468  0.5490
 9619TIP3    H250349   3.522   2.909  15.092 -1.5436  0.8895  0.0635
 9620TIP3   OH250350   1.247   4.608  16.177  0.2170  0.5509 -0.0309
 9620TIP3    H150351   1.293   4.646  16.252  1.4906  3.2442 -1.9969
 9620TIP3    H250352   1.188   4.543  16.215  1.8330  0.7481  3.1266
 9621TIP3   OH250353   2.915   4.637   3.625  0.6187  0.0294  0.1612
 9621TIP3    H150354   2.961   4.573   3.571  0.6536  0.1563  0.0422
 9621TIP3    H250355   2.822   4.615   3.615  0.6476 -0.1974  0.3666
 9622TIP3   OH250356   4.783   2.296  13.284  0.4581 -0.3988 -0.6488
 9622TIP3    H150357   4.864   2.292  13.334  0.1153 -0.7297 -0.1123
 9622TIP3    H250358   4.731   2.222  13.315  0.3543 -0.7920 -1.7063
 9623TIP3   OH250359   4.714   1.236  14.159  0.0363  0.2722  0.0621
 9623TIP3    H150360   4.701   1.155  14.207 -1.7657  1.5165  1.8476
 9623TIP3    H250361   4.804   1.230  14.125 -0.4252 -2.9187 -0.9441
 9624TIP3   OH250362   5.638   2.826  13.570 -0.4674 -0.2591 -0.4734
 9624TIP3    H150363   5.681   2.850  13.488  1.6032 -2.4529 -0.1379
 9624TIP3    H250364   5.557   2.878  13.571  0.3365  1.1963 -2.9828
 9625TIP3   OH250365   0.344   6.752  11.331 -0.0184  0.1943  0.2962
 9625TIP3    H150366   0.439   6.741  11.339  0.4423  2.4090 -1.1886
 9625TIP3    H250367   0.321   6.811  11.403 -0.1426  0.2489  0.2114
 9626TIP3   OH250368   4.454   0.419   5.163 -0.2161  0.5964  0.0682
 9626TIP3    H150369   4.388   0.351   5.151  0.5724  0.0540 -1.3819
 9626TIP3    H250370   4.513   0.383   5.229  1.8180 -1.5049 -2.6621
 9627TIP3   OH250371   1.914   0.047   0.817  0.5446 -0.1020  0.5926
 9627TIP3    H150372   2.002   0.039   0.856  0.7912  0.7667  0.2396
 9627TIP3    H250373   1.916   0.131   0.772 -0.3585 -0.2490  0.2691
 9628TIP3   OH250374   5.283   3.053  15.053 -0.1215 -0.1844 -0.3431
 9628TIP3    H150375   5.348   3.102  15.002  0.8035  0.7801  1.6367
 9628TIP3    H250376   5.246   2.991  14.991  1.6237  0.2599 -1.9373
 9629TIP3   OH250377   5.544   4.870   4.817 -0.0569 -0.2808 -0.0979
 9629TIP3    H150378   5.451   4.881   4.798 -0.1165 -0.6347 -0.0211
 9629TIP3    H250379   5.588   4.910   4.742 -0.2669  0.0352 -0.0563
 9630TIP3   OH250380   6.072   0.903   0.185 -0.4004  0.1082  0.1895
 9630TIP3    H150381   6.147   0.907   0.243 -1.2347 -0.3845  1.3409
 9630TIP3    H250382   6.024   0.824   0.213 -2.4004  1.4793  0.8552
 9631TIP3   OH250383   0.898   3.144   5.724  0.0078  0.0001  0.4021
 9631TIP3    H150384   0.902   3.234   5.692  0.9221  0.7818  2.5821
 9631TIP3    H250385   0.989   3.120   5.739  0.1412 -2.5237 -3.0787
 9632TIP3   OH250386   4.466   5.363  15.242  0.0481  0.5550 -0.2478
 9632TIP3    H150387   4.503   5.342  15.328  0.5508 -1.9686 -1.0018
 9632TIP3    H250388   4.387   5.308  15.236  0.9910 -0.6997 -2.0455
 9633TIP3   OH250389   1.660   4.647   2.197  0.0171 -0.2441  0.1574
 9633TIP3    H150390   1.605   4.717   2.231 -0.7079 -1.0547  0.6975
 9633TIP3    H250391   1.678   4.591   2.272  1.3817 -0.1485 -0.0577
 9634TIP3   OH250392   3.784   0.950  16.803 -0.0899  0.1735  0.2305
 9634TIP3    H150393   3.828   0.904  16.731  0.8006  0.6822  0.4318
 9634TIP3    H250394   3.695   0.915  16.803 -0.0439  0.0056 -0.9760
 9635TIP3   OH250395   4.723   4.312   0.597 -0.0951 -0.3022  0.5203
 9635TIP3    H150396   4.750   4.271   0.679  0.3826  1.1717  1.1224
 9635TIP3    H250397   4.700   4.402   0.621 -0.4502  0.0047 -0.8753
 9636TIP3   OH250398   6.309   3.535  14.617 -0.4085  0.5706 -0.7843
 9636TIP3    H150399   6.377   3.507  14.679 -1.5951  0.6366  0.5930
 9636TIP3    H250400   6.286   3.455  14.571 -1.3811 -0.0928  0.7598
 9637TIP3   OH250401   5.482   1.776   6.475  0.1264  0.3903  0.1455
 9637TIP3    H150402   5.541   1.789   6.401  1.2238  1.5335  1.1815
 9637TIP3    H250403   5.513   1.836   6.543 -1.1709 -0.2262  1.3621
 9638TIP3   OH250404   5.038   1.044  13.065  0.1934 -0.6435 -0.1593
 9638TIP3    H150405   5.025   1.105  12.993 -3.3181 -0.5617  0.3659
 9638TIP3    H250406   5.030   1.098  13.144  3.2439 -0.8541  0.4418
 9639TIP3   OH250407   2.356   3.730  13.865 -0.3147 -0.2119 -0.3083
 9639TIP3    H150408   2.408   3.803  13.898  0.3788  0.4481 -2.7181
 9639TIP3    H250409   2.268   3.746  13.900  0.4277  0.2170  1.4615
 9640TIP3   OH250410   2.363   3.445  15.845 -0.1829  0.3472  0.4622
 9640TIP3    H150411   2.321   3.526  15.815 -1.5216 -0.7100 -0.6815
 9640TIP3    H250412   2.397   3.466  15.932 -2.3164  1.5720  1.0795
 9641TIP3   OH250413   5.321   1.826  16.373 -0.4354 -0.1749  0.1111
 9641TIP3    H150414   5.364   1.809  16.290 -0.4312 -1.0821  0.2906
 9641TIP3    H250415   5.369   1.773  16.436  0.5196  1.6101  0.9846
 9642TIP3   OH250416   6.277   2.180   1.884 -0.2806 -0.3670  0.4557
 9642TIP3    H150417   6.365   2.216   1.896  0.1315 -1.2290  0.1091
 9642TIP3    H250418   6.244   2.168   1.973 -1.7329  3.8114  0.6836
 9643TIP3   OH250419   5.436   1.956   3.300  0.2296 -0.0288  0.0096
 9643TIP3    H150420   5.369   2.024   3.305  0.7598  0.4962  0.0814
 9643TIP3    H250421   5.515   1.996   3.338  0.7122 -0.4717 -0.4972
 9644TIP3   OH250422   3.361   2.743  12.302  0.7711 -0.0090  0.2017
 9644TIP3    H150423   3.358   2.831  12.264 -0.3362 -0.1230 -0.0205
 9644TIP3    H250424   3.340   2.757  12.395  0.9445 -0.0040  0.2399
 9645TIP3   OH250425   6.467   6.504  14.401  0.1190  0.2068 -0.6534
 9645TIP3    H150426   6.429   6.592  14.398 -0.0785  0.1024 -1.3586
 9645TIP3    H250427   6.472   6.477  14.309  0.8845 -0.2205 -0.4948
 9646TIP3   OH250428   2.279   2.496   1.503  0.3133 -0.0454 -0.1245
 9646TIP3    H150429   2.293   2.561   1.434 -0.9305 -0.6950 -1.0310
 9646TIP3    H250430   2.265   2.547   1.582 -1.0600  0.8340 -0.9002
 9647TIP3   OH250431   4.722   6.665   4.310 -0.2197 -0.2566 -0.8228
 9647TIP3    H150432   4.706   6.577   4.344  0.8467 -0.4219 -0.7131
 9647TIP3    H250433   4.781   6.705   4.373 -0.3052  0.3617 -1.1295
 9648TIP3   OH250434   1.646   4.829   2.795 -0.0167 -0.3038  0.1170
 9648TIP3    H150435   1.574   4.891   2.784 -1.1857 -1.6361  0.0315
 9648TIP3    H250436   1.611   4.746   2.765  2.1419 -0.6569 -1.6718
 9649TIP3   OH250437   6.244   2.162  13.752 -0.1953  0.0477  0.5716
 9649TIP3    H150438   6.296   2.097  13.799 -0.0567 -0.7622 -0.6298
 9649TIP3    H250439   6.242   2.238  13.809  0.6589 -0.5938  1.4944
 9650TIP3   OH250440   1.977   2.047  16.398  1.0478  0.3048  0.7551
 9650TIP3    H150441   2.024   2.130  16.406  0.9132  0.5641 -0.7449
 9650TIP3    H250442   1.903   2.067  16.340  0.2075 -0.5514  1.5029
 9651TIP3   OH250443   6.489   5.339  15.959 -0.0537 -0.5107  0.1255
 9651TIP3    H150444   6.409   5.362  16.005  0.4076  0.1100  0.6417
 9651TIP3    H250445   6.479   5.379  15.873 -0.3009 -0.4456  0.1825
 9652TIP3   OH250446   0.721   1.597  16.329 -0.6038  0.1014  0.4880
 9652TIP3    H150447   0.694   1.680  16.368  0.5204  0.9760 -0.5291
 9652TIP3    H250448   0.815   1.592  16.344 -0.7073 -1.1773  0.8481
 9653TIP3   OH250449   6.288   0.984  13.042  0.0333 -0.0173 -0.0128
 9653TIP3    H150450   6.257   1.012  13.128  0.3633  0.4198 -0.0309
 9653TIP3    H250451   6.209   0.960  12.994 -0.2234  0.4832  0.1553
 9654TIP3   OH250452   3.511   4.524   3.828  0.1712 -0.1307 -0.0470
 9654TIP3    H150453   3.480   4.607   3.864 -0.8412  0.3721 -1.9149
 9654TIP3    H250454   3.449   4.459   3.859 -1.1236  0.4105 -1.4091
 9655TIP3   OH250455   4.329   2.762   2.064 -0.1133  0.2438 -0.5473
 9655TIP3    H150456   4.249   2.730   2.023  0.3411 -0.0593 -1.2148
 9655TIP3    H250457   4.384   2.790   1.991  0.0854  1.1728 -0.0513
 9656TIP3   OH250458   3.417   2.497  14.108 -0.0524  0.3734 -0.5282
 9656TIP3    H150459   3.447   2.551  14.035  1.9774 -1.3988 -1.0998
 9656TIP3    H250460   3.408   2.558  14.181 -0.0010  1.8228 -1.6872
 9657TIP3   OH250461   6.680   3.824   4.191 -0.2583  0.7479 -0.1736
 9657TIP3    H150462   6.742   3.752   4.181 -0.9561  0.3026 -1.6229
 9657TIP3    H250463   6.733   3.899   4.216  1.1774  0.8145 -3.0110
 9658TIP3   OH250464   2.550   2.683  16.943  0.5176  0.2489 -0.3794
 9658TIP3    H150465   2.549   2.773  16.911  0.8486 -0.4360 -2.4496
 9658TIP3    H250466   2.489   2.636  16.886  1.1812 -1.0642 -0.0509
 9659TIP3   OH250467   5.845   1.799  15.473  0.0010 -0.5513 -0.1403
 9659TIP3    H150468   5.842   1.745  15.393 -0.8134 -0.4613 -0.1816
 9659TIP3    H250469   5.778   1.760  15.530 -0.7097  0.4913 -0.2284
 9660TIP3   OH250470   1.115   2.072   3.638 -0.1083  0.4474 -0.1583
 9660TIP3    H150471   1.127   1.977   3.638  0.4833  0.5117  0.2723
 9660TIP3    H250472   1.203   2.107   3.654 -0.6770  1.0024  2.0900
 9661TIP3   OH250473   6.242   6.634   3.882  0.1491  0.3905 -0.4559
 9661TIP3    H150474   6.290   6.689   3.820 -1.0570 -0.0371 -1.8318
 9661TIP3    H250475   6.197   6.696   3.939  0.4998  0.8095 -0.6317
 9662TIP3   OH250476   1.142   6.706   3.801 -0.2488 -0.0523 -0.0107
 9662TIP3    H150477   1.146   6.754   3.719  1.0769 -0.8550 -0.4467
 9662TIP3    H250478   1.076   6.638   3.786  1.1348 -1.2442 -1.0463
 9663TIP3   OH250479   0.693   6.238  11.619  0.1729  0.5735 -0.2208
 9663TIP3    H150480   0.782   6.237  11.584  0.6168 -2.7822  0.6534
 9663TIP3    H250481   0.704   6.253  11.713 -0.1304 -0.0847 -0.0715
 9664TIP3   OH250482   1.802   2.478  11.693  0.2600  0.2848  0.2690
 9664TIP3    H150483   1.830   2.388  11.675 -0.5888  0.2360 -0.9862
 9664TIP3    H250484   1.756   2.473  11.776  2.6256  0.1145  1.6532
 9665TIP3   OH250485   1.619   3.265   0.048  0.0499  0.2865  1.1322
 9665TIP3    H150486   1.656   3.312  -0.027 -0.9615  1.2715  1.2232
 9665TIP3    H250487   1.525   3.281   0.042 -0.1744 -0.6022  1.9616
 9666TIP3   OH250488   3.606   4.334  11.459 -0.1681 -0.0088 -0.0860
 9666TIP3    H150489   3.638   4.319  11.370  2.0821 -1.1966  0.8573
 9666TIP3    H250490   3.563   4.251  11.483 -0.1164  0.0434  0.1916
 9667TIP3   OH250491   1.951   2.103  17.046  0.1374  0.0711 -0.1431
 9667TIP3    H150492   2.005   2.172  17.087  1.7844  0.3681 -2.5810
 9667TIP3    H250493   1.861   2.128  17.067  0.7497  2.0974  0.3766
 9668TIP3   OH250494   0.227   2.817  14.519  0.4774 -0.7883 -0.2145
 9668TIP3    H150495   0.318   2.791  14.505  0.5103 -0.5037 -0.5388
 9668TIP3    H250496   0.182   2.735  14.541  0.8149 -0.9246 -0.0216
 9669TIP3   OH250497   3.246   0.435   0.112  0.5334 -0.4013 -0.6862
 9669TIP3    H150498   3.245   0.343   0.084  1.8632 -0.5273 -0.3534
 9669TIP3    H250499   3.174   0.475   0.063  0.5467 -1.3995 -1.5623
 9670TIP3   OH250500   3.017   0.316   0.404 -0.0109  0.1102 -0.3977
 9670TIP3    H150501   3.050   0.362   0.480  1.4699 -0.3173 -0.7471
 9670TIP3    H250502   2.954   0.252   0.439 -0.9873  1.3646  0.2163
 9671TIP3   OH250503   2.992   5.255  11.049  0.3187  0.1661 -0.1547
 9671TIP3    H150504   3.037   5.260  10.965  0.6389 -0.7076 -0.0419
 9671TIP3    H250505   2.910   5.303  11.035  0.7584  0.7716 -0.6975
 9672TIP3   OH250506   1.066   0.979   0.583 -0.2523  0.4255 -0.7667
 9672TIP3    H150507   1.149   0.933   0.567 -1.1822 -1.3918 -0.6827
 9672TIP3    H250508   1.075   1.061   0.535  1.2492 -0.1290 -1.5168
 9673TIP3   OH250509   2.605   0.697   1.631  0.1066 -0.4437  0.1900
 9673TIP3    H150510   2.651   0.753   1.570 -1.1165 -0.0347 -0.3972
 9673TIP3    H250511   2.544   0.755   1.676 -0.1149 -1.0290  0.6610
 9674TIP3   OH250512   3.530   5.916   1.788  0.1462  0.0074  0.2389
 9674TIP3    H150513   3.470   5.986   1.812  0.6404  0.0466  1.4378
 9674TIP3    H250514   3.600   5.960   1.739  0.4280  0.3506  0.9416
 9675TIP3   OH250515   4.034   4.013   0.652  0.4213 -0.0186  0.9044
 9675TIP3    H150516   4.026   4.015   0.747  2.2327 -0.0330  1.0761
 9675TIP3    H250517   3.943   4.020   0.621 -0.1186  1.1178  2.5902
 9676TIP3   OH250518   3.165   4.510   1.498 -0.6446 -0.0437 -0.1922
 9676TIP3    H150519   3.075   4.543   1.492 -0.5449  0.2441 -0.1436
 9676TIP3    H250520   3.219   4.589   1.495 -0.4642 -0.0058  1.9229
 9677TIP3   OH250521   3.623   2.306   2.490 -0.7334 -0.0206 -0.0569
 9677TIP3    H150522   3.607   2.231   2.432  1.7656 -0.4822 -0.2663
 9677TIP3    H250523   3.708   2.340   2.461 -2.0290  3.3029 -0.3461
 9678TIP3   OH250524   1.435   2.162  14.851 -0.1475  0.7631  0.5024
 9678TIP3    H150525   1.375   2.106  14.802 -0.4694  2.3062 -0.9691
 9678TIP3    H250526   1.519   2.116  14.848 -1.0305 -1.0561  1.9392
 9679TIP3   OH250527   1.640   0.643  14.604 -0.4582 -0.2761  0.1050
 9679TIP3    H150528   1.548   0.655  14.578 -0.6192 -0.7718  0.4335
 9679TIP3    H250529   1.670   0.568  14.554  0.1360  0.6158 -0.9026
 9680TIP3   OH250530   3.190   3.118  14.351  0.1216  0.6627  0.0060
 9680TIP3    H150531   3.145   3.037  14.328 -0.0938 -0.1700  2.9240
 9680TIP3    H250532   3.121   3.185  14.348  0.0745  0.5801 -1.3920
 9681TIP3   OH250533   3.872   2.339  15.073  0.1414  0.6742  0.4475
 9681TIP3    H150534   3.804   2.404  15.088 -0.6929 -0.1299  0.2091
 9681TIP3    H250535   3.845   2.292  14.994  1.4996  1.0088 -0.2563
 9682TIP3   OH250536   1.497   2.888  14.886 -0.3103 -0.4213  0.0299
 9682TIP3    H150537   1.503   2.798  14.920  1.4158 -0.0261  0.8774
 9682TIP3    H250538   1.464   2.877  14.797 -0.2770 -1.8982  0.1622
 9683TIP3   OH250539   2.890   2.109  13.318  0.1326  0.6143  0.2951
 9683TIP3    H150540   2.859   2.038  13.374 -0.6005 -0.3851 -1.2904
 9683TIP3    H250541   2.812   2.159  13.297  0.3508  0.8151 -0.0554
 9684TIP3   OH250542   3.955   3.545  14.555 -0.3493  0.3594 -0.1412
 9684TIP3    H150543   3.881   3.585  14.510  0.0498  0.9933 -0.2419
 9684TIP3    H250544   3.969   3.462  14.509 -2.2038 -0.7142  1.0838
 9685TIP3   OH250545   5.056   1.778   1.709 -0.0222  0.5415 -0.8593
 9685TIP3    H150546   5.006   1.858   1.694 -0.3981  0.5214  0.2157
 9685TIP3    H250547   5.016   1.712   1.653 -1.3890  0.4620  0.1619
 9686TIP3   OH250548   4.012   1.708  13.306  0.1823  0.2946 -0.0944
 9686TIP3    H150549   4.017   1.648  13.232  2.6555  0.8360 -0.4517
 9686TIP3    H250550   3.940   1.768  13.283 -1.3940 -1.6045 -0.3657
 9687TIP3   OH250551   6.725   4.270  11.402  0.3113  0.0994 -0.1426
 9687TIP3    H150552   6.796   4.289  11.341  1.5703  0.4635  1.3925
 9687TIP3    H250553   6.755   4.194  11.451 -0.7447 -0.2690 -0.0432
 9688TIP3   OH250554   2.487   6.417  16.963 -0.4334  0.3039 -0.0169
 9688TIP3    H150555   2.463   6.330  16.931  1.8413 -0.9071  1.3077
 9688TIP3    H250556   2.421   6.436  17.030 -1.0312 -0.3414 -0.4019
 9689TIP3   OH250557   3.562   1.225  15.440 -0.2678  0.4711 -0.1270
 9689TIP3    H150558   3.615   1.191  15.513 -0.2359 -1.2842 -0.9173
 9689TIP3    H250559   3.472   1.201  15.463 -0.6291  2.4336  0.6605
 9690TIP3   OH250560   0.194   0.451  15.611  0.6193  0.3733  0.3824
 9690TIP3    H150561   0.179   0.533  15.563  0.1637 -0.1385 -0.3597
 9690TIP3    H250562   0.286   0.431  15.595  0.2389 -0.3285 -1.1732
 9691TIP3   OH250563   0.578   3.091   4.148  0.0479 -0.3286  0.3413
 9691TIP3    H150564   0.574   3.171   4.096  0.3762 -0.4067  0.1925
 9691TIP3    H250565   0.495   3.090   4.197 -0.4182 -0.4262 -0.4298
 9692TIP3   OH250566   5.679   1.357   4.582  0.0142 -0.2387 -0.4970
 9692TIP3    H150567   5.752   1.405   4.544  2.0356 -0.9056  2.2516
 9692TIP3    H250568   5.693   1.266   4.556 -1.7564  0.0188 -2.6369
 9693TIP3   OH250569   4.985   3.403   0.483 -0.3114  0.0673  0.4103
 9693TIP3    H150570   5.059   3.441   0.435 -0.9345 -0.4812 -1.0716
 9693TIP3    H250571   4.948   3.339   0.422 -0.0288 -2.0726  2.3389
 9694TIP3   OH250572   4.768   0.401   1.448  0.0003 -0.8834  0.0737
 9694TIP3    H150573   4.751   0.319   1.402  0.3930 -1.5818  1.1392
 9694TIP3    H250574   4.693   0.456   1.427 -0.8984 -1.9710  0.3422
 9695TIP3   OH250575   1.554   5.157  15.279  0.3285 -0.6723 -0.0316
 9695TIP3    H150576   1.481   5.213  15.254 -0.0107 -0.1594  1.9354
 9695TIP3    H250577   1.543   5.078  15.225 -0.6720  0.0746 -0.9791
 9696TIP3   OH250578   2.606   4.492  14.416 -0.5931  0.2799  0.5435
 9696TIP3    H150579   2.673   4.554  14.442  0.0376 -1.0223  2.2026
 9696TIP3    H250580   2.528   4.546  14.401 -0.4785  1.3932  3.3645
 9697TIP3   OH250581   3.788   0.796  12.800 -0.4225 -0.3982 -0.3853
 9697TIP3    H150582   3.790   0.709  12.840  0.0435  0.4719  1.6042
 9697TIP3    H250583   3.876   0.808  12.763  0.9451  0.6836  2.8527
 9698TIP3   OH250584   0.235   0.940   5.860  0.4477  0.2292  0.1628
 9698TIP3    H150585   0.192   0.867   5.815  0.2084 -0.0388  0.8195
 9698TIP3    H250586   0.265   0.902   5.942 -0.5541  1.1023  0.9585
 9699TIP3   OH250587   6.779   3.336   5.748  0.5517  0.2033  0.0095
 9699TIP3    H150588   6.852   3.286   5.783  0.2840  0.0399  0.3387
 9699TIP3    H250589   6.734   3.275   5.688 -0.2223 -0.2177  0.9891
 9700TIP3   OH250590   2.951   4.159  12.424  0.0505 -0.3008  0.6923
 9700TIP3    H150591   2.878   4.175  12.364  2.0855  0.3197 -1.7960
 9700TIP3    H250592   2.979   4.069  12.404  0.9082  0.0017  0.4930
 9701TIP3   OH250593   5.226   5.033  12.721  0.1350 -0.0522  0.1642
 9701TIP3    H150594   5.174   5.089  12.664 -1.1067 -1.3477 -0.0253
 9701TIP3    H250595   5.313   5.074  12.722  0.2944 -0.1211 -2.8261
 9702TIP3   OH250596   4.136   3.744  12.014  0.1259 -0.2152 -0.3068
 9702TIP3    H150597   4.123   3.809  11.945  0.1407 -2.8407 -2.9916
 9702TIP3    H250598   4.053   3.739  12.060 -0.0255  1.2831 -0.3911
 9703TIP3   OH250599   6.704   2.744   3.101  0.0208  0.9735  0.0451
 9703TIP3    H150600   6.742   2.664   3.065  1.0340  1.6395 -0.3994
 9703TIP3    H250601   6.739   2.749   3.190 -0.7691  0.4625  0.3996
 9704TIP3   OH250602   4.381   0.777   5.763  0.5727 -0.1378  0.1865
 9704TIP3    H150603   4.298   0.810   5.796  1.6305  0.3235  2.6508
 9704TIP3    H250604   4.388   0.689   5.801  1.1764 -0.1860 -0.0255
 9705TIP3   OH250605   6.495   4.069   2.485 -0.1417  0.3883  0.3702
 9705TIP3    H150606   6.472   4.005   2.418 -0.5011  1.8178 -0.9192
 9705TIP3    H250607   6.568   4.117   2.448  2.2039 -1.1984  2.6011
 9706TIP3   OH250608   6.462   3.595   1.962  0.5274  0.8475  0.0240
 9706TIP3    H150609   6.536   3.559   2.011  0.2106 -0.8858 -0.6994
 9706TIP3    H250610   6.392   3.601   2.026  0.4522 -0.3175  0.0715
 9707TIP3   OH250611   0.222   6.136   0.639  0.2542 -0.0480  0.2124
 9707TIP3    H150612   0.310   6.111   0.609  0.5843 -0.8902  1.7824
 9707TIP3    H250613   0.177   6.161   0.559  1.4977 -0.9372 -0.8277
 9708TIP3   OH250614   0.959   5.205  15.793 -0.0239  0.5820 -0.0447
 9708TIP3    H150615   0.980   5.259  15.717 -0.0547 -1.8605 -1.8886
 9708TIP3    H250616   1.042   5.193  15.839  0.3982  0.3485 -0.8679
 9709TIP3   OH250617   4.492   6.467   5.330  0.2739 -0.6298 -0.0119
 9709TIP3    H150618   4.442   6.425   5.260 -1.0144  0.4601  0.2086
 9709TIP3    H250619   4.531   6.544   5.289 -0.0998 -0.2447  0.3414
 9710TIP3   OH250620   2.022   1.321  16.506  0.1175 -0.2251  0.6810
 9710TIP3    H150621   2.054   1.244  16.553 -0.7719 -0.0861  1.5228
 9710TIP3    H250622   2.099   1.354  16.459  0.0033 -3.0716 -1.7662
 9711TIP3   OH250623   2.726   3.875  12.761 -0.1497  0.2421  0.2700
 9711TIP3    H150624   2.710   3.829  12.679 -2.4094  0.7453  0.3745
 9711TIP3    H250625   2.688   3.818  12.828 -1.2739  1.3500  0.6003
 9712TIP3   OH250626   1.503   0.399  11.897 -0.7096 -0.0801 -0.1249
 9712TIP3    H150627   1.579   0.412  11.952  0.1569  0.8851 -1.4879
 9712TIP3    H250628   1.435   0.454  11.935 -0.5971 -0.5782  0.8187
 9713TIP3   OH250629   6.601   6.376   6.828 -0.1043  0.1564 -0.6434
 9713TIP3    H150630   6.533   6.309   6.834 -0.4889  0.3590 -2.3789
 9713TIP3    H250631   6.558   6.457   6.853  0.5178 -0.2385  2.1153
 9714TIP3   OH250632   3.646   0.316   3.080 -0.2363  0.0303 -0.4510
 9714TIP3    H150633   3.661   0.305   3.174 -0.3031 -0.6647 -0.5135
 9714TIP3    H250634   3.626   0.228   3.049  2.9097 -0.3606 -1.6809
 9715TIP3   OH250635   3.586   3.886   4.530 -0.5300  0.8442  0.3122
 9715TIP3    H150636   3.649   3.931   4.587 -0.3527  0.3529  0.5119
 9715TIP3    H250637   3.543   3.956   4.482 -0.3878  1.2397  0.7535
 9716TIP3   OH250638   1.169   2.786   5.939 -0.8259  0.4360  0.4245
 9716TIP3    H150639   1.120   2.783   5.856 -0.5115 -0.4344  0.2540
 9716TIP3    H250640   1.103   2.777   6.007 -0.9416 -0.5512  0.2007
 9717TIP3   OH250641   0.960   2.117   4.982  0.0365  0.5283 -0.4938
 9717TIP3    H150642   0.914   2.033   4.979  1.0309 -0.0593  0.1806
 9717TIP3    H250643   0.922   2.162   5.057  0.8005 -0.1262  0.3147
 9718TIP3   OH250644   3.709   4.966  14.361 -0.9657  0.3812  0.3811
 9718TIP3    H150645   3.680   5.043  14.410  1.1767  1.5291  0.0045
 9718TIP3    H250646   3.718   4.997  14.271  2.2356  0.5068  0.6114
 9719TIP3   OH250647   4.810   1.039   0.770  0.3720 -0.0582 -0.6918
 9719TIP3    H150648   4.808   1.053   0.865  1.9026  1.0067 -0.7755
 9719TIP3    H250649   4.882   1.094   0.740 -0.3505 -0.0727 -2.5379
 9720TIP3   OH250650   4.695   5.298  10.662  0.1231  0.2532 -0.0257
 9720TIP3    H150651   4.629   5.285  10.730  0.9801 -2.2198  0.4202
 9720TIP3    H250652   4.735   5.212  10.650 -0.3311  0.3978 -4.0686
 9721TIP3   OH250653   5.110   4.427  13.372 -0.4135  0.2448 -0.0325
 9721TIP3    H150654   5.026   4.403  13.332  0.0071  0.3650 -0.9887
 9721TIP3    H250655   5.115   4.522  13.363  1.2732 -0.0077 -2.9612
 9722TIP3   OH250656   2.309   3.292   5.274 -0.3470 -0.2118 -0.1075
 9722TIP3    H150657   2.303   3.314   5.367 -1.3501  2.2061 -0.6551
 9722TIP3    H250658   2.399   3.314   5.250 -0.2675 -0.2406  0.1581
 9723TIP3   OH250659   2.174   2.740  12.608 -0.0676 -0.1640  0.3963
 9723TIP3    H150660   2.118   2.717  12.682 -0.3004 -0.2713  0.1881
 9723TIP3    H250661   2.161   2.668  12.546  0.7980 -0.5303  0.6214
 9724TIP3   OH250662   1.373   6.759  16.136 -0.2281 -0.1109  0.2120
 9724TIP3    H150663   1.295   6.712  16.164 -0.9293  0.7761 -0.1890
 9724TIP3    H250664   1.431   6.691  16.101 -0.9423 -0.7473  0.2338
 9725TIP3   OH250665   0.231   2.131  14.598 -0.0215  0.1028 -0.2294
 9725TIP3    H150666   0.290   2.067  14.637  0.8480  0.3504 -1.0729
 9725TIP3    H250667   0.184   2.170  14.672 -0.3516 -1.2850  0.3056
 9726TIP3   OH250668   1.435   2.071  12.237 -0.2482 -0.0151 -0.2710
 9726TIP3    H150669   1.454   2.031  12.322 -1.0718  1.3157  0.5848
 9726TIP3    H250670   1.370   2.139  12.257 -1.1269 -0.2543 -2.1071
 9727TIP3   OH250671   1.141   2.143   1.298  0.1516  0.1999  0.3818
 9727TIP3    H150672   1.097   2.161   1.214  2.2351  1.0395 -0.5918
 9727TIP3    H250673   1.143   2.228   1.342 -0.7355 -0.1965  1.2286
 9728TIP3   OH250674   1.604   0.383   1.504 -0.1811 -0.5615 -0.4400
 9728TIP3    H150675   1.627   0.304   1.456 -0.6777  0.6441 -2.8665
 9728TIP3    H250676   1.510   0.394   1.488 -0.0923  0.5934 -0.2756
 9729TIP3   OH250677   2.303   2.332   3.481  0.2629  0.7603 -0.1396
 9729TIP3    H150678   2.363   2.258   3.488  0.9881  0.9206 -3.3885
 9729TIP3    H250679   2.232   2.310   3.542  2.1722 -0.7953  1.6824
 9730TIP3   OH250680   3.839   0.185  12.940  0.0963 -0.3086  0.0736
 9730TIP3    H150681   3.900   0.128  12.986 -0.3343 -0.5387  0.3596
 9730TIP3    H250682   3.771   0.205  13.004  0.6210  1.1456  0.2315
 9731TIP3   OH250683   6.085   0.090  11.317  0.3689  0.2741  0.0562
 9731TIP3    H150684   6.108   0.082  11.410  1.5206  0.3633 -0.2132
 9731TIP3    H250685   6.025   0.165  11.315 -1.8264 -1.3381  1.0654
 9732TIP3   OH250686   2.387   2.582  14.070  0.0347  0.0511  0.1655
 9732TIP3    H150687   2.443   2.629  14.132  0.9971  1.7961 -1.9150
 9732TIP3    H250688   2.328   2.531  14.126  0.1479  2.3103  2.5596
 9733TIP3   OH250689   5.364   4.392   2.911  0.1433  0.7626  0.0041
 9733TIP3    H150690   5.446   4.343   2.903  0.4688  1.3119 -0.0901
 9733TIP3    H250691   5.380   4.454   2.982 -0.2444  0.7659  0.0900
 9734TIP3   OH250692   2.685   2.225  11.695 -0.1010 -0.4065  0.7401
 9734TIP3    H150693   2.712   2.304  11.649  0.8211  0.8386  3.2453
 9734TIP3    H250694   2.766   2.180  11.717 -0.5067 -0.9550  1.1754
 9735TIP3   OH250695   3.872   1.974   0.161  0.6263 -0.5818  0.1397
 9735TIP3    H150696   3.933   1.944   0.093  1.4921 -0.3179  0.7874
 9735TIP3    H250697   3.911   1.944   0.243 -0.8122 -1.5915  0.5026
 9736TIP3   OH250698   0.847   1.551   0.521  0.0296 -0.5125  0.1285
 9736TIP3    H150699   0.910   1.502   0.574  0.8205 -0.4121 -0.6959
 9736TIP3    H250700   0.895   1.630   0.494 -0.0574 -0.9527 -1.4154
 9737TIP3   OH250701   4.930   1.702  11.125  0.3978  0.3991  0.5962
 9737TIP3    H150702   5.016   1.659  11.119  0.3129  0.4322 -1.6583
 9737TIP3    H250703   4.950   1.792  11.150  0.9796  0.2783  0.5839
 9738TIP3   OH250704   5.925   3.483  11.981 -0.1507  0.3254  0.3682
 9738TIP3    H150705   5.917   3.457  12.072 -1.6259  1.1982  0.5062
 9738TIP3    H250706   5.907   3.403  11.931  1.2663 -0.3039  0.8063
 9739TIP3   OH250707   6.749   6.616  15.909 -0.4924  0.2167  0.1010
 9739TIP3    H150708   6.710   6.555  15.972 -1.6431 -0.1453 -0.9277
 9739TIP3    H250709   6.703   6.599  15.827  2.1118 -0.4790 -1.3079
 9740TIP3   OH250710   2.605   1.501  15.322  0.7627 -0.1245 -0.2152
 9740TIP3    H150711   2.562   1.559  15.385 -0.2907  0.7766 -1.6877
 9740TIP3    H250712   2.564   1.523  15.238  0.8569 -2.5061 -0.9501
 9741TIP3   OH250713   4.048   0.537  16.387 -0.4001  0.6895 -0.0966
 9741TIP3    H150714   4.097   0.609  16.426 -1.5596  1.6158 -0.2774
 9741TIP3    H250715   4.054   0.466  16.452  2.9281 -0.0531 -1.0349
 9742TIP3   OH250716   0.296   0.006   6.181 -0.2259  0.1519 -0.0329
 9742TIP3    H150717   0.288  -0.072   6.236  0.1592  0.0230 -0.1531
 9742TIP3    H250718   0.334   0.072   6.238  0.9707 -0.2281 -0.3505
 9743TIP3   OH250719   4.713   4.048   5.752 -0.1036  0.7221  0.2977
 9743TIP3    H150720   4.666   4.033   5.834 -0.0302  0.7389  0.3432
 9743TIP3    H250721   4.803   4.066   5.778  0.6542 -2.2721  0.0856
 9744TIP3   OH250722   1.953   4.764   1.196  0.0300 -0.4054 -0.1877
 9744TIP3    H150723   1.926   4.828   1.262  1.8823  0.5868 -0.2996
 9744TIP3    H250724   2.030   4.722   1.234  2.0709  1.2423 -2.2077
 9745TIP3   OH250725   4.981   0.771  14.280  0.2293 -0.4304  0.2358
 9745TIP3    H150726   5.076   0.779  14.267  0.1337  1.9511  0.4885
 9745TIP3    H250727   4.944   0.808  14.199 -0.5059 -1.4703  0.0833
 9746TIP3   OH250728   1.929   5.703  13.135  0.0091  0.9948 -0.0035
 9746TIP3    H150729   1.929   5.609  13.154 -0.9323  1.2226  1.2201
 9746TIP3    H250730   2.007   5.716  13.080  0.9793 -0.2681  0.9932
 9747TIP3   OH250731   6.362   3.882   0.116  0.7805 -0.1987  0.1599
 9747TIP3    H150732   6.410   3.914   0.193 -1.1381  0.0139  1.3354
 9747TIP3    H250733   6.357   3.957   0.058 -2.2951  1.3955  2.1992
 9748TIP3   OH250734   2.785   5.529   1.685 -0.1090  0.6839 -0.3551
 9748TIP3    H150735   2.832   5.473   1.747  0.4428  0.5377 -0.8883
 9748TIP3    H250736   2.695   5.498   1.687 -0.2933  1.2157  0.9781
 9749TIP3   OH250737   0.039   3.704   0.152  0.2964 -0.1219 -0.1691
 9749TIP3    H150738  -0.053   3.688   0.174 -0.2163 -1.3328 -2.7570
 9749TIP3    H250739   0.084   3.706   0.236 -2.2476  1.8281  1.2782
 9750TIP3   OH250740   4.849   2.906   0.018  0.2766 -0.5643  0.1283
 9750TIP3    H150741   4.763   2.881   0.050  0.4193 -0.7116  0.4016
 9750TIP3    H250742   4.847   2.882  -0.075  0.4438 -1.7318  0.4023
 9751TIP3   OH250743   2.428   3.137   3.942 -0.0123  0.3913 -0.4704
 9751TIP3    H150744   2.517   3.147   3.907  0.2669  0.2309  0.1738
 9751TIP3    H250745   2.374   3.190   3.885  0.1826 -1.0618 -2.0958
 9752TIP3   OH250746   2.845   6.428   0.091 -0.2125 -0.4278  0.0563
 9752TIP3    H150747   2.925   6.424   0.143 -0.0758 -1.8335 -0.2382
 9752TIP3    H250748   2.775   6.438   0.156  0.1682  0.8934  0.3101
 9753TIP3   OH250749   3.797   6.007  16.439 -0.1221 -0.5307 -0.2110
 9753TIP3    H150750   3.703   5.989  16.435 -0.0835 -0.5753 -1.8736
 9753TIP3    H250751   3.836   5.925  16.467 -0.6182 -0.2946  1.2327
 9754TIP3   OH250752   1.905   1.413  13.980  0.2278  0.5538  0.5759
 9754TIP3    H150753   1.956   1.342  14.020  0.7371  0.2995 -0.4915
 9754TIP3    H250754   1.920   1.403  13.886 -0.5425  1.4436  0.3487
 9755TIP3   OH250755   1.351   3.570  12.121  0.2176 -0.2573  0.9345
 9755TIP3    H150756   1.438   3.562  12.082 -0.1299 -0.5697  0.2043
 9755TIP3    H250757   1.344   3.662  12.146  0.8531 -0.2832  1.2439
 9756TIP3   OH250758   5.756   2.174   0.693  0.7954  0.3405 -0.4595
 9756TIP3    H150759   5.734   2.235   0.763  0.9246 -0.3044  0.1474
 9756TIP3    H250760   5.708   2.095   0.713  1.1420  0.0134 -0.8872
 9757TIP3   OH250761   4.458   6.735   0.653  0.3482  0.4957 -0.1984
 9757TIP3    H150762   4.371   6.704   0.626  0.8005 -0.9635 -0.0461
 9757TIP3    H250763   4.453   6.735   0.749  1.4321 -2.6055 -0.0165
 9758TIP3   OH250764   2.405   4.356   2.448 -0.1625 -0.2126 -0.2084
 9758TIP3    H150765   2.417   4.282   2.388  2.1462  0.2313 -0.3984
 9758TIP3    H250766   2.385   4.430   2.392 -0.7044 -0.3274 -0.1724
 9759TIP3   OH250767   5.518   1.032   3.391  0.2322 -0.3011  0.2310
 9759TIP3    H150768   5.425   1.024   3.371 -0.5495 -2.4327  3.7408
 9759TIP3    H250769   5.562   0.988   3.318 -1.8346 -2.5228  0.1728
 9760TIP3   OH250770   0.845   0.962   0.126  0.0647 -0.4278  0.0924
 9760TIP3    H150771   0.878   0.945   0.214 -2.0536 -0.6683  0.9011
 9760TIP3    H250772   0.875   1.050   0.105  1.3513 -0.7120  0.6737
 9761TIP3   OH250773   4.182   5.904  14.138  1.0340  0.0203  0.5503
 9761TIP3    H150774   4.112   5.864  14.189  0.8156  0.9504  1.0032
 9761TIP3    H250775   4.153   5.896  14.047 -0.3555  1.6080  0.7963
 9762TIP3   OH250776   2.758   2.048  12.198  0.3651 -0.1070 -0.2807
 9762TIP3    H150777   2.746   2.019  12.288 -2.3993 -2.9382 -1.3740
 9762TIP3    H250778   2.733   2.140  12.199  1.6243  0.2829  1.9889
 9763TIP3   OH250779   0.497   1.547  15.401  0.1802 -0.1104 -0.6365
 9763TIP3    H150780   0.508   1.564  15.494  0.8373  0.5011 -0.8198
 9763TIP3    H250781   0.412   1.586  15.380  1.0021  1.7598 -0.7392
 9764TIP3   OH250782   6.028   0.064   4.672 -0.1942  0.7502  0.5279
 9764TIP3    H150783   6.007  -0.016   4.623  0.5763 -0.4157  2.0127
 9764TIP3    H250784   6.077   0.118   4.609  1.5631 -1.0906  0.1868
 9765TIP3   OH250785   2.763   1.329   4.664 -0.1767 -0.0549 -0.2979
 9765TIP3    H150786   2.730   1.261   4.723 -0.2062 -1.7207 -2.1488
 9765TIP3    H250787   2.795   1.282   4.588 -0.1710  2.0138 -1.6590
 9766TIP3   OH250788   4.112   5.351   2.810 -0.3127 -0.3365 -0.2256
 9766TIP3    H150789   4.093   5.442   2.790 -0.1420 -0.6068 -1.7329
 9766TIP3    H250790   4.028   5.306   2.803  0.0154 -0.7255 -2.1759
 9767TIP3   OH250791   0.927   6.820   4.671  0.0513 -0.1939 -0.1087
 9767TIP3    H150792   0.908   6.762   4.745 -0.6247  0.2240  0.0578
 9767TIP3    H250793   1.022   6.829   4.671  0.0492 -0.0749  0.8214
 9768TIP3   OH250794   1.459   6.141  16.638  0.1717  0.7223 -0.9648
 9768TIP3    H150795   1.483   6.233  16.643  0.8827  0.5104 -0.2997
 9768TIP3    H250796   1.366   6.139  16.662  0.2632  1.2210 -0.5522
 9769TIP3   OH250797   2.817   3.485  12.391 -0.1723  0.6671 -0.2229
 9769TIP3    H150798   2.846   3.398  12.420 -1.0097  0.0867 -1.0541
 9769TIP3    H250799   2.854   3.494  12.303 -0.6193  0.8799 -0.3911
 9770TIP3   OH250800   4.282   2.991  14.490 -0.0931 -0.0096 -0.4771
 9770TIP3    H150801   4.226   3.050  14.540 -1.2041 -0.0906 -1.5849
 9770TIP3    H250802   4.361   2.982  14.543 -1.4650 -0.6020  1.5949
 9771TIP3   OH250803   4.048   6.804  14.711 -0.2513  0.0662  0.2832
 9771TIP3    H150804   4.010   6.776  14.794  1.5167 -2.4059  0.3964
 9771TIP3    H250805   4.132   6.843  14.735 -0.8253  1.6734 -0.2166
 9772TIP3   OH250806   5.443   0.920  11.120 -0.3456 -0.4237  0.2579
 9772TIP3    H150807   5.386   0.854  11.159  1.3712 -1.3564  1.2913
 9772TIP3    H250808   5.504   0.944  11.190  0.1863  0.9575 -0.6370
 9773TIP3   OH250809   1.908   1.811  10.913 -0.4963 -0.2930  0.4266
 9773TIP3    H150810   1.966   1.742  10.944 -1.5210 -1.8743 -0.9550
 9773TIP3    H250811   1.940   1.891  10.955  1.3787 -1.4266  1.2783
 9774TIP3   OH250812   6.484   2.065   2.935  0.4594  0.0721 -0.2171
 9774TIP3    H150813   6.502   2.047   3.027  0.2966 -1.2925 -0.4306
 9774TIP3    H250814   6.404   2.017   2.916  1.6720 -1.5105 -1.6130
 9775TIP3   OH250815   5.595   2.039  13.477  0.5446 -0.5378  0.0689
 9775TIP3    H150816   5.560   2.122  13.511  1.3511 -0.3336  0.3985
 9775TIP3    H250817   5.550   1.972  13.527 -0.8583 -0.3531 -0.8698
 9776TIP3   OH250818   0.940   5.331  13.545  0.3386  0.4928 -0.0058
 9776TIP3    H150819   0.950   5.324  13.639 -0.1872 -0.7325 -0.0219
 9776TIP3    H250820   1.016   5.381  13.516  1.2653 -0.3552  0.9091
 9777TIP3   OH250821   2.994   6.419   0.943 -0.4203  0.4539 -0.3718
 9777TIP3    H150822   2.932   6.475   0.897 -1.2488  0.2093  0.4078
 9777TIP3    H250823   2.940   6.348   0.979  0.0434  1.0191  1.5735
 9778TIP3   OH250824   4.185   3.105   4.168  0.6057 -0.2555 -0.2659
 9778TIP3    H150825   4.187   3.045   4.243  1.8417 -0.1870 -0.2216
 9778TIP3    H250826   4.195   3.192   4.207  0.8465 -0.1871 -0.4826
 9779TIP3   OH250827   0.443   0.113  14.999  0.6210 -0.1111 -0.0023
 9779TIP3    H150828   0.406   0.137  14.914  0.8210 -0.9158 -0.3344
 9779TIP3    H250829   0.491   0.032  14.981  0.5435 -0.3678  0.9112
 9780TIP3   OH250830   5.790   6.316  12.887  0.0128  0.4644  0.2709
 9780TIP3    H150831   5.826   6.263  12.958  0.1457 -1.0689 -0.8981
 9780TIP3    H250832   5.733   6.256  12.839 -0.7798  1.7160 -0.3960
 9781TIP3   OH250833   4.302   4.391  15.135 -0.0855  0.2230 -0.3260
 9781TIP3    H150834   4.315   4.442  15.215 -1.5404 -1.1899  0.8889
 9781TIP3    H250835   4.389   4.380  15.098  0.5155  1.5634  0.6494
 9782TIP3   OH250836   1.414   5.777  13.600  0.0306  0.3029  0.2656
 9782TIP3    H150837   1.413   5.702  13.660  0.8500 -0.5138 -0.6954
 9782TIP3    H250838   1.448   5.849  13.653 -0.6029 -0.0331  1.1590
 9783TIP3   OH250839   0.551   3.821   3.105 -0.2321  0.3611  0.2127
 9783TIP3    H150840   0.524   3.897   3.052 -2.2651 -0.0435  0.5728
 9783TIP3    H250841   0.470   3.792   3.147  0.6182 -1.6726  0.5392
 9784TIP3   OH250842   5.316   2.461   1.547 -0.7769  0.1194  0.1353
 9784TIP3    H150843   5.327   2.489   1.638 -1.0145 -0.2919  0.2968
 9784TIP3    H250844   5.362   2.376   1.543 -1.4229 -0.2311  0.0759
 9785TIP3   OH250845   5.434   3.549  12.312  0.1537  0.2411 -0.5923
 9785TIP3    H150846   5.482   3.545  12.394  1.2341 -0.1552 -1.2257
 9785TIP3    H250847   5.400   3.461  12.299 -0.6378  0.4839 -0.2184
 9786TIP3   OH250848   4.268   1.237   0.783  0.2118  0.0705 -0.3779
 9786TIP3    H150849   4.318   1.210   0.706  0.2688 -1.6229  0.2085
 9786TIP3    H250850   4.211   1.162   0.802  1.4896 -0.3551  2.2782
 9787TIP3   OH250851   4.483   5.440   2.695 -0.1881  0.4318 -0.7523
 9787TIP3    H150852   4.511   5.361   2.741 -0.0639 -0.0761 -1.6780
 9787TIP3    H250853   4.474   5.506   2.764  1.8199  0.2201 -0.2245
 9788TIP3   OH250854   6.611   5.033  11.615 -0.6369 -0.0356  0.3378
 9788TIP3    H150855   6.690   5.087  11.617 -1.3135  1.5003 -3.9538
 9788TIP3    H250856   6.641   4.948  11.583 -0.6610  0.8464 -2.2995
 9789TIP3   OH250857   4.898   2.629  16.633  0.4128 -0.0825  0.4034
 9789TIP3    H150858   4.863   2.624  16.723  0.7675 -0.4516  0.5230
 9789TIP3    H250859   4.980   2.580  16.637 -0.3667 -1.5377 -0.5022
 9790TIP3   OH250860   5.578   2.354  16.269  0.1140  0.2024 -0.1757
 9790TIP3    H150861   5.554   2.415  16.199  0.5351  1.5022  0.7682
 9790TIP3    H250862   5.525   2.276  16.252 -0.7251  0.9711 -1.2139
 9791TIP3   OH250863   2.300   0.195   1.739 -0.2178 -0.1662  0.1286
 9791TIP3    H150864   2.318   0.172   1.830  0.7640 -0.0232 -0.0235
 9791TIP3    H250865   2.323   0.288   1.732 -1.2433  0.0969 -0.0251
 9792TIP3   OH250866   0.678   0.009   3.654 -0.3611 -0.3293  0.2856
 9792TIP3    H150867   0.602  -0.050   3.647 -0.5311  0.0145 -1.0456
 9792TIP3    H250868   0.751  -0.042   3.618 -0.2248 -0.2019  0.3815
 9793TIP3   OH250869   2.994   1.107   2.450  0.0199  0.2698 -0.0974
 9793TIP3    H150870   2.898   1.102   2.457  0.0353 -2.6216 -0.5040
 9793TIP3    H250871   3.010   1.151   2.366 -1.0699 -1.2499 -1.1667
 9794TIP3   OH250872   1.314   2.360   3.955 -0.4090 -0.3898  0.1893
 9794TIP3    H150873   1.329   2.450   3.926 -0.2053 -0.7889 -1.0026
 9794TIP3    H250874   1.221   2.356   3.975 -0.4647  0.0314  0.0174
 9795TIP3   OH250875   1.190   0.224   3.488 -0.1484 -0.0632 -0.2111
 9795TIP3    H150876   1.280   0.228   3.522 -0.3081 -1.1367  0.3749
 9795TIP3    H250877   1.200   0.190   3.399 -0.1128 -2.5886  0.6790
 9796TIP3   OH250878   2.413   5.866   4.914  0.0473  0.0609  0.2523
 9796TIP3    H150879   2.467   5.789   4.931  0.1993  0.3511  1.1197
 9796TIP3    H250880   2.388   5.898   5.001 -1.1924  0.1669 -0.1139
 9797TIP3   OH250881   0.867   3.100  11.676  0.0676 -0.2590 -0.1665
 9797TIP3    H150882   0.899   3.011  11.691  0.6560  0.1650  1.2155
 9797TIP3    H250883   0.774   3.097  11.696  0.4862 -0.1197  2.0288
 9798TIP3   OH250884   2.811   0.308   1.361 -0.1572  0.4183 -0.2796
 9798TIP3    H150885   2.869   0.379   1.390 -1.2679  0.5856  1.6839
 9798TIP3    H250886   2.725   0.349   1.350 -1.0055 -0.7221  1.6952
 9799TIP3   OH250887   5.644   3.996   3.512 -0.1302  0.7077 -0.3165
 9799TIP3    H150888   5.661   3.935   3.583 -1.0845 -1.4405 -1.8066
 9799TIP3    H250889   5.548   4.004   3.510 -0.0687  1.4543 -0.7904
 9800TIP3   OH250890   4.919   6.480   4.126  0.1274 -0.4758  0.1939
 9800TIP3    H150891   4.828   6.454   4.141 -0.0299  0.1969  0.4880
 9800TIP3    H250892   4.951   6.502   4.214  0.0175  0.9969 -0.1090
 9801TIP3   OH250893   1.638   3.308  15.439  0.3443  0.3452  0.1010
 9801TIP3    H150894   1.708   3.262  15.393  0.6484  1.0893 -0.2037
 9801TIP3    H250895   1.557   3.271  15.403  0.5783 -0.2049  0.1289
 9802TIP3   OH250896   4.316   6.748   1.287 -0.3234 -0.0775  0.0918
 9802TIP3    H150897   4.368   6.681   1.241 -1.0767  1.9489 -4.2575
 9802TIP3    H250898   4.226   6.726   1.265 -0.6267  1.8111 -0.6760
 9803TIP3   OH250899   4.502   2.877   3.893  0.4691  0.1082  0.2301
 9803TIP3    H150900   4.595   2.869   3.914  0.0814 -0.0361  2.0301
 9803TIP3    H250901   4.464   2.792   3.918 -0.1878  0.2400 -0.2818
 9804TIP3   OH250902   3.947   2.825  12.269  0.1549  0.4404 -0.2398
 9804TIP3    H150903   3.883   2.796  12.334 -1.9846  1.8995 -1.5572
 9804TIP3    H250904   4.013   2.756  12.267 -0.4898 -0.3447  2.3673
 9805TIP3   OH250905   3.116   1.018  15.647 -0.5005  0.2456 -0.7787
 9805TIP3    H150906   3.085   1.108  15.644 -3.5042 -0.6979 -1.0339
 9805TIP3    H250907   3.071   0.975  15.575  0.1576 -1.6743 -0.0987
 9806TIP3   OH250908   4.895   4.673  17.095  0.1104  0.0283 -0.3376
 9806TIP3    H150909   4.973   4.627  17.064 -0.3318  0.3920 -2.1207
 9806TIP3    H250910   4.850   4.609  17.150  1.4662 -0.3092  0.4187
 9807TIP3   OH250911   4.057   4.386   1.363  0.3551  0.2462 -0.3021
 9807TIP3    H150912   4.149   4.375   1.387 -0.0280 -2.5655  0.2406
 9807TIP3    H250913   4.052   4.352   1.273 -0.4321 -1.6423  0.3928
 9808TIP3   OH250914   1.734   5.465  16.875 -0.1365 -0.4624  0.1076
 9808TIP3    H150915   1.683   5.432  16.949  1.2290  0.6730  1.6220
 9808TIP3    H250916   1.813   5.503  16.915  0.1274  1.2106 -1.8422
 9809TIP3   OH250917   0.442   1.993   6.518  0.1141  0.0805 -0.1075
 9809TIP3    H150918   0.519   1.935   6.523 -0.7426 -1.1094 -0.1230
 9809TIP3    H250919   0.450   2.037   6.434 -0.1133 -1.3762 -0.9205
 9810TIP3   OH250920   5.441   2.942   3.032  0.2364 -0.2928  0.5629
 9810TIP3    H150921   5.431   3.037   3.031  2.7045  0.0309  0.0327
 9810TIP3    H250922   5.424   2.915   2.942  1.0861 -0.1257  0.3434
 9811TIP3   OH250923   2.163   4.293  15.137  0.2993  0.2020 -0.6676
 9811TIP3    H150924   2.212   4.375  15.128  1.4605 -0.1989  1.3534
 9811TIP3    H250925   2.184   4.244  15.057  0.1812  1.5571 -1.5536
 9812TIP3   OH250926   4.616   0.643  12.455 -0.6158 -0.0105 -0.2431
 9812TIP3    H150927   4.617   0.713  12.520  1.0745  1.0794 -1.3755
 9812TIP3    H250928   4.575   0.682  12.378  2.9630  0.8529 -1.9138
 9813TIP3   OH250929   1.278   5.374  14.964 -0.0908 -0.1096  0.5808
 9813TIP3    H150930   1.210   5.321  15.005 -1.0369  0.3322 -0.3782
 9813TIP3    H250931   1.303   5.437  15.032 -1.4098  0.4146  0.6042
 9814TIP3   OH250932   2.584   0.707  16.282 -0.9832 -0.4352 -0.1578
 9814TIP3    H150933   2.513   0.752  16.237 -0.0268  0.1596 -1.1336
 9814TIP3    H250934   2.591   0.622  16.238 -1.8156 -0.9724  0.7005
 9815TIP3   OH250935   6.414   4.182  12.940  0.4578  0.4983  0.1082
 9815TIP3    H150936   6.412   4.276  12.923  0.6399  0.5775  0.5115
 9815TIP3    H250937   6.493   4.169  12.993  1.1090 -0.0623 -0.9591
 9816TIP3   OH250938   2.820   3.180  14.035 -0.2883  0.4007  0.2425
 9816TIP3    H150939   2.837   3.148  14.124 -0.5889  1.3876  0.6715
 9816TIP3    H250940   2.806   3.101  13.983 -1.8430 -0.1736  1.4419
 9817TIP3   OH250941   3.899   2.852  12.915  0.3805 -0.1032 -0.2561
 9817TIP3    H150942   3.898   2.947  12.905  0.7452 -0.2072 -1.3899
 9817TIP3    H250943   3.917   2.838  13.008 -0.7969  0.9357  0.1504
 9818TIP3   OH250944   0.033   6.179  15.046 -0.2277  0.2869 -0.7495
 9818TIP3    H150945   0.104   6.174  14.982  0.0091 -0.8847 -0.4227
 9818TIP3    H250946   0.025   6.272  15.066  2.6297  0.3072  0.7507
 9819TIP3   OH250947   4.303   4.780   4.913 -0.2685  0.2861  0.4069
 9819TIP3    H150948   4.255   4.833   4.849 -0.4106 -0.3495 -0.0222
 9819TIP3    H250949   4.264   4.693   4.907  1.4275 -0.4705 -0.5308
 9820TIP3   OH250950   0.165   1.180  12.453  0.2299 -0.1181 -0.6068
 9820TIP3    H150951   0.172   1.085  12.441 -1.9471 -0.6285  1.2850
 9820TIP3    H250952   0.100   1.207  12.388  1.5168  0.2607 -1.7553
 9821TIP3   OH250953   1.625   2.714  15.989  0.6651 -0.0571  0.2564
 9821TIP3    H150954   1.625   2.805  15.959  2.4615 -0.6987 -1.9378
 9821TIP3    H250955   1.674   2.716  16.070  1.5992  0.8124 -0.3032
 9822TIP3   OH250956   4.880   5.154   3.900 -0.4615  0.2983 -0.1437
 9822TIP3    H150957   4.915   5.242   3.918  0.3939 -0.0928  0.1893
 9822TIP3    H250958   4.938   5.119   3.832  0.1134 -0.5508  0.7602
 9823TIP3   OH250959   6.101   0.099  16.914  0.0005 -0.1476  0.4362
 9823TIP3    H150960   6.147   0.183  16.904 -0.7317  0.1380 -0.7777
 9823TIP3    H250961   6.118   0.073  17.004 -0.1586  1.5439  0.9886
 9824TIP3   OH250962   2.109   0.851  14.655 -0.2081 -0.2290  0.0025
 9824TIP3    H150963   2.069   0.925  14.610  0.0181 -1.3971 -2.2742
 9824TIP3    H250964   2.197   0.843  14.616 -0.2905 -1.7712  0.0514
 9825TIP3   OH250965   5.149   1.499  12.997  0.1818 -0.0089  0.3251
 9825TIP3    H150966   5.137   1.438  13.070  0.3717  0.4775  0.7657
 9825TIP3    H250967   5.069   1.552  12.997 -1.8893 -2.6995 -2.4708
 9826TIP3   OH250968   1.391   3.727   0.615  0.0979 -0.5598 -0.1179
 9826TIP3    H150969   1.320   3.684   0.569  0.3845 -0.9553 -0.1958
 9826TIP3    H250970   1.416   3.800   0.558 -0.0706 -0.5755 -0.2127
 9827TIP3   OH250971   2.191   3.525  14.119  0.6736  0.0565 -0.0241
 9827TIP3    H150972   2.258   3.564  14.175 -0.4752  0.9668  0.7841
 9827TIP3    H250973   2.159   3.598  14.066 -0.9457  0.0728  0.9241
 9828TIP3   OH250974   1.673   4.630  12.497 -0.1087  0.1103  0.6164
 9828TIP3    H150975   1.705   4.695  12.559 -0.2499 -0.8160  1.6971
 9828TIP3    H250976   1.681   4.546  12.544 -1.6145 -0.4408 -0.0419
 9829TIP3   OH250977   1.381   5.118  14.009  0.1606  0.0366 -0.6802
 9829TIP3    H150978   1.317   5.047  13.996  0.5889 -0.5775  0.4287
 9829TIP3    H250979   1.461   5.073  14.036  0.8475  0.8560 -1.3088
 9830TIP3   OH250980   1.529   2.238  13.276 -0.3776 -0.1115 -0.0124
 9830TIP3    H150981   1.497   2.148  13.264  1.4670 -0.8212  0.0911
 9830TIP3    H250982   1.506   2.260  13.366  0.2386 -0.9612  0.3657
 9831TIP3   OH250983   2.034   6.469  17.048  0.2810 -0.2656  0.6515
 9831TIP3    H150984   2.119   6.496  17.014  0.4887 -0.2515  1.1839
 9831TIP3    H250985   1.975   6.541  17.025  0.7440  0.4724  1.6939
 9832TIP3   OH250986   3.679   5.479   6.858  0.2158  0.8179 -0.0870
 9832TIP3    H150987   3.749   5.451   6.800 -0.7630  1.1317 -1.4620
 9832TIP3    H250988   3.694   5.572   6.872  0.8333  0.6068  0.7374
 9833TIP3   OH250989   2.570   6.189   0.023  0.4959  0.4548  0.3306
 9833TIP3    H150990   2.484   6.210  -0.015  0.6930  0.3589 -0.1647
 9833TIP3    H250991   2.567   6.095   0.039  0.5334  0.4396  0.2494
 9834TIP3   OH250992   0.911   1.343   4.806 -0.0191  0.3006  0.1839
 9834TIP3    H150993   0.892   1.266   4.860  1.7401  0.0363  0.4970
 9834TIP3    H250994   0.977   1.312   4.744 -0.0033  1.3224 -0.3251
 9835TIP3   OH250995   1.358   4.198  14.376 -0.0861 -0.2661  0.0734
 9835TIP3    H150996   1.276   4.206  14.328  0.2871  2.3482 -0.3071
 9835TIP3    H250997   1.425   4.193  14.308  0.2813  1.2547  0.2764
 9836TIP3   OH250998   2.798   5.950   6.541  0.7812  0.9191  0.4794
 9836TIP3    H150999   2.851   6.026   6.515  1.1054  1.1774  1.8023
 9836TIP3    H251000   2.713   5.965   6.500  1.5132  0.8449 -1.1329
 9837TIP3   OH251001   1.971   1.181  11.367  0.3210 -0.1678 -0.2758
 9837TIP3    H151002   1.934   1.093  11.364  0.3401 -0.2752  1.6633
 9837TIP3    H251003   1.906   1.236  11.324 -0.7907 -0.7907  0.5561
 9838TIP3   OH251004   2.252   4.548   4.415 -0.1251  0.0286 -0.4082
 9838TIP3    H151005   2.305   4.584   4.486  0.7137  3.3160 -2.4733
 9838TIP3    H251006   2.302   4.472   4.385 -0.3514 -1.2665  2.2012
 9839TIP3   OH251007   5.204   4.093  11.992  0.3706 -0.0580  0.1062
 9839TIP3    H151008   5.231   4.002  11.982  4.4334  1.0338 -0.6182
 9839TIP3    H251009   5.139   4.107  11.923 -1.4838 -2.6342  1.1573
 9840TIP3   OH251010   0.923   3.534  15.727  0.1399  0.0553 -0.1684
 9840TIP3    H151011   0.853   3.540  15.792 -1.8498  2.2631 -2.2866
 9840TIP3    H251012   0.929   3.441  15.705 -1.2620 -0.3296  0.9660
 9841TIP3   OH251013   5.585   0.816   2.017 -0.0724  0.5948 -0.4637
 9841TIP3    H151014   5.534   0.849   2.091 -2.0674  0.9754 -1.9333
 9841TIP3    H251015   5.530   0.832   1.941  2.3267  1.1534 -2.1979
 9842TIP3   OH251016   1.179   2.969   3.615  0.5320  0.4269  0.3171
 9842TIP3    H151017   1.129   2.924   3.684  0.3586  0.2962  0.1061
 9842TIP3    H251018   1.243   3.022   3.663 -0.5808  1.5140  0.6277
 9843TIP3   OH251019   3.152   4.638  12.788  0.1638  0.3393 -0.5123
 9843TIP3    H151020   3.105   4.642  12.871 -1.2322 -0.2061 -1.2471
 9843TIP3    H251021   3.158   4.729  12.759  0.5454  0.5191  0.1110
 9844TIP3   OH251022   3.612   6.215  13.829 -0.2610 -0.2504 -0.2309
 9844TIP3    H151023   3.608   6.295  13.882  2.0686 -0.6577  0.6773
 9844TIP3    H251024   3.695   6.174  13.853 -0.8685 -2.3966 -1.4980
 9845TIP3   OH251025   3.485   0.672  10.286 -0.3002  0.5832 -0.0515
 9845TIP3    H151026   3.469   0.637  10.374 -0.8503  0.7936 -0.0645
 9845TIP3    H251027   3.553   0.738  10.299 -1.0202  1.2611  0.3704
 9846TIP3   OH251028   2.249   1.428  12.123 -0.1715 -0.1141 -0.1341
 9846TIP3    H151029   2.176   1.491  12.119 -0.7404 -0.8044 -1.4184
 9846TIP3    H251030   2.225   1.369  12.194 -0.3394  0.2728  0.1376
 9847TIP3   OH251031   3.865   2.145  13.401 -0.1763  0.6162  0.0568
 9847TIP3    H151032   3.799   2.175  13.464  1.0745  2.4610  0.5709
 9847TIP3    H251033   3.944   2.132  13.453 -0.1160 -1.8445 -0.5045
 9848TIP3   OH251034   3.444   6.282   4.433 -0.2742 -0.0121 -0.5060
 9848TIP3    H151035   3.395   6.209   4.395 -0.1998 -0.1870 -0.2700
 9848TIP3    H251036   3.411   6.289   4.523  0.0093 -0.0233 -0.3997
 9849TIP3   OH251037   1.028   6.232  16.207 -0.1405 -0.1888  0.2775
 9849TIP3    H151038   0.996   6.267  16.124  1.2178 -0.2687 -0.3132
 9849TIP3    H251039   1.122   6.220  16.193  0.4384  1.3553  2.3653
 9850TIP3   OH251040   4.565   4.066   2.078  0.0207 -0.0248 -0.0345
 9850TIP3    H151041   4.644   4.097   2.034 -0.7983 -1.0368 -2.4222
 9850TIP3    H251042   4.549   3.980   2.039 -2.7507  0.5455 -0.3349
 9851TIP3   OH251043   5.465   5.759   1.176  0.5891 -0.0281  0.6622
 9851TIP3    H151044   5.426   5.768   1.089  1.6205 -1.0286  0.0771
 9851TIP3    H251045   5.456   5.666   1.197 -0.5813  0.3734  2.0999
 9852TIP3   OH251046   4.185   0.451   4.893 -0.3555 -0.1353 -0.4513
 9852TIP3    H151047   4.093   0.430   4.878 -0.2812 -0.8864  0.0725
 9852TIP3    H251048   4.189   0.478   4.985 -0.2234  0.9180 -0.7567
 9853TIP3   OH251049   2.220   5.862   5.524 -0.2449  0.0775 -0.0368
 9853TIP3    H151050   2.253   5.791   5.578  1.2622  0.3916 -0.5199
 9853TIP3    H251051   2.126   5.844   5.516  0.1718 -2.0785 -0.5107
 9854TIP3   OH251052   1.904   4.091   0.712  0.1099  0.2251 -0.3856
 9854TIP3    H151053   1.930   4.182   0.697  1.7648  0.3877  2.7478
 9854TIP3    H251054   1.864   4.091   0.799  1.7160 -2.2980  0.4571
 9855TIP3   OH251055   3.348   2.776   0.396 -0.1687  0.2273 -0.3724
 9855TIP3    H151056   3.338   2.865   0.429 -2.2943 -0.7907  2.1344
 9855TIP3    H251057   3.258   2.746   0.382  0.5212 -1.2551 -2.0244
 9856TIP3   OH251058   4.098   0.860   5.755 -0.8775 -0.0945  0.0161
 9856TIP3    H151059   4.092   0.889   5.846 -0.6462  1.1477 -0.3360
 9856TIP3    H251060   4.008   0.840   5.730 -1.2930  1.7195 -0.1142
 9857TIP3   OH251061   5.726   6.692  11.176  0.3027 -0.4837 -0.3813
 9857TIP3    H151062   5.805   6.639  11.170 -1.1951 -2.6521 -2.6470
 9857TIP3    H251063   5.754   6.780  11.150  2.0097 -1.1096 -0.7909
 9858TIP3   OH251064   4.849   5.416  11.803 -0.3702  0.3049 -0.2342
 9858TIP3    H151065   4.837   5.323  11.821 -1.5595  0.3689 -0.6243
 9858TIP3    H251066   4.800   5.460  11.872  1.4478  0.7050  0.8750
 9859TIP3   OH251067   5.639   6.566  16.648 -0.1906  0.0927 -0.7495
 9859TIP3    H151068   5.638   6.483  16.696 -1.3861  0.2140 -0.5432
 9859TIP3    H251069   5.601   6.544  16.563 -0.4589  0.4250 -0.7139
 9860TIP3   OH251070   6.459   4.194   4.583 -0.0322  0.3706  0.2922
 9860TIP3    H151071   6.365   4.193   4.603 -0.4027  0.6341 -1.3275
 9860TIP3    H251072   6.464   4.205   4.488  1.6567  1.6708  0.4745
 9861TIP3   OH251073   4.262   2.963  15.161  0.1636  0.5163  0.5652
 9861TIP3    H151074   4.314   3.025  15.110  0.4068 -0.5836 -0.5646
 9861TIP3    H251075   4.177   2.962  15.119 -0.1956  0.8921  1.2614
 9862TIP3   OH251076   0.716   5.265   1.650  0.2131  0.4687  0.6227
 9862TIP3    H151077   0.740   5.314   1.728 -0.0783 -1.2369  1.8392
 9862TIP3    H251078   0.791   5.208   1.632  0.8506  1.7717 -1.1989
 9863TIP3   OH251079   4.309   1.668   4.132 -0.7229 -0.9418  0.2917
 9863TIP3    H151080   4.365   1.717   4.193 -0.1847  0.1013 -0.9810
 9863TIP3    H251081   4.370   1.632   4.068 -1.4718  0.1788 -1.1012
 9864TIP3   OH251082   5.902   2.661   3.668  0.0596 -0.1438 -0.7987
 9864TIP3    H151083   5.812   2.687   3.650  0.5477  0.5488 -2.4330
 9864TIP3    H251084   5.944   2.740   3.701  0.6571  0.2066 -2.3518
 9865TIP3   OH251085   4.804   0.193  12.107 -0.1927 -0.1591  0.4835
 9865TIP3    H151086   4.739   0.237  12.051 -0.0684  0.0236  0.4804
 9865TIP3    H251087   4.871   0.163  12.046 -0.7492 -1.2231  0.3673
 9866TIP3   OH251088   2.231   3.556  12.133  0.0269  0.4995 -0.1588
 9866TIP3    H151089   2.278   3.520  12.058 -1.5061 -2.8403  0.3105
 9866TIP3    H251090   2.139   3.537  12.116 -0.6376  2.0316  1.3779
 9867TIP3   OH251091   5.698   1.988  10.745 -0.2073 -0.0950  0.1812
 9867TIP3    H151092   5.780   1.963  10.786  0.4261 -1.0835 -1.5914
 9867TIP3    H251093   5.711   2.078  10.717  0.1423 -0.1325  0.2232
 9868TIP3   OH251094   6.359   5.026  14.942 -0.4534  0.2095  0.6713
 9868TIP3    H151095   6.371   5.107  14.991  2.4916  0.1272  0.3010
 9868TIP3    H251096   6.392   4.957  15.001  1.1768 -0.1263 -0.5324
 9869TIP3   OH251097   0.234   3.165  17.090 -0.2945  0.4869  0.2840
 9869TIP3    H151098   0.273   3.223  17.155 -0.2469  2.5984 -1.5225
 9869TIP3    H251099   0.292   3.171  17.014 -1.3457 -0.4180 -0.6290
 9870TIP3   OH251100   4.181   4.864  15.931 -0.3392 -0.3000 -0.0342
 9870TIP3    H151101   4.251   4.929  15.927  0.5800 -1.0925  2.0336
 9870TIP3    H251102   4.151   4.866  16.022 -2.6785 -0.3689 -0.7273
 9871TIP3   OH251103   3.883   2.388   5.695 -0.4324 -0.1981 -0.2422
 9871TIP3    H151104   3.845   2.437   5.768  1.4917  0.1860  0.5537
 9871TIP3    H251105   3.846   2.430   5.617  0.8292  2.3180  0.4090
 9872TIP3   OH251106   5.330   6.809   6.295  0.5136  0.0383 -0.3544
 9872TIP3    H151107   5.278   6.738   6.332 -0.4734  1.4250  1.0296
 9872TIP3    H251108   5.265   6.867   6.255  1.1141  1.0832  0.1611
 9873TIP3   OH251109   0.577   1.383  16.418  0.3378 -0.6233  0.7312
 9873TIP3    H151110   0.623   1.460  16.383 -0.3651 -1.0241 -1.1256
 9873TIP3    H251111   0.634   1.309  16.397  0.1247 -0.8234  0.8518
 9874TIP3   OH251112   5.395   0.979  16.243  0.1581  0.7301 -0.1384
 9874TIP3    H151113   5.490   0.980  16.248  0.1682 -0.2552  0.1607
 9874TIP3    H251114   5.375   1.024  16.161  1.0133 -1.1137 -1.4349
 9875TIP3   OH251115   5.810   2.144   4.329 -0.1277  0.0039 -0.5147
 9875TIP3    H151116   5.816   2.235   4.356  1.2179 -0.1225 -0.3131
 9875TIP3    H251117   5.886   2.102   4.368 -0.7886 -1.2431 -0.4981
 9876TIP3   OH251118   4.946   6.372   6.572 -0.5936  0.2931 -0.2480
 9876TIP3    H151119   5.036   6.349   6.546 -0.7301  0.9261 -1.3340
 9876TIP3    H251120   4.897   6.374   6.490 -1.1448  1.9716  0.0889
 9877TIP3   OH251121   3.363   5.634  12.611  0.0601  0.8890 -0.2442
 9877TIP3    H151122   3.302   5.560  12.609  0.3294  0.6383  0.4183
 9877TIP3    H251123   3.446   5.596  12.639 -0.1835  1.6761  1.7599
 9878TIP3   OH251124   5.174   4.259   1.018  0.3895 -0.9009  0.2246
 9878TIP3    H151125   5.223   4.225   1.093  2.0993 -0.3969 -0.6016
 9878TIP3    H251126   5.223   4.336   0.990 -0.7387 -0.5309 -0.8373
 9879TIP3   OH251127   3.920   1.932  15.073 -0.0923  0.4133 -0.5348
 9879TIP3    H151128   4.004   1.954  15.113  0.3366  1.4907 -1.9393
 9879TIP3    H251129   3.938   1.855  15.019  0.1991  1.0928 -1.4299
 9880TIP3   OH251130   0.960   3.440  12.186  0.8208 -0.1543  0.0340
 9880TIP3    H151131   1.043   3.409  12.148 -0.2833 -1.0978 -1.7769
 9880TIP3    H251132   0.894   3.381  12.150 -0.4602 -0.7530  3.0804
 9881TIP3   OH251133   2.379   2.377  13.654 -0.0973 -0.2269 -0.5583
 9881TIP3    H151134   2.442   2.449  13.654  0.4823 -0.7229 -0.1069
 9881TIP3    H251135   2.433   2.298  13.656 -0.7183 -0.6694  2.2911
 9882TIP3   OH251136   6.627   5.544  15.520  0.2586 -0.3902 -0.1723
 9882TIP3    H151137   6.661   5.624  15.559  0.9322 -0.9864  0.4848
 9882TIP3    H251138   6.604   5.569  15.430  3.0180 -0.0811 -0.8862
 9883TIP3   OH251139   3.961   0.141   5.787 -1.2205 -0.0278  0.6230
 9883TIP3    H151140   3.959   0.157   5.881 -1.2897 -0.8051  0.7620
 9883TIP3    H251141   3.996   0.221   5.749 -1.6714  0.4797  1.2652
 9884TIP3   OH251142   3.103   3.730   1.116  0.1571 -0.3264  0.6329
 9884TIP3    H151143   3.026   3.742   1.061 -0.2007 -1.0312  0.9710
 9884TIP3    H251144   3.142   3.818   1.122 -0.0608 -0.1481 -0.3438
 9885TIP3   OH251145   2.956   2.982  13.746  0.8477 -0.0110  0.0229
 9885TIP3    H151146   3.009   2.980  13.666  3.1647 -1.7772  1.4568
 9885TIP3    H251147   2.972   3.069  13.783  1.6731 -0.0275 -0.2734
 9886TIP3   OH251148   3.479   3.876  12.520  0.1368 -0.3447 -0.4620
 9886TIP3    H151149   3.470   3.867  12.425  2.4313  2.0444 -1.0598
 9886TIP3    H251150   3.416   3.944  12.544 -0.2164 -0.7204 -0.3142
 9887TIP3   OH251151   4.258   5.306   0.918 -0.0504 -0.6324  0.3732
 9887TIP3    H151152   4.220   5.231   0.965  0.8422 -1.2725  0.1021
 9887TIP3    H251153   4.314   5.266   0.851 -0.4553  0.2766 -0.5298
 9888TIP3   OH251154   6.616   4.812   0.845  0.2580  0.0319 -0.2959
 9888TIP3    H151155   6.573   4.776   0.922  2.5488 -3.1875 -0.3076
 9888TIP3    H251156   6.589   4.754   0.773  1.6370  0.2062 -0.9829
 9889TIP3   OH251157   2.989   2.527   4.996 -0.0458 -0.0943  0.1399
 9889TIP3    H151158   3.076   2.561   4.976  0.2368 -0.9590 -0.1302
 9889TIP3    H251159   2.935   2.555   4.923 -0.0554  0.6540  0.4284
 9890TIP3   OH251160   4.212   4.760   3.746 -0.2052  0.4358 -0.6670
 9890TIP3    H151161   4.121   4.784   3.725 -0.0087  0.5158 -1.4823
 9890TIP3    H251162   4.265   4.822   3.695  0.3218 -1.8012 -3.0552
 9891TIP3   OH251163   0.644   2.063   3.267 -0.2106 -0.0302 -0.1199
 9891TIP3    H151164   0.683   1.997   3.324 -1.1688 -0.0085  0.5923
 9891TIP3    H251165   0.666   2.034   3.179  2.5512  0.7230  0.2200
 9892TIP3   OH251166   4.229   6.501  12.914  0.0447  0.0935 -0.2480
 9892TIP3    H151167   4.138   6.485  12.937  0.1030 -2.5509 -1.5372
 9892TIP3    H251168   4.277   6.426  12.950  1.4284  0.4805 -1.2051
 9893TIP3   OH251169   2.465   4.412  13.221  0.2925 -0.2886 -0.6352
 9893TIP3    H151170   2.454   4.385  13.130 -0.4268 -2.5248  0.0618
 9893TIP3    H251171   2.380   4.445  13.248 -0.6785 -3.2433  0.2758
 9894TIP3   OH251172   1.608   4.978  16.965  0.6305 -0.6818  0.2883
 9894TIP3    H151173   1.610   4.912  17.035 -0.7089 -0.1799  0.8311
 9894TIP3    H251174   1.515   4.988  16.944  0.9207  0.0978 -0.6913
 9895TIP3   OH251175   4.624   6.062  14.672 -0.9791  0.0702 -0.0616
 9895TIP3    H151176   4.672   6.026  14.597  0.4586 -0.6657  1.1618
 9895TIP3    H251177   4.656   6.152  14.678 -0.7910  0.0050 -0.0798
 9896TIP3   OH251178   6.625   4.530  13.619  0.3881 -0.2363 -0.2029
 9896TIP3    H151179   6.658   4.594  13.556  1.5826 -1.6194 -1.0665
 9896TIP3    H251180   6.698   4.517  13.680  1.7028 -3.3342 -2.1308
 9897TIP3   OH251181   1.991   0.957  13.371 -0.4985 -0.0433 -0.5142
 9897TIP3    H151182   1.935   0.885  13.401 -0.4304  0.1534  0.1094
 9897TIP3    H251183   1.967   0.970  13.280 -1.5169  0.0803 -0.2383
 9898TIP3   OH251184   6.676   3.171  16.520  0.1089 -0.1019 -0.1141
 9898TIP3    H151185   6.709   3.256  16.546 -0.5546  0.2066 -0.2496
 9898TIP3    H251186   6.717   3.109  16.580  0.3508  0.3441  0.1817
 9899TIP3   OH251187   5.491   2.028   0.187  0.0716 -0.2170  0.2753
 9899TIP3    H151188   5.569   1.986   0.224 -0.4556 -0.6604  0.9120
 9899TIP3    H251189   5.433   1.955   0.166 -0.0168  0.0909 -0.5561
 9900TIP3   OH251190   3.331   4.719  10.761  0.0804 -0.7521  0.3072
 9900TIP3    H151191   3.315   4.653  10.693 -0.6264 -0.1871 -0.0890
 9900TIP3    H251192   3.414   4.759  10.737 -1.2380  1.0465 -1.5902
 9901TIP3   OH251193   6.034   0.231  15.847  0.2114 -0.1799 -0.0199
 9901TIP3    H151194   6.059   0.217  15.756  0.0430  0.8055 -0.2329
 9901TIP3    H251195   6.114   0.213  15.897  0.4736 -0.1301 -0.4204
 9902TIP3   OH251196   1.756   5.936  16.851 -0.0089 -0.4119  0.5218
 9902TIP3    H151197   1.702   5.972  16.921  0.3270 -1.1132  1.1592
 9902TIP3    H251198   1.695   5.883  16.799 -1.1910  3.1511 -2.1332
 9903TIP3   OH251199   0.210   1.137  14.331  0.1845 -0.1951  0.1720
 9903TIP3    H151200   0.147   1.067  14.347  0.5916 -0.3406  1.1800
 9903TIP3    H251201   0.283   1.093  14.287  1.2351 -0.8023  2.4111
 9904TIP3   OH251202   5.930   6.825  12.517  0.4465 -0.3869  0.1577
 9904TIP3    H151203   5.994   6.892  12.493  0.3081  0.0084  0.8965
 9904TIP3    H251204   5.981   6.744  12.523  0.6942 -0.2637 -0.2705
 9905TIP3   OH251205   5.307   0.578  16.275 -0.2456 -0.6962  0.3665
 9905TIP3    H151206   5.225   0.608  16.315 -1.9111 -2.7021 -1.3210
 9905TIP3    H251207   5.320   0.637  16.201  0.8025  0.6488  1.5592
 9906TIP3   OH251208   5.106   0.865   4.822  0.0430  0.1250  0.6424
 9906TIP3    H151209   5.101   0.958   4.844 -3.6546  0.5459 -1.3123
 9906TIP3    H251210   5.070   0.859   4.734 -0.7368 -3.2677  1.0560
 9907TIP3   OH251211   0.103   4.582   5.333 -0.4968 -0.2699 -0.0778
 9907TIP3    H151212   0.087   4.505   5.388 -2.2229  0.5808  0.6805
 9907TIP3    H251213   0.088   4.657   5.391  1.9475  0.6975 -0.5643
 9908TIP3   OH251214   4.187   3.391  12.837  0.3420  0.6191  0.1551
 9908TIP3    H151215   4.257   3.359  12.779  0.4853 -0.0345  0.6843
 9908TIP3    H251216   4.170   3.318  12.897 -2.1881 -0.0004 -1.1993
 9909TIP3   OH251217   2.161   3.080  14.070  0.3209 -0.2016  0.2510
 9909TIP3    H151218   2.180   3.035  14.152  1.7540 -1.9526 -0.9574
 9909TIP3    H251219   2.066   3.090  14.070  0.1063 -1.8039  1.3299
 9910TIP3   OH251220   2.307   5.102   0.988 -0.0637  0.4406  0.3188
 9910TIP3    H151221   2.337   5.015   1.015 -1.2016 -0.2815 -0.6490
 9910TIP3    H251222   2.366   5.128   0.917  0.3474  0.5211  0.6852
 9911TIP3   OH251223   5.652   6.271   0.329  0.4201  0.0528 -0.5932
 9911TIP3    H151224   5.560   6.298   0.321 -0.2040 -1.3363  1.1158
 9911TIP3    H251225   5.699   6.353   0.346 -0.7881  0.6045  0.2795
 9912TIP3   OH251226   6.593   2.454   4.337 -1.0760 -0.0347 -0.2186
 9912TIP3    H151227   6.590   2.543   4.372 -0.3755 -0.4170  0.8906
 9912TIP3    H251228   6.525   2.452   4.270  0.0031  1.8044 -1.4487
 9913TIP3   OH251229   1.356   3.956   1.820 -0.3003  0.3036  0.1761
 9913TIP3    H151230   1.300   3.882   1.796  1.0077 -0.9271  0.7605
 9913TIP3    H251231   1.425   3.917   1.874 -0.8393  2.3203  2.4685
 9914TIP3   OH251232   6.382   4.437   0.987 -0.7080 -0.4439  0.1228
 9914TIP3    H151233   6.303   4.464   1.033 -1.1651 -1.5245 -0.0068
 9914TIP3    H251234   6.418   4.366   1.040  0.0553 -0.1182  0.0570
 9915TIP3   OH251235   1.937   0.063  15.799  0.3949  0.0862  0.5267
 9915TIP3    H151236   1.872   0.114  15.752  0.8969  0.3958  0.1599
 9915TIP3    H251237   1.940   0.103  15.886 -0.9734 -0.8679  1.0480
 9916TIP3   OH251238   6.272   4.212  17.224 -0.6717 -0.5680  0.2588
 9916TIP3    H151239   6.196   4.171  17.265 -1.4546  1.5785  1.0678
 9916TIP3    H251240   6.244   4.231  17.134  0.5567 -3.9475 -0.9920
 9917TIP3   OH251241   2.431   2.394  10.874  0.3047  0.1852  0.0660
 9917TIP3    H151242   2.381   2.333  10.820  1.1379 -0.8547  0.4508
 9917TIP3    H251243   2.400   2.481  10.846 -0.7256 -0.3882 -0.6458
 9918TIP3   OH251244   3.543   1.558   5.290 -0.3421  0.1261 -0.3903
 9918TIP3    H151245   3.488   1.561   5.368  0.3832  0.9354  0.1044
 9918TIP3    H251246   3.483   1.573   5.217 -0.9420 -0.1175  0.0434
 9919TIP3   OH251247   1.035   6.172  14.976 -0.0717 -0.2696 -0.7975
 9919TIP3    H151248   0.997   6.089  15.004 -1.8570  0.4592 -0.9381
 9919TIP3    H251249   1.045   6.163  14.881  0.0737 -0.4343 -0.7679
 9920TIP3   OH251250   2.717   5.847   5.058  0.1388 -0.3709  0.0410
 9920TIP3    H151251   2.677   5.816   5.139 -2.2744  0.8939 -0.5892
 9920TIP3    H251252   2.734   5.767   5.008 -0.9595 -0.9981  0.6373
 9921TIP3   OH251253   1.015   1.239  16.750  0.1634 -0.1635  0.0664
 9921TIP3    H151254   1.050   1.287  16.675  0.2806 -0.3002  0.0328
 9921TIP3    H251255   0.923   1.266  16.755  0.5127  0.9476  0.7567
 9922TIP3   OH251256   0.114   1.089  11.753  0.5381  0.1140  0.3063
 9922TIP3    H151257   0.048   1.045  11.700  0.1900  1.8372 -0.7781
 9922TIP3    H251258   0.182   1.114  11.691  0.4950  1.4885  0.7767
 9923TIP3   OH251259   0.608   4.785  12.089  0.6041  0.0197 -0.4068
 9923TIP3    H151260   0.590   4.722  12.019  1.2343 -1.9615  1.0912
 9923TIP3    H251261   0.544   4.763  12.157  0.8497  1.0332  0.1712
 9924TIP3   OH251262   4.450   5.197   1.767  0.0075  0.6454  0.4750
 9924TIP3    H151263   4.417   5.124   1.714  1.1628 -0.6045  1.4055
 9924TIP3    H251264   4.419   5.275   1.721 -1.6054 -0.4081 -0.3435
 9925TIP3   OH251265   5.669   5.551  14.480 -0.3666  0.6934  0.3622
 9925TIP3    H151266   5.701   5.638  14.453  2.4072 -0.7708 -1.5327
 9925TIP3    H251267   5.739   5.516  14.535 -0.8276 -0.8542  0.0063
 9926TIP3   OH251268   1.467   3.151   5.841  0.0607 -0.7033 -0.3176
 9926TIP3    H151269   1.557   3.183   5.843 -0.7717  1.8068 -0.0933
 9926TIP3    H251270   1.449   3.125   5.932  0.4538 -0.9642 -0.3117
 9927TIP3   OH251271   1.172   2.204   3.239  0.8190 -0.4013 -0.9210
 9927TIP3    H151272   1.182   2.184   3.145  0.8868 -0.9763 -0.7949
 9927TIP3    H251273   1.077   2.202   3.253  0.8338 -0.8834 -0.8622
 9928TIP3   OH251274   1.411   1.269  16.617 -0.8544  0.0482 -0.6001
 9928TIP3    H151275   1.394   1.195  16.559 -0.1678  0.3155 -1.1632
 9928TIP3    H251276   1.419   1.230  16.704  1.2755 -0.8143 -1.1224
 9929TIP3   OH251277   2.116   3.404  16.162 -0.3411 -0.3655 -0.8467
 9929TIP3    H151278   2.131   3.330  16.103  0.8807 -1.4236  0.6899
 9929TIP3    H251279   2.134   3.369  16.249  0.5579  1.8013 -0.0790
 9930TIP3   OH251280   6.018   1.280   1.091  0.3157 -0.3525  0.5086
 9930TIP3    H151281   6.099   1.325   1.116 -0.0552  0.5008  0.2023
 9930TIP3    H251282   5.955   1.351   1.076 -0.2433 -0.9723 -0.1220
 9931TIP3   OH251283   3.196   0.632  16.095 -0.6095 -0.6593 -0.0107
 9931TIP3    H151284   3.159   0.544  16.089  1.7785 -1.6812 -1.2083
 9931TIP3    H251285   3.233   0.648  16.008  2.4657 -0.1576  1.2681
 9932TIP3   OH251286   2.684   3.267  12.957 -0.1302  0.0786  0.0851
 9932TIP3    H151287   2.596   3.251  12.925  0.2287  0.9780 -1.4557
 9932TIP3    H251288   2.733   3.188  12.933  0.2095  0.8658 -1.9807
 9933TIP3   OH251289   1.264   0.539   1.724  0.0321 -0.2294 -0.3856
 9933TIP3    H151290   1.297   0.611   1.669  0.8237 -1.8430 -2.1312
 9933TIP3    H251291   1.286   0.460   1.675  0.2125 -1.7516  2.0145
 9934TIP3   OH251292   4.401   2.017  16.669 -0.3470 -0.6367 -0.2191
 9934TIP3    H151293   4.368   2.104  16.648 -0.9559 -1.2805 -2.2189
 9934TIP3    H251294   4.496   2.023  16.656 -0.5728 -0.6781 -2.1306
 9935TIP3   OH251295   4.249   4.812  12.873  0.6329  0.0092  0.0061
 9935TIP3    H151296   4.265   4.736  12.930 -1.0388  0.1210  0.7102
 9935TIP3    H251297   4.312   4.878  12.903  0.9807 -0.5419  0.5245
 9936TIP3   OH251298   0.847   4.414   4.285  0.3363 -0.3359 -0.7887
 9936TIP3    H151299   0.903   4.341   4.311  0.4034 -0.1440 -0.3825
 9936TIP3    H251300   0.909   4.483   4.261  0.3063  0.1801  0.4990
 9937TIP3   OH251301   6.472   2.191  11.554 -0.2815 -0.1550  0.0004
 9937TIP3    H151302   6.505   2.245  11.482  0.1245  1.5117  1.3636
 9937TIP3    H251303   6.551   2.153  11.593  0.0703  2.4845  2.2105
 9938TIP3   OH251304   5.104   6.313   0.174 -0.0087 -0.3067 -0.3997
 9938TIP3    H151305   5.141   6.371   0.108 -1.1661  2.3118  1.0844
 9938TIP3    H251306   5.127   6.353   0.258 -1.9828 -1.2196  0.6726
 9939TIP3   OH251307   1.369   1.340   5.975  0.0148 -0.0844 -0.5190
 9939TIP3    H151308   1.459   1.367   5.995  0.1035 -0.2984 -0.6249
 9939TIP3    H251309   1.359   1.356   5.882 -0.5883  1.4592 -0.2317
 9940TIP3   OH251310   6.688   5.304   0.338 -0.5011  0.0666  0.2999
 9940TIP3    H151311   6.642   5.386   0.356 -0.7214  0.1838 -0.7174
 9940TIP3    H251312   6.767   5.331   0.291 -1.1009 -0.3406 -1.0084
 9941TIP3   OH251313   4.719   4.291  15.798  0.5237 -0.4481 -0.0634
 9941TIP3    H151314   4.756   4.286  15.886 -1.9504 -0.2985  1.0888
 9941TIP3    H251315   4.716   4.385  15.779  1.2021 -0.4881 -0.3948
 9942TIP3   OH251316   5.625   1.779  13.817  0.0409  0.0725 -0.1435
 9942TIP3    H151317   5.662   1.868  13.819 -0.2304  0.1987 -0.5932
 9942TIP3    H251318   5.543   1.786  13.865  0.5099 -0.1742  0.7219
 9943TIP3   OH251319   6.781   4.814   2.626 -0.7665  0.1531 -0.1075
 9943TIP3    H151320   6.830   4.741   2.587 -1.8782 -0.8423  0.2952
 9943TIP3    H251321   6.823   4.892   2.590  0.2078 -0.6804 -0.8709
 9944TIP3   OH251322   0.033   4.866  12.449 -0.3811 -0.0756  0.1698
 9944TIP3    H151323  -0.062   4.857  12.442 -0.3483 -1.8767  1.2218
 9944TIP3    H251324   0.046   4.950  12.493 -1.4202  0.6137 -0.7860
 9945TIP3   OH251325   1.954   5.578  16.960 -0.4952  0.0209  0.0141
 9945TIP3    H151326   2.014   5.636  16.912 -0.8691  0.2528 -0.1712
 9945TIP3    H251327   2.012   5.528  17.018 -0.0173 -0.3796 -0.7911
 9946TIP3   OH251328   4.506   3.724  11.697 -0.1453 -0.2757 -0.5176
 9946TIP3    H151329   4.453   3.716  11.776  2.2114  0.9522  1.3415
 9946TIP3    H251330   4.526   3.633  11.673 -1.1597 -0.6879  0.1039
 9947TIP3   OH251331   5.459   2.527  15.784 -0.5693  0.0546 -0.0722
 9947TIP3    H151332   5.501   2.467  15.845  0.9858  0.5321 -0.6226
 9947TIP3    H251333   5.439   2.474  15.707 -0.7932 -0.1297  0.1125
 9948TIP3   OH251334   0.588   0.887  12.961 -0.6122 -0.4767  0.1302
 9948TIP3    H151335   0.648   0.960  12.976  0.1316 -0.9244 -0.6233
 9948TIP3    H251336   0.545   0.908  12.878 -1.7330 -0.0135  0.8066
 9949TIP3   OH251337   1.435   6.230   2.209 -0.2359 -0.6699 -0.1172
 9949TIP3    H151338   1.427   6.138   2.233 -0.1223 -0.9193 -0.9954
 9949TIP3    H251339   1.497   6.230   2.136  0.1899  0.1659  0.2379
 9950TIP3   OH251340   0.501   3.260  10.764 -0.4173  0.7155  0.3512
 9950TIP3    H151341   0.485   3.345  10.723 -0.8123 -0.1376 -1.3625
 9950TIP3    H251342   0.479   3.196  10.696 -0.0117 -0.7640  1.5535
 9951TIP3   OH251343   2.821   6.135   0.095 -0.3695  0.2469 -0.4816
 9951TIP3    H151344   2.850   6.220   0.127 -0.7061  0.8820 -1.8038
 9951TIP3    H251345   2.732   6.151   0.061  0.6183  0.1106 -3.4427
 9952TIP3   OH251346   1.126   3.399  16.043 -0.3272  0.3503 -0.5230
 9952TIP3    H151347   1.160   3.385  16.132  0.2464 -0.4642 -0.8522
 9952TIP3    H251348   1.199   3.438  15.995 -0.0544 -0.7686 -1.0578
 9953TIP3   OH251349   4.054   3.445   4.581  0.3900  0.0039  0.9120
 9953TIP3    H151350   4.055   3.499   4.659 -1.0769 -0.6091  1.3923
 9953TIP3    H251351   3.962   3.445   4.553  0.4860 -1.6026  0.5030
 9954TIP3   OH251352   1.433   2.355  11.769 -0.1201 -0.0112 -0.4252
 9954TIP3    H151353   1.455   2.357  11.676 -0.2995 -1.2651 -0.5070
 9954TIP3    H251354   1.362   2.419  11.778 -1.4028 -1.2333 -1.5148
 9955TIP3   OH251355   5.318   5.065   4.104 -0.0887 -0.5188 -0.0168
 9955TIP3    H151356   5.271   5.113   4.037 -1.7613 -1.4804  0.4215
 9955TIP3    H251357   5.409   5.062   4.073 -0.9352 -1.5863 -2.6319
 9956TIP3   OH251358   3.079   1.356  13.739  0.2024  0.2196 -0.4755
 9956TIP3    H151359   3.128   1.439  13.736  0.5192  0.0714  0.3246
 9956TIP3    H251360   3.146   1.289  13.724  0.2161  0.0271  0.4004
 9957TIP3   OH251361   4.582   0.848   2.837 -0.2323  0.0328 -0.3849
 9957TIP3    H151362   4.574   0.935   2.798 -1.1396 -0.1138 -0.5448
 9957TIP3    H251363   4.637   0.861   2.914 -1.6477  1.0462  0.4922
 9958TIP3   OH251364   6.717   0.370   1.161  0.4815 -0.1070 -0.2650
 9958TIP3    H151365   6.699   0.421   1.082  1.7420 -1.4171 -1.4556
 9958TIP3    H251366   6.631   0.361   1.204 -0.2414  0.5404 -1.5142
 9959TIP3   OH251367   2.665   1.539   2.570  0.3708 -0.7665  0.2900
 9959TIP3    H151368   2.729   1.490   2.622  0.3211 -1.0266  0.1029
 9959TIP3    H251369   2.581   1.519   2.610  0.4132 -0.3406  0.6022
 9960TIP3   OH251370   3.447   4.604   1.192  0.2730  0.5966  0.5398
 9960TIP3    H151371   3.361   4.565   1.204  0.9923 -2.0865 -1.8414
 9960TIP3    H251372   3.435   4.669   1.123 -0.4304  3.0312  2.7786
 9961TIP3   OH251373   2.417   2.831  14.840 -0.4565 -0.3411 -0.4183
 9961TIP3    H151374   2.393   2.923  14.829  0.4337 -0.1144 -0.6020
 9961TIP3    H251375   2.366   2.801  14.915  1.9791  1.3738  2.1527
 9962TIP3   OH251376   4.500   1.411   2.627  0.6480  0.5193 -0.2760
 9962TIP3    H151377   4.556   1.452   2.562  1.5901 -1.2159 -0.6179
 9962TIP3    H251378   4.540   1.434   2.711  0.3737  1.4070 -0.3819
 9963TIP3   OH251379   5.915   5.371  11.540 -0.4749 -0.1215 -0.3032
 9963TIP3    H151380   5.976   5.355  11.467 -1.6378  1.6873 -1.7601
 9963TIP3    H251381   5.969   5.414  11.606  0.6584 -1.9946  0.0700
 9964TIP3   OH251382   1.791   6.193   3.383 -0.2459  0.2369 -0.3824
 9964TIP3    H151383   1.819   6.249   3.456  1.3610 -0.2519 -0.5802
 9964TIP3    H251384   1.857   6.124   3.380 -0.4469  0.0838 -2.1239
 9965TIP3   OH251385   0.194   0.322  17.209  0.1360 -0.5595  0.2795
 9965TIP3    H151386   0.252   0.375  17.155 -0.0910 -0.4779  0.1155
 9965TIP3    H251387   0.210   0.232  17.179  0.9819 -0.6598  0.9917
 9966TIP3   OH251388   4.961   0.431   5.825  0.2762 -0.2848  0.1155
 9966TIP3    H151389   5.013   0.399   5.751  0.8647  2.6270 -0.8849
 9966TIP3    H251390   4.903   0.497   5.786 -0.7438 -0.0150  1.9762
 9967TIP3   OH251391   2.269   3.042   3.175 -0.6017 -0.1093  0.1138
 9967TIP3    H151392   2.339   3.102   3.202 -1.9650  1.8531 -0.5290
 9967TIP3    H251393   2.253   2.988   3.253  1.5401 -0.5789  0.2921
 9968TIP3   OH251394   4.607   4.080  15.272 -0.5552  0.1315  0.1703
 9968TIP3    H151395   4.554   4.005  15.247 -0.7806  0.3325  0.0454
 9968TIP3    H251396   4.655   4.051  15.350  0.4111 -0.6077 -0.6662
 9969TIP3   OH251397   1.337   2.436   0.236  0.0683 -0.0987  0.1005
 9969TIP3    H151398   1.270   2.371   0.257 -1.2955  1.5164  1.0789
 9969TIP3    H251399   1.403   2.426   0.305 -0.3486 -0.1708  0.4931
 9970TIP3   OH251400   4.813   3.727   0.849  0.1162 -0.3339  0.0699
 9970TIP3    H151401   4.846   3.787   0.916  1.1463 -0.0530 -0.6555
 9970TIP3    H251402   4.737   3.772   0.812 -2.3094 -1.7361  2.9276
 9971TIP3   OH251403   0.083   2.964   0.053  0.5914  0.1378  0.0464
 9971TIP3    H151404   0.071   2.960   0.148  1.3384 -1.5554  0.1069
 9971TIP3    H251405   0.136   3.043   0.039  0.1527  0.6232  0.9806
 9972TIP3   OH251406   3.830   4.667  15.919 -0.1597 -0.0416  0.2449
 9972TIP3    H151407   3.788   4.609  15.855  0.4860 -0.6200  0.3320
 9972TIP3    H251408   3.920   4.674  15.890 -0.2716  1.1276  0.1066
 9973TIP3   OH251409   3.838   2.726   2.402 -0.6938  0.0643 -0.2008
 9973TIP3    H151410   3.763   2.739   2.460  0.1660  0.9189  0.7426
 9973TIP3    H251411   3.844   2.808   2.353 -1.3181 -0.5912 -1.4334
 9974TIP3   OH251412   4.927   2.446   1.097 -0.0948 -0.3926  0.4837
 9974TIP3    H151413   4.833   2.437   1.083 -0.0217  0.9105 -1.0724
 9974TIP3    H251414   4.965   2.450   1.009  1.2628  0.5677  1.0748
 9975TIP3   OH251415   2.879   1.657   5.974  0.7527 -0.1537  0.6661
 9975TIP3    H151416   2.950   1.657   5.910  1.1114  2.7723  0.8933
 9975TIP3    H251417   2.917   1.700   6.051 -0.7849 -0.0743  1.4103
 9976TIP3   OH251418   4.920   6.625   5.940  0.0646  0.6853 -0.4394
 9976TIP3    H151419   5.006   6.589   5.959 -0.2286  0.1909 -0.0380
 9976TIP3    H251420   4.908   6.611   5.846 -0.2755 -0.7597 -0.1906
 9977TIP3   OH251421   4.360   6.158  14.567 -0.2244 -0.7721  0.2354
 9977TIP3    H151422   4.337   6.169  14.660  0.3233 -1.3612  0.4443
 9977TIP3    H251423   4.438   6.103  14.568  0.8516  0.6780 -0.4982
 9978TIP3   OH251424   4.739   0.529  14.478 -0.1023  0.1937 -0.5128
 9978TIP3    H151425   4.812   0.532  14.540 -0.0163  0.2593 -0.6180
 9978TIP3    H251426   4.772   0.476  14.405  0.1917  1.0567 -1.0211
 9979TIP3   OH251427   2.661   0.569   0.495 -0.3832  0.4656  0.0311
 9979TIP3    H151428   2.727   0.579   0.426 -0.5331  0.3943 -0.1259
 9979TIP3    H251429   2.651   0.474   0.505  0.2316  0.4680  0.7314
 9980TIP3   OH251430   5.721   2.715   2.755  0.4845 -0.0292  0.0014
 9980TIP3    H151431   5.737   2.791   2.811 -0.7140 -0.1294  0.4941
 9980TIP3    H251432   5.652   2.742   2.696  0.1529 -0.6871  0.0841
 9981TIP3   OH251433   5.299   5.608  16.877 -0.3412  0.0576 -0.1261
 9981TIP3    H151434   5.211   5.593  16.840 -0.8301  1.5741  0.3430
 9981TIP3    H251435   5.289   5.686  16.930  0.5516 -1.5217  2.5609
 9982TIP3   OH251436   5.922   6.195   1.552 -0.1763  0.4242  0.1202
 9982TIP3    H151437   5.948   6.116   1.601  1.7778  1.9550  1.7669
 9982TIP3    H251438   5.951   6.178   1.463  0.9282 -0.4452  0.6081
 9983TIP3   OH251439   3.441   2.327  16.831  0.2722  0.2276  0.3646
 9983TIP3    H151440   3.490   2.283  16.762  0.9428 -1.0607  1.6014
 9983TIP3    H251441   3.489   2.408  16.848  0.8108 -0.0469  0.1566
 9984TIP3   OH251442   6.702   2.566  13.463 -0.0179  0.0995  0.3749
 9984TIP3    H151443   6.792   2.535  13.476 -0.4429 -1.3182  0.0226
 9984TIP3    H251444   6.677   2.532  13.377 -0.6820  1.0443  0.1760
 9985TIP3   OH251445   6.825   2.645   4.331  0.2659  0.3790 -0.5919
 9985TIP3    H151446   6.884   2.572   4.346  0.5870  0.8148  0.3591
 9985TIP3    H251447   6.753   2.608   4.280 -0.7428 -1.1936  1.7965
 9986TIP3   OH251448   0.697   6.344   4.541 -0.6292 -0.2294 -0.4171
 9986TIP3    H151449   0.783   6.371   4.509 -0.4901 -0.3283 -0.1371
 9986TIP3    H251450   0.642   6.340   4.463  0.2446 -2.5969 -0.9923
 9987TIP3   OH251451   5.579   5.187  14.661 -0.2897 -0.4894  0.7385
 9987TIP3    H151452   5.491   5.224  14.653 -0.5426 -1.2356 -0.1692
 9987TIP3    H251453   5.613   5.223  14.743 -1.3963 -0.1068  1.0494
 9988TIP3   OH251454   1.324   5.607  11.201  0.4038  0.3546 -0.7960
 9988TIP3    H151455   1.328   5.511  11.191  0.3506  0.4281 -1.6667
 9988TIP3    H251456   1.346   5.640  11.114 -0.5419  1.1214 -0.7537
 9989TIP3   OH251457   1.049   4.228   2.017  0.8715 -0.0066 -0.7721
 9989TIP3    H151458   1.142   4.240   2.000  1.1063  0.9065  0.8965
 9989TIP3    H251459   1.025   4.149   1.968  2.2548  0.3295 -2.0787
 9990TIP3   OH251460   2.397   4.485  12.227 -0.4735  0.5631  0.1252
 9990TIP3    H151461   2.414   4.515  12.316 -2.7901  0.3708  0.7010
 9990TIP3    H251462   2.379   4.565  12.178  1.5808  0.7439 -0.4216
 9991TIP3   OH251463   2.411   5.402  12.549  0.6676  0.1911 -0.1412
 9991TIP3    H151464   2.424   5.463  12.622 -1.4102  0.0318  0.4242
 9991TIP3    H251465   2.417   5.315  12.589  0.9853  0.0708 -0.4492
 9992TIP3   OH251466   4.657   4.438   4.274  0.2100 -0.4370  0.1705
 9992TIP3    H151467   4.656   4.424   4.179 -2.1814 -0.2406  0.1081
 9992TIP3    H251468   4.670   4.351   4.311 -1.5436 -0.9556 -0.3498
 9993TIP3   OH251469   0.057   6.133   6.097 -0.2132 -0.0907  0.0683
 9993TIP3    H151470   0.019   6.056   6.055  2.1273 -1.7498  0.7827
 9993TIP3    H251471  -0.017   6.179   6.136 -1.8389 -1.2223 -1.5451
 9994TIP3   OH251472   4.180   2.202   0.122 -0.0117 -0.3709 -0.1257
 9994TIP3    H151473   4.174   2.263   0.049  2.8696 -1.5273 -1.4615
 9994TIP3    H251474   4.255   2.233   0.173  2.1615 -3.1764 -1.3768
 9995TIP3   OH251475   3.378   6.193   1.924  0.1964 -0.0103  0.4581
 9995TIP3    H151476   3.388   6.287   1.938 -0.1332 -0.2449  2.8411
 9995TIP3    H251477   3.436   6.153   1.990 -1.2324 -1.4276  0.9345
 9996TIP3   OH251478   2.864   2.726  13.133 -0.1641 -0.0210  0.3012
 9996TIP3    H151479   2.885   2.686  13.048 -0.7655 -0.7581  0.4944
 9996TIP3    H251480   2.842   2.653  13.190 -0.4265  0.5197  0.9124
 9997TIP3   OH251481   4.454   4.271  14.186 -0.2968 -0.1927 -0.1118
 9997TIP3    H151482   4.415   4.343  14.234 -0.9429  0.1950 -1.1761
 9997TIP3    H251483   4.484   4.310  14.104  1.0264 -0.7796  0.0559
 9998TIP3   OH251484   1.254   1.659  14.425 -0.5914 -0.0967 -0.5070
 9998TIP3    H151485   1.243   1.753  14.415 -1.8841  0.0259  1.3650
 9998TIP3    H251486   1.167   1.623  14.410 -0.0505 -1.0426 -1.4862
 9999TIP3   OH251487   3.536   6.557  16.385  0.0783  0.3512 -0.2349
 9999TIP3    H151488   3.568   6.629  16.330  0.2108  0.3647 -0.1410
 9999TIP3    H251489   3.452   6.533  16.345  0.0811  0.4885 -0.3285
10000TIP3   OH251490   0.088   5.327   2.834 -0.0754  0.3683 -0.5640
10000TIP3    H151491   0.180   5.352   2.830 -0.5101  2.3975  0.8577
10000TIP3    H251492   0.064   5.335   2.926 -1.4335 -1.1444 -0.7402
10001TIP3   OH251493   6.712   5.941  13.893 -0.2187 -0.2430  0.7132
10001TIP3    H151494   6.753   6.010  13.841  1.0306 -1.7221 -0.3526
10001TIP3    H251495   6.758   5.861  13.868 -3.6572 -2.0518 -0.5167
10002TIP3   OH251496   0.948   0.407  11.691  0.1285  0.2503  0.3873
10002TIP3    H151497   0.859   0.397  11.724 -0.0947  0.9438  0.0222
10002TIP3    H251498   0.956   0.500  11.670  0.4803 -0.0337 -0.8528
10003TIP3   OH251499   1.949   4.010   5.140  0.0348 -0.1105 -0.1170
10003TIP3    H151500   2.027   3.987   5.192 -0.5667 -2.9637 -0.3088
10003TIP3    H251501   1.882   4.029   5.206 -0.5286 -3.0295  0.3138
10004TIP3   OH251502   5.561   1.306   0.357  0.2646 -0.3485 -0.0935
10004TIP3    H151503   5.625   1.378   0.349 -0.4769  0.2659 -0.6586
10004TIP3    H251504   5.612   1.232   0.389  0.9696  0.5431  0.9014
10005TIP3   OH251505   1.562   6.133  13.284 -0.5994 -0.2854 -0.3368
10005TIP3    H151506   1.540   6.169  13.370 -0.0547 -0.2203 -0.2250
10005TIP3    H251507   1.588   6.043  13.302  0.2066 -0.0589 -0.3415
10006TIP3   OH251508   0.495   6.250   0.519  0.5837  0.2434 -0.4033
10006TIP3    H151509   0.513   6.323   0.577  0.1447  0.2549 -0.2793
10006TIP3    H251510   0.443   6.288   0.448 -0.8722 -0.1998  0.3800
10007TIP3   OH251511   0.819   3.690  12.976 -0.4353  0.3567 -0.1728
10007TIP3    H151512   0.839   3.700  13.069  0.9195  6.1588 -0.6819
10007TIP3    H251513   0.882   3.625  12.944  0.8148  0.1254  2.5030
10008TIP3   OH251514   6.662   6.469   2.174 -0.0291 -0.2700  0.4966
10008TIP3    H151515   6.658   6.390   2.229  1.0879 -0.0103  0.9827
10008TIP3    H251516   6.754   6.474   2.147  0.1613  1.4271  1.3221
10009TIP3   OH251517   5.194   4.636   4.361 -0.0043 -0.1922 -0.0095
10009TIP3    H151518   5.202   4.682   4.445 -0.1096  0.7703 -0.5094
10009TIP3    H251519   5.260   4.677   4.305 -0.6602 -0.0800 -0.7151
10010TIP3   OH251520   1.807   4.019  13.999 -0.1846 -0.5501 -0.0960
10010TIP3    H151521   1.734   3.958  14.011 -0.5156 -0.1229  0.0632
10010TIP3    H251522   1.779   4.075  13.926 -0.9697  1.0284  1.3701
10011TIP3   OH251523   5.630   2.071   5.025  0.3891 -0.3527  0.1350
10011TIP3    H151524   5.591   2.153   4.997  2.6213 -0.0999 -2.7019
10011TIP3    H251525   5.724   2.091   5.034  0.9287 -2.4697 -0.2262
10012TIP3   OH251526   5.035   6.074   1.831 -0.1874  0.3147  0.1996
10012TIP3    H151527   5.127   6.098   1.817  0.0478 -0.7813 -0.2036
10012TIP3    H251528   4.993   6.156   1.856  0.8872  0.8460  0.3281
10013TIP3   OH251529   4.404   2.950  15.392  0.1497  0.3882 -0.5138
10013TIP3    H151530   4.390   2.941  15.298 -0.7676 -2.6946 -0.2076
10013TIP3    H251531   4.337   3.011  15.421 -1.1997 -0.5453 -1.5557
10014TIP3   OH251532   3.207   4.270   4.936  0.6240  0.6967  0.8977
10014TIP3    H151533   3.235   4.280   4.845  0.1835 -0.3108  0.6440
10014TIP3    H251534   3.154   4.348   4.953  1.5371  1.3980  0.6201
10015TIP3   OH251535   0.335   5.594   3.193 -0.4225  0.5328 -0.2185
10015TIP3    H151536   0.413   5.556   3.234  0.2024 -2.8284 -3.9016
10015TIP3    H251537   0.262   5.548   3.234 -0.1599  0.4148  0.1250
10016TIP3   OH251538   0.305   4.910  16.250 -0.1656 -0.1340 -0.3528
10016TIP3    H151539   0.327   4.932  16.340  1.1531 -3.4064  0.2582
10016TIP3    H251540   0.385   4.874  16.213 -1.6301 -2.4008 -1.5890
10017TIP3   OH251541   4.636   5.685  15.251  0.3067  0.5681  0.3613
10017TIP3    H151542   4.684   5.625  15.194 -0.5968 -0.7739  0.9615
10017TIP3    H251543   4.546   5.682  15.217  0.5804  3.0973 -0.7997
10018TIP3   OH251544   6.287   5.852  15.820  0.3069  0.2860  0.4651
10018TIP3    H151545   6.208   5.906  15.818 -2.7041 -3.6544  1.2630
10018TIP3    H251546   6.315   5.848  15.728 -3.1153 -1.5712 -0.6747
10019TIP3   OH251547   0.618   2.628  16.191  0.2621  0.4875  0.0038
10019TIP3    H151548   0.560   2.646  16.117 -1.3841  0.7997  1.3282
10019TIP3    H251549   0.574   2.666  16.267  1.5623 -0.4347  1.2777
10020TIP3   OH251550   2.385   5.093   6.329 -0.1784  0.4163 -0.0470
10020TIP3    H151551   2.299   5.084   6.288  0.4605  0.1593 -1.3774
10020TIP3    H251552   2.387   5.184   6.359 -0.9686  0.3777  0.1559
10021TIP3   OH251553   1.431   5.759   3.166  0.4643  0.5320 -0.1224
10021TIP3    H151554   1.509   5.761   3.110  0.4743  0.4191 -0.1128
10021TIP3    H251555   1.357   5.766   3.106  0.5113  3.0846  0.0027
10022TIP3   OH251556   0.261   0.502   2.071 -0.4121 -0.1913 -0.5732
10022TIP3    H151557   0.249   0.558   1.994  0.0345  0.6704 -0.0289
10022TIP3    H251558   0.196   0.432   2.060 -0.2674 -0.1525 -1.7897
10023TIP3   OH251559   3.157   3.558  15.126 -0.6100 -0.2390 -0.0631
10023TIP3    H151560   3.184   3.563  15.218  3.3348 -0.8075 -1.0243
10023TIP3    H251561   3.080   3.502  15.127 -0.7116 -0.2316  2.8652
10024TIP3   OH251562   2.360   0.811  15.682 -0.3431  0.7038 -0.0292
10024TIP3    H151563   2.285   0.845  15.633  0.2620 -0.1458 -1.6084
10024TIP3    H251564   2.436   0.848  15.637  0.2383  1.7048  1.6619
10025TIP3   OH251565   0.915   5.791   3.823 -0.0033  0.9707 -0.3025
10025TIP3    H151566   0.923   5.774   3.917 -2.1432  0.6104 -0.1499
10025TIP3    H251567   0.911   5.887   3.816 -0.4525  0.9792  0.0405
10026TIP3   OH251568   6.315   1.408  15.717 -0.7070 -0.5050  0.4627
10026TIP3    H151569   6.241   1.347  15.722  0.0057 -1.3436  1.1363
10026TIP3    H251570   6.358   1.401  15.803  0.8665 -0.9536 -0.3215
10027TIP3   OH251571   3.526   4.862  13.696  0.0810 -0.1324 -0.2978
10027TIP3    H151572   3.610   4.830  13.729 -0.0755  0.6309  0.9017
10027TIP3    H251573   3.477   4.885  13.775 -0.3584  1.6783 -1.0484
10028TIP3   OH251574   5.299   4.337   4.765 -0.4659 -0.3402 -0.1184
10028TIP3    H151575   5.251   4.392   4.826 -1.3246 -1.9026  0.6506
10028TIP3    H251576   5.267   4.364   4.678 -1.1931  0.0641  0.2691
10029TIP3   OH251577   1.200   4.181  15.024  0.7023  0.0262 -0.3999
10029TIP3    H151578   1.115   4.175  15.068  1.0404  0.6884  0.3806
10029TIP3    H251579   1.210   4.274  15.004  1.1217 -0.0852 -0.7286
10030TIP3   OH251580   6.198   3.788  11.731 -0.0350 -0.2183 -0.9074
10030TIP3    H151581   6.174   3.869  11.687 -0.3036  0.3207  0.1867
10030TIP3    H251582   6.116   3.759  11.772  0.1225 -0.9003 -1.0686
10031TIP3   OH251583   5.686   4.508   3.627 -0.1526 -0.7768  0.0353
10031TIP3    H151584   5.696   4.413   3.625 -0.3663 -0.8299  1.0834
10031TIP3    H251585   5.743   4.539   3.557 -1.5095 -1.7787 -1.5978
10032TIP3   OH251586   5.062   0.367  11.089  0.0335  0.0330  0.0307
10032TIP3    H151587   5.151   0.349  11.059  0.2488 -1.4546  1.3905
10032TIP3    H251588   5.009   0.299  11.048 -0.1708 -0.1566  0.6021
10033TIP3   OH251589   6.120   4.295  14.310  0.0454 -0.0045 -0.0952
10033TIP3    H151590   6.082   4.381  14.291 -1.2930 -0.6064 -0.2757
10033TIP3    H251591   6.081   4.237  14.244  0.4697 -0.8630  0.3959
10034TIP3   OH251592   6.267   1.243  14.021  1.2988  0.2085 -0.5140
10034TIP3    H151593   6.356   1.223  14.050  0.5868  0.0066  1.7478
10034TIP3    H251594   6.252   1.333  14.047 -0.1237 -0.6563  1.9465
10035TIP3   OH251595   2.711   2.932  12.826  0.3233  0.1145 -0.1312
10035TIP3    H151596   2.708   2.895  12.915  0.8006 -1.2533 -0.6538
10035TIP3    H251597   2.640   2.996  12.825  0.5225  0.4004  1.3383
10036TIP3   OH251598   0.628   1.202   5.397  0.4467 -0.0783  0.5526
10036TIP3    H151599   0.674   1.133   5.445  2.7408 -0.1729 -1.5389
10036TIP3    H251600   0.661   1.193   5.307 -2.9712  0.5967 -0.8989
10037TIP3   OH251601   6.161   0.570   6.159  0.1404 -0.1611  0.1202
10037TIP3    H151602   6.244   0.546   6.201  1.1715  0.0422 -1.7011
10037TIP3    H251603   6.111   0.613   6.228  1.5107 -0.3942  1.3031
10038TIP3   OH251604   0.839   3.867  14.306 -0.4306  0.1385 -0.9386
10038TIP3    H151605   0.911   3.908  14.354 -1.1493 -0.5356  0.8181
10038TIP3    H251606   0.765   3.927  14.319 -0.1582  0.9933 -3.0007
10039TIP3   OH251607   6.274   0.449   2.114 -0.4618 -0.2235  0.1396
10039TIP3    H151608   6.364   0.420   2.126 -0.5705 -0.4323  0.4741
10039TIP3    H251609   6.227   0.413   2.190 -0.5874  0.8728  0.6021
10040TIP3   OH251610   3.749   4.691   3.230  0.2116  0.0634 -0.0673
10040TIP3    H151611   3.670   4.679   3.177  0.1622 -1.6183  0.3079
10040TIP3    H251612   3.812   4.733   3.171 -0.8685  1.2142 -0.4433
10041TIP3   OH251613   1.778   2.032   2.122  0.2648 -0.0491  0.3494
10041TIP3    H151614   1.860   2.062   2.159  0.7837 -0.5947 -0.3383
10041TIP3    H251615   1.718   2.029   2.196  0.9789 -0.0542  0.9362
10042TIP3   OH251616   2.532   2.249   0.691  0.4600 -0.2066 -0.0292
10042TIP3    H151617   2.445   2.222   0.721  0.3819  0.9652  0.8790
10042TIP3    H251618   2.593   2.210   0.754  0.4557  0.3897  0.3553
10043TIP3   OH251619   3.085   2.008   1.449  0.1794  0.0551 -0.2047
10043TIP3    H151620   3.126   2.093   1.463  0.7802 -0.6246  2.9802
10043TIP3    H251621   3.156   1.952   1.417  0.6925 -0.0422  1.0423
10044TIP3   OH251622   3.994   6.812  15.981 -0.5616  0.4078 -0.3341
10044TIP3    H151623   3.924   6.859  16.026  0.2463  0.3264  1.0562
10044TIP3    H251624   4.058   6.793  16.049  0.2272 -0.6433 -1.3315
10045TIP3   OH251625   1.605   5.047  15.945 -0.0851  0.2367  0.1376
10045TIP3    H151626   1.558   5.120  15.903 -0.9697  0.0354  0.7479
10045TIP3    H251627   1.696   5.058  15.917 -0.2180  1.5279  0.1462
10046TIP3   OH251628   5.981   3.674   1.858  0.1566 -0.5640  0.5411
10046TIP3    H151629   6.066   3.713   1.879  0.3104 -0.5277 -0.1212
10046TIP3    H251630   5.917   3.729   1.904  0.4056  0.1580  0.0458
10047TIP3   OH251631   1.287   3.063   4.042 -0.1185  0.9839  0.1287
10047TIP3    H151632   1.307   2.971   4.058 -1.2583  0.9660  1.6355
10047TIP3    H251633   1.356   3.111   4.087 -0.1819  0.8755  0.3408
10048TIP3   OH251634   1.344   4.760   5.003  0.3611  0.2023  0.1178
10048TIP3    H151635   1.408   4.689   4.997  2.2049  1.6015  1.6692
10048TIP3    H251636   1.286   4.734   5.074 -1.8335 -1.7412 -2.2119
10049TIP3   OH251637   0.876   5.890   2.299  0.5785  0.1291 -0.8435
10049TIP3    H151638   0.944   5.868   2.363 -1.5385 -0.1805  1.4737
10049TIP3    H251639   0.842   5.974   2.329 -1.2665 -0.5900 -0.7507
10050TIP3   OH251640   5.556   3.250  13.483 -0.2055 -1.6138 -0.1251
10050TIP3    H151641   5.558   3.226  13.390 -0.5681 -0.1799 -0.5192
10050TIP3    H251642   5.494   3.188  13.522 -1.3438 -1.1686 -1.1676
10051TIP3   OH251643   6.570   4.108  13.136  0.3096  0.2824 -0.2587
10051TIP3    H151644   6.538   4.020  13.158 -0.0594  0.1650 -1.2099
10051TIP3    H251645   6.541   4.163  13.208 -1.7069  0.0950 -0.8487
10052TIP3   OH251646   6.750   5.688   1.191  0.5432  0.1878 -0.0681
10052TIP3    H151647   6.774   5.705   1.283  0.0757  0.6987 -0.0359
10052TIP3    H251648   6.831   5.705   1.143  0.8859 -0.4229  0.2836
10053TIP3   OH251649   5.306   0.572  13.149  0.7562 -0.1644  0.3206
10053TIP3    H151650   5.356   0.654  13.152 -0.9155  0.9311 -0.1203
10053TIP3    H251651   5.248   0.577  13.225  1.6424 -1.6723  1.1473
10054TIP3   OH251652   5.481   2.090   3.579 -0.5830  0.3695 -0.6582
10054TIP3    H151653   5.414   2.022   3.568  1.2322 -1.2799 -2.1927
10054TIP3    H251654   5.505   2.086   3.671 -1.8450  0.3064 -0.3032
10055TIP3   OH251655   2.709   2.914   4.910 -0.4895 -0.7403  0.0688
10055TIP3    H151656   2.690   2.858   4.985 -0.8587 -0.3825  0.2460
10055TIP3    H251657   2.623   2.938   4.875 -0.3532  0.1207  0.2939
10056TIP3   OH251658   4.727   5.538   0.675  0.1134  0.5801 -0.4600
10056TIP3    H151659   4.705   5.577   0.760  1.2484  3.0689 -1.2117
10056TIP3    H251660   4.801   5.481   0.693 -1.7480 -1.6063  0.7282
10057TIP3   OH251661   5.381   2.097   4.122 -0.2449 -0.0524  0.2319
10057TIP3    H151662   5.373   2.170   4.183  0.7968 -0.5309  0.9769
10057TIP3    H251663   5.462   2.053   4.148 -0.3792 -0.9385 -0.7797
10058TIP3   OH251664   3.721   6.819   0.947 -0.5190 -0.1142  0.5351
10058TIP3    H151665   3.677   6.758   0.888  0.5964 -1.2707  0.8635
10058TIP3    H251666   3.783   6.866   0.891 -0.1541 -0.5157  0.6004
10059TIP3   OH251667   4.967   0.467  16.771  0.0866 -0.3911 -0.0183
10059TIP3    H151668   4.873   0.471  16.787  0.1797 -1.5719  0.9701
10059TIP3    H251669   5.006   0.507  16.848  0.4632 -3.4063  1.4700
10060TIP3   OH251670   0.899   3.766  15.569  0.2461 -0.1985  0.1029
10060TIP3    H151671   0.833   3.819  15.614  0.0446 -0.8156  0.5388
10060TIP3    H251672   0.904   3.685  15.619 -0.5949 -1.2566 -1.4546
10061TIP3   OH251673   5.095   5.336   1.910 -0.0218  0.1840  0.4082
10061TIP3    H151674   5.187   5.308   1.914 -0.7402 -2.4991 -0.2968
10061TIP3    H251675   5.077   5.368   1.999  1.3327 -0.0829  0.8120
10062TIP3   OH251676   1.178   6.203  14.228 -0.5850 -0.0501 -0.0091
10062TIP3    H151677   1.128   6.269  14.276  0.4667 -0.3252  1.5100
10062TIP3    H251678   1.241   6.169  14.291  0.8337 -0.4584 -1.5751
10063TIP3   OH251679   1.789   3.421   4.649 -0.9873 -0.1116  0.5034
10063TIP3    H151680   1.769   3.364   4.723 -2.7672  0.1127  0.2358
10063TIP3    H251681   1.783   3.510   4.685 -0.1925 -0.0377  0.4646
10064TIP3   OH251682   1.447   3.082   6.120 -0.3734  0.0713 -0.3032
10064TIP3    H151683   1.395   3.161   6.137  0.8804  0.9178 -0.2221
10064TIP3    H251684   1.534   3.104   6.152  0.3253 -0.8742 -1.4677
10065TIP3   OH251685   4.734   1.400   4.609 -0.1191  0.3216 -0.4949
10065TIP3    H151686   4.826   1.409   4.631 -0.6087  2.1638  1.0549
10065TIP3    H251687   4.702   1.328   4.663 -0.0986  1.3004  0.8691
10066TIP3   OH251688   1.417   6.253   4.029  0.1406  0.1227 -0.7496
10066TIP3    H151689   1.337   6.204   4.008  0.3045 -0.2381 -0.5307
10066TIP3    H251690   1.488   6.191   4.015  0.3603  0.3329 -0.5841
10067TIP3   OH251691   3.927   0.921  16.171  0.0847 -0.2221  0.0575
10067TIP3    H151692   3.889   0.967  16.246 -1.6378 -0.5153 -0.5850
10067TIP3    H251693   3.852   0.881  16.127  1.0912 -0.3612 -1.6197
10068TIP3   OH251694   1.472   3.420  12.628 -0.5879  0.3326 -0.3707
10068TIP3    H151695   1.556   3.441  12.588  0.0760  2.0380  1.6746
10068TIP3    H251696   1.410   3.480  12.586  0.2403  2.6624  1.4666
10069TIP3   OH251697   0.002   0.032  13.937  0.4470  0.0220  0.0996
10069TIP3    H151698  -0.068   0.097  13.946  0.1480 -0.4213  1.2030
10069TIP3    H251699   0.056   0.064  13.865 -0.6842  0.5664 -0.5245
10070TIP3   OH251700   4.437   6.606  16.508  0.1368 -0.1207  0.3017
10070TIP3    H151701   4.443   6.674  16.575 -1.0657 -0.6200  0.9537
10070TIP3    H251702   4.432   6.655  16.425  3.2653  0.4780  0.3491
10071TIP3   OH251703   5.646   5.842  16.943 -0.5537 -0.2034 -0.0909
10071TIP3    H151704   5.673   5.759  16.983 -0.3666  0.3888  1.0265
10071TIP3    H251705   5.553   5.849  16.963 -1.1810 -1.2839 -2.2607
10072TIP3   OH251706   3.521   5.345   5.580 -0.0754  0.0977 -0.3807
10072TIP3    H151707   3.481   5.355   5.493  0.8056  0.2779 -0.7820
10072TIP3    H251708   3.564   5.429   5.596 -0.3936  0.1285  0.3204
10073TIP3   OH251709   1.147   2.157  15.819 -0.2355  0.3285  0.2583
10073TIP3    H151710   1.167   2.225  15.755 -0.7280  0.0299 -0.2206
10073TIP3    H251711   1.076   2.194  15.872 -0.3569  0.2752  0.1344
10074TIP3   OH251712   0.257   2.900   3.420 -0.0472 -0.0786  0.1224
10074TIP3    H151713   0.352   2.888   3.431 -0.1032 -0.0872  0.6366
10074TIP3    H251714   0.238   2.980   3.469 -0.4229 -0.4945  0.6770
10075TIP3   OH251715   0.981   4.402   3.987  0.2696 -0.5192  0.2717
10075TIP3    H151716   1.072   4.427   3.972  0.1936 -0.9945 -1.0924
10075TIP3    H251717   0.941   4.480   4.026  1.2304 -0.2935  0.8407
10076TIP3   OH251718   5.690   0.855   1.211  0.8681 -0.0404 -0.3983
10076TIP3    H151719   5.695   0.761   1.229  1.0972 -0.2590 -1.5236
10076TIP3    H251720   5.678   0.895   1.297 -2.4549 -1.2908 -0.1257
10077TIP3   OH251721   6.135   6.341   5.812 -0.1594  0.2663 -0.1691
10077TIP3    H151722   6.165   6.378   5.729  0.6685  1.3260  0.5830
10077TIP3    H251723   6.209   6.351   5.871 -1.3360  1.2044  1.2132
10078TIP3   OH251724   1.559   0.562  15.444  0.3605  0.3726  0.6612
10078TIP3    H151725   1.564   0.552  15.539 -0.9343  1.5314  0.8855
10078TIP3    H251726   1.531   0.476  15.412  3.4979 -0.9052  0.9870
10079TIP3   OH251727   0.968   2.721  11.451  0.1495 -0.3212  0.0377
10079TIP3    H151728   1.046   2.708  11.505 -0.1192  1.3186  0.8623
10079TIP3    H251729   0.896   2.695  11.508  0.0280 -1.2382 -0.5137
10080TIP3   OH251730   4.933   2.927   3.961 -0.1886  0.4995  0.5042
10080TIP3    H151731   5.011   2.965   4.000  0.6824 -0.6333 -0.0682
10080TIP3    H251732   4.934   2.956   3.870  0.3407 -0.6340  0.1313
10081TIP3   OH251733   1.660   2.396  12.194 -0.4013  0.4880 -0.0337
10081TIP3    H151734   1.714   2.316  12.192  1.5381  1.6738  1.1148
10081TIP3    H251735   1.571   2.365  12.211  0.2782 -1.4323  0.2930
10082TIP3   OH251736   5.249   3.636  16.921 -0.3016  0.3841  0.1297
10082TIP3    H151737   5.167   3.686  16.924 -0.7481 -0.0889 -2.2371
10082TIP3    H251738   5.232   3.566  16.858  0.8765 -1.8012  2.0723
10083TIP3   OH251739   2.182   3.639   3.024  0.5342  0.2862 -0.1926
10083TIP3    H151740   2.094   3.640   3.061  0.8408  1.4522  0.5831
10083TIP3    H251741   2.214   3.729   3.038  1.6539  0.0131 -0.9111
10084TIP3   OH251742   3.878   4.401  13.301 -0.2480 -0.4400  0.0014
10084TIP3    H151743   3.897   4.317  13.258  1.8952 -1.3624  2.5092
10084TIP3    H251744   3.963   4.431  13.333 -0.8577  3.0673 -1.2912
10085TIP3   OH251745   0.727   3.267   3.810  0.0846  0.6527  0.2800
10085TIP3    H151746   0.756   3.180   3.837 -0.9632 -0.0573 -0.7666
10085TIP3    H251747   0.808   3.318   3.801  0.9204 -0.8367 -1.1483
10086TIP3   OH251748   4.986   6.506  14.807  0.2497  0.2588 -0.0021
10086TIP3    H151749   5.020   6.512  14.718 -0.8192  1.4301 -0.3538
10086TIP3    H251750   5.063   6.487  14.861  0.8195 -1.1859 -1.2268
10087TIP3   OH251751   4.246   3.726  16.234 -0.8829 -0.3027  0.3648
10087TIP3    H151752   4.160   3.739  16.275 -0.6890  1.3044  0.3181
10087TIP3    H251753   4.231   3.745  16.141 -0.4514  0.1779  0.3895
10088TIP3   OH251754   3.654   4.354  13.048  0.2812  0.7633 -0.2576
10088TIP3    H151755   3.729   4.295  13.055 -1.8318 -2.6935 -2.9867
10088TIP3    H251756   3.673   4.410  12.973  0.7228  0.9051 -0.0393
10089TIP3   OH251757   0.300   4.991  13.047 -0.6302  0.0918  0.1680
10089TIP3    H151758   0.350   4.916  13.081 -0.5098  0.5408  1.0043
10089TIP3    H251759   0.357   5.066  13.063 -1.2115  0.4969  0.3277
10090TIP3   OH251760   1.543   2.479   2.443  0.0942  0.1571 -0.6030
10090TIP3    H151761   1.590   2.561   2.453 -0.9761  0.6009  1.4432
10090TIP3    H251762   1.494   2.489   2.361 -0.2981  1.7144 -0.2079
10091TIP3   OH251763   4.108   1.133  13.893  0.6699  0.3346  0.0706
10091TIP3    H151764   4.099   1.150  13.799  1.4924 -1.1927 -0.3211
10091TIP3    H251765   4.183   1.185  13.920  1.0082  0.0623 -0.3304
10092TIP3   OH251766   4.916   2.484  12.598  0.3034  0.5859 -0.4887
10092TIP3    H151767   5.007   2.503  12.619  0.0261  2.3902 -0.7973
10092TIP3    H251768   4.921   2.426  12.521  1.1817 -0.8715  0.6160
10093TIP3   OH251769   1.966   3.536  17.228 -0.2741  0.2975 -0.3589
10093TIP3    H151770   1.881   3.560  17.266 -0.7150 -0.8664 -0.5706
10093TIP3    H251771   2.023   3.524  17.304  0.6729  4.2524 -0.2621
10094TIP3   OH251772   5.017   5.855  16.231 -0.9081  0.5746  0.3823
10094TIP3    H151773   5.057   5.930  16.188 -1.9922  0.6716 -0.5293
10094TIP3    H251774   4.935   5.888  16.267 -1.3736 -0.1447  0.0228
10095TIP3   OH251775   3.320   4.823   3.548 -0.1261  0.0881 -0.0388
10095TIP3    H151776   3.228   4.845   3.556  0.2148  0.8677  2.5581
10095TIP3    H251777   3.363   4.908   3.532  0.2230 -0.2008 -0.6959
10096TIP3   OH251778   0.526   5.639   4.006 -0.1345  0.3400  0.0950
10096TIP3    H151779   0.613   5.641   4.045  0.1193 -0.7438 -0.3904
10096TIP3    H251780   0.478   5.708   4.052  0.7082  0.3515  0.9930
10097TIP3   OH251781   4.537   1.924   3.327 -0.8256 -0.3461  0.3679
10097TIP3    H151782   4.452   1.955   3.294  0.9197  1.7524 -2.6359
10097TIP3    H251783   4.569   1.996   3.380  0.5945  0.5699 -1.6005
10098TIP3   OH251784   1.858   4.465   3.163 -0.3766 -0.3597 -0.1122
10098TIP3    H151785   1.939   4.507   3.190  0.2349 -1.5421 -0.0110
10098TIP3    H251786   1.886   4.385   3.119 -1.4858 -1.2918  0.7865
10099TIP3   OH251787   4.575   3.322  16.996 -0.2768  0.0482 -0.0125
10099TIP3    H151788   4.530   3.406  16.998  0.8832  0.6880  0.8345
10099TIP3    H251789   4.636   3.326  17.070  2.1669 -0.1890 -1.8780
10100TIP3   OH251790   4.392   3.801   1.818 -0.4773 -0.7588  0.3397
10100TIP3    H151791   4.478   3.812   1.858 -0.7431  1.5684  0.4094
10100TIP3    H251792   4.405   3.734   1.751  1.5263 -0.0591 -0.0333
10101TIP3   OH251793   0.359   4.630   5.215  0.0233 -0.0605  0.5753
10101TIP3    H151794   0.359   4.718   5.253 -0.5163  1.0838 -1.8745
10101TIP3    H251795   0.276   4.592   5.246 -1.2903  1.5119 -0.7891
10102TIP3   OH251796   3.749   1.152  14.548 -0.7078  0.0042  0.0181
10102TIP3    H151797   3.787   1.186  14.629 -0.7818 -0.2703  0.1686
10102TIP3    H251798   3.752   1.057  14.559  1.3566 -0.1356 -1.2378
10103TIP3   OH251799   5.105   2.328   4.173  0.3234  0.4032 -0.0366
10103TIP3    H151800   5.088   2.345   4.265 -0.6766  0.1681 -0.1714
10103TIP3    H251801   5.158   2.248   4.172  0.8572  0.7494  0.3561
10104TIP3   OH251802   3.172   2.259   1.561  0.4162  0.2875 -0.6489
10104TIP3    H151803   3.097   2.317   1.545  1.2682  1.1643 -1.6052
10104TIP3    H251804   3.191   2.270   1.655  1.5918  2.9095 -1.0956
10105TIP3   OH251805   0.274   0.423   3.419 -0.6461 -0.0164  0.0179
10105TIP3    H151806   0.368   0.410   3.430 -0.4519  1.1566 -0.1640
10105TIP3    H251807   0.243   0.341   3.379  0.6521  0.3295 -1.8128
10106TIP3   OH251808   5.588   3.680  11.606  0.0445  0.5613 -0.1854
10106TIP3    H151809   5.555   3.752  11.551  3.5009  3.0164  0.6113
10106TIP3    H251810   5.540   3.689  11.688 -0.5636  1.0017 -0.5734
10107TIP3   OH251811   5.631   0.066  14.770  0.0914 -0.0365  0.2320
10107TIP3    H151812   5.565   0.110  14.716  0.0534 -0.5400 -0.1384
10107TIP3    H251813   5.711   0.116  14.755  0.6214 -1.4081 -2.0107
10108TIP3   OH251814   2.034   6.244  11.306 -0.1570  0.3101 -0.4577
10108TIP3    H151815   2.017   6.150  11.318  0.6821  0.1499 -0.4297
10108TIP3    H251816   2.103   6.247  11.239  0.3426  0.8668  0.0691
10109TIP3   OH251817   3.566   6.024   2.558 -0.1802 -0.5343 -0.4334
10109TIP3    H151818   3.653   6.047   2.590 -0.2232  0.9025 -1.2496
10109TIP3    H251819   3.508   6.089   2.597 -0.5919 -0.3046 -1.3859
10110TIP3   OH251820   4.396   3.974   4.905  0.3117  0.0645 -0.0040
10110TIP3    H151821   4.459   4.037   4.940  0.2725 -0.1484  0.4573
10110TIP3    H251822   4.436   3.889   4.921 -0.4656 -0.1195  1.0738
10111TIP3   OH251823   3.268   5.054  14.560  0.3145  0.1526  0.0611
10111TIP3    H151824   3.262   4.959  14.554  0.1719  0.1400  0.3703
10111TIP3    H251825   3.318   5.070  14.639  0.7208  0.3315 -0.2291
10112TIP3   OH251826   1.447   6.458   5.890 -0.0459 -0.8312  0.2160
10112TIP3    H151827   1.371   6.485   5.838 -0.1636 -0.6023  0.4992
10112TIP3    H251828   1.520   6.508   5.855 -0.3676  0.3014  1.0992
10113TIP3   OH251829   5.873   3.747  13.887  0.1975  0.1673 -0.0397
10113TIP3    H151830   5.903   3.664  13.925 -1.4566 -0.4135  0.0506
10113TIP3    H251831   5.807   3.779  13.948 -0.1334  0.8835 -0.7574
10114TIP3   OH251832   2.205   3.757  12.417 -0.2841  0.0757 -0.1277
10114TIP3    H151833   2.291   3.784  12.449  0.0496 -1.3214  0.2292
10114TIP3    H251834   2.180   3.825  12.354  1.1358  0.4410 -0.3302
10115TIP3   OH251835   0.022   3.709   1.791 -0.3472 -0.4542 -0.0979
10115TIP3    H151836  -0.068   3.692   1.763 -0.9935  1.3418  0.7193
10115TIP3    H251837   0.029   3.805   1.789  1.1240 -0.5098  1.1435
10116TIP3   OH251838   0.060   2.503  15.618  0.0440  0.0505  0.0530
10116TIP3    H151839   0.111   2.529  15.541 -0.7610  0.9558 -0.1969
10116TIP3    H251840   0.122   2.455  15.672  1.1665  1.0832 -0.2608
10117TIP3   OH251841   2.440   1.768   1.979 -0.7707 -0.5624 -0.3956
10117TIP3    H151842   2.353   1.794   2.008 -1.0621 -0.8298 -1.0264
10117TIP3    H251843   2.461   1.828   1.908  0.1465  0.4114  0.6431
10118TIP3   OH251844   6.796   2.653  14.320  0.2627  0.3632 -0.8832
10118TIP3    H151845   6.800   2.651  14.416 -0.5642  0.6458 -0.8364
10118TIP3    H251846   6.711   2.693  14.300  0.4966  0.4556 -1.7359
10119TIP3   OH251847   3.286   2.014  12.091  0.2577 -0.1904  0.5086
10119TIP3    H151848   3.202   1.967  12.094 -0.0641  0.4106  1.4883
10119TIP3    H251849   3.352   1.946  12.101 -0.1222 -0.6581 -0.1317
10120TIP3   OH251850   4.887   1.939  16.461 -0.1224 -0.4651 -0.2439
10120TIP3    H151851   4.900   1.845  16.459  1.3800 -0.3026  0.3227
10120TIP3    H251852   4.965   1.975  16.418 -1.0478  0.5076 -1.1790
10121TIP3   OH251853   0.398   4.754  13.156 -0.1607  0.0087 -0.0235
10121TIP3    H151854   0.318   4.714  13.191 -1.0508  0.4301 -1.4974
10121TIP3    H251855   0.467   4.690  13.175 -0.9073 -0.5717  0.8623
10122TIP3   OH251856   3.522   0.180   1.031  0.0606 -0.1067 -0.1280
10122TIP3    H151857   3.452   0.141   0.979 -0.8241  1.0681  0.1406
10122TIP3    H251858   3.593   0.116   1.028  0.8459  0.6642 -4.4297
10123TIP3   OH251859   5.695   0.899   0.007 -0.2296  0.1208  0.1228
10123TIP3    H151860   5.603   0.875   0.013 -1.0124  1.8194 -2.9546
10123TIP3    H251861   5.741   0.816  -0.004 -1.2570 -0.7964  2.1877
10124TIP3   OH251862   6.131   4.468  12.023  0.7811 -0.4280 -0.0220
10124TIP3    H151863   6.082   4.390  12.050  1.4550 -0.8587 -0.0150
10124TIP3    H251864   6.115   4.475  11.929 -0.7905  0.5182  0.2772
10125TIP3   OH251865   6.534   3.397  15.868  0.1782  0.2565 -0.0205
10125TIP3    H151866   6.595   3.456  15.824  1.1479  0.3576  1.3785
10125TIP3    H251867   6.569   3.309  15.850 -0.5481  0.1682 -1.0567
10126TIP3   OH251868   2.563   5.199  15.761 -0.3323  0.2703 -0.8498
10126TIP3    H151869   2.475   5.170  15.786 -0.1051  0.3702  0.1087
10126TIP3    H251870   2.558   5.295  15.767  0.6090  0.2460  2.1377
10127TIP3   OH251871   1.115   5.176   0.733 -0.4209 -0.1762 -0.1174
10127TIP3    H151872   1.197   5.128   0.740 -1.1730 -2.0666 -2.7784
10127TIP3    H251873   1.068   5.156   0.814  0.1856 -2.2538 -0.2279
10128TIP3   OH251874   5.207   2.374  11.671  0.5089  0.1109 -0.2745
10128TIP3    H151875   5.266   2.354  11.598 -1.0272  0.0337 -1.5445
10128TIP3    H251876   5.195   2.469  11.666  0.2116  0.0731 -0.2686
10129TIP3   OH251877   6.381   5.329   5.628 -0.0944 -0.3384 -0.0664
10129TIP3    H151878   6.385   5.234   5.627 -1.5039 -0.4158 -0.9325
10129TIP3    H251879   6.297   5.350   5.587 -0.3082  1.2486  1.1086
10130TIP3   OH251880   1.436   0.150  10.825 -0.1517 -0.1760 -0.0009
10130TIP3    H151881   1.475   0.063  10.829 -2.0524 -1.2948 -2.5940
10130TIP3    H251882   1.506   0.207  10.796  0.4845 -1.3893 -0.9136
10131TIP3   OH251883   6.415   1.238   1.005  0.2295  0.1543  0.2054
10131TIP3    H151884   6.341   1.178   1.009  1.3529 -1.3768 -0.7285
10131TIP3    H251885   6.471   1.212   1.078  0.6164  0.1987 -0.0723
10132TIP3   OH251886   4.330   3.528   4.691  0.1705 -0.3788  0.4099
10132TIP3    H151887   4.274   3.466   4.644 -0.2345  0.5529 -0.3701
10132TIP3    H251888   4.390   3.561   4.624  0.8471 -0.4446  0.9718
10133TIP3   OH251889   3.366   0.005  16.640  0.3148 -0.0996 -0.0906
10133TIP3    H151890   3.347   0.082  16.693 -1.0511 -0.6004  0.1831
10133TIP3    H251891   3.461   0.005  16.631  0.3002  2.0859 -0.8084
10134TIP3   OH251892   0.609   4.802  15.711 -0.4042  0.7124 -0.4032
10134TIP3    H151893   0.553   4.762  15.645 -0.5536  3.4528 -2.0833
10134TIP3    H251894   0.570   4.776  15.794 -1.0227 -1.7097 -1.3429
10135TIP3   OH251895   3.020   4.988   4.861 -0.1298  0.1096 -0.2810
10135TIP3    H151896   2.997   5.080   4.850  0.0873  0.4091  1.4026
10135TIP3    H251897   3.068   4.985   4.944 -0.5615 -1.5924 -0.0400
10136TIP3   OH251898   2.078   0.975   4.822  0.4057 -0.2949 -0.5135
10136TIP3    H151899   2.142   0.934   4.879  0.3882  0.1864 -0.1468
10136TIP3    H251900   2.010   1.009   4.881  0.4027  0.2345 -0.8110
10137TIP3   OH251901   3.465   6.613   2.119 -0.1656 -0.2682 -0.3061
10137TIP3    H151902   3.421   6.562   2.051  0.7904 -2.3238  0.5186
10137TIP3    H251903   3.554   6.624   2.085  0.6108 -2.1788  0.9618
10138TIP3   OH251904   0.462   0.163   0.070  0.0725  0.1255  0.3615
10138TIP3    H151905   0.419   0.106   0.134  1.0761 -0.8256  0.2265
10138TIP3    H251906   0.401   0.168  -0.003  0.5545 -2.0688 -0.2865
10139TIP3   OH251907   3.458   6.503  15.586  0.3089 -0.0402 -0.0155
10139TIP3    H151908   3.450   6.408  15.592  0.3232 -0.0314  0.1678
10139TIP3    H251909   3.457   6.532  15.677  1.6402  0.0286 -0.0054
10140TIP3   OH251910   4.115   2.315   1.025 -0.1850  0.0722  0.5070
10140TIP3    H151911   4.073   2.255   0.963  0.6952 -0.6016  0.5534
10140TIP3    H251912   4.129   2.395   0.974  1.5924 -0.8625 -0.5559
10141TIP3   OH251913   1.707   3.550   0.041 -0.5792  0.5975  0.0362
10141TIP3    H151914   1.627   3.557  -0.011 -1.9637 -1.5346  1.6833
10141TIP3    H251915   1.676   3.541   0.132  1.4667 -0.6787  0.6861
10142TIP3   OH251916   2.759   6.402  17.079  0.0431 -0.4940  0.1400
10142TIP3    H151917   2.665   6.393  17.066 -0.0593  0.6859 -0.0305
10142TIP3    H251918   2.770   6.406  17.174 -0.0447 -0.9407  0.1703
10143TIP3   OH251919   3.219   2.123  11.402  0.0955 -0.2856 -0.1084
10143TIP3    H151920   3.204   2.051  11.463 -0.0520  1.0771  1.5329
10143TIP3    H251921   3.312   2.115  11.378  0.7525  0.3381  1.9796
10144TIP3   OH251922   4.804   2.669   2.141 -0.2270 -0.2945  0.1716
10144TIP3    H151923   4.763   2.624   2.214 -2.8017  0.3938 -0.7592
10144TIP3    H251924   4.797   2.607   2.068  1.6146 -0.6710  0.2713
10145TIP3   OH251925   2.995   3.267   0.187  0.3063  0.4711 -0.3616
10145TIP3    H151926   3.075   3.290   0.234  1.0411  0.4548 -1.5587
10145TIP3    H251927   2.962   3.351   0.153 -0.8963  0.6581  1.1563
10146TIP3   OH251928   1.151   0.431  16.833 -0.6597  0.5343  0.5077
10146TIP3    H151929   1.104   0.499  16.881 -1.0102  0.2481  0.5732
10146TIP3    H251930   1.202   0.385  16.900  0.8625  1.7433  0.2514
10147TIP3   OH251931   1.619   4.838  11.555  0.3452 -0.2741 -0.0846
10147TIP3    H151932   1.709   4.824  11.527  0.3370  1.7869 -1.3308
10147TIP3    H251933   1.604   4.771  11.622  2.6879 -0.8402 -0.0447
10148TIP3   OH251934   1.365   1.084  14.505 -0.2884  0.2735 -0.6478
10148TIP3    H151935   1.445   1.073  14.453 -0.0177  0.2454 -0.2237
10148TIP3    H251936   1.373   1.171  14.543  0.3258 -0.3736  0.7434
10149TIP3   OH251937   4.867   2.342  15.487 -0.2969 -0.2892 -0.1631
10149TIP3    H151938   4.865   2.265  15.544 -0.0106  0.6582  1.1854
10149TIP3    H251939   4.788   2.390  15.508  0.4374  0.7160  0.3977
10150TIP3   OH251940   4.042   6.461   4.981 -0.6870 -0.1072 -0.2682
10150TIP3    H151941   4.002   6.386   4.936 -2.2456 -1.2391  2.7638
10150TIP3    H251942   3.974   6.492   5.041  1.4651  0.9074  1.7761
10151TIP3   OH251943   4.603   2.803   0.095 -0.4212  0.0827 -0.1303
10151TIP3    H151944   4.629   2.777   0.183 -0.9366  1.5641  0.4932
10151TIP3    H251945   4.560   2.725   0.058  0.1105 -0.6624  0.7796
10152TIP3   OH251946   2.445   0.287  11.574 -0.3092  0.6638 -0.0241
10152TIP3    H151947   2.445   0.373  11.615  1.4368  0.2078  1.0179
10152TIP3    H251948   2.473   0.227  11.643 -1.4670 -0.7578 -0.7316
10153TIP3   OH251949   2.913   6.666  16.808  0.0312 -0.5095 -0.1026
10153TIP3    H151950   2.921   6.716  16.889 -1.0443  1.7085 -1.2588
10153TIP3    H251951   2.830   6.696  16.770 -0.8651 -3.4729 -0.7572
10154TIP3   OH251952   6.732   2.861   5.417  0.2396 -0.3160  0.0966
10154TIP3    H151953   6.737   2.805   5.340  2.0470 -1.1030  0.7367
10154TIP3    H251954   6.687   2.808   5.483 -2.0289  0.6393 -0.5757
10155TIP3   OH251955   1.086   3.913   3.764 -0.0942 -0.3240 -0.3263
10155TIP3    H151956   1.025   3.923   3.837  1.1352  2.7731  0.4746
10155TIP3    H251957   1.052   3.972   3.696 -0.2867 -1.8743 -1.6352
10156TIP3   OH251958   0.578   6.039   0.989  0.2293  0.1502  0.4759
10156TIP3    H151959   0.561   6.112   0.929  0.1852  1.4595  2.0050
10156TIP3    H251960   0.495   5.993   0.996  0.4000 -0.4404 -0.9450
10157TIP3   OH251961   1.926   5.751   2.233 -0.2639 -0.7612  0.0315
10157TIP3    H151962   1.875   5.820   2.190  1.9832  0.1958 -1.2703
10157TIP3    H251963   1.882   5.670   2.208 -1.4592  0.0354 -0.5523
10158TIP3   OH251964   4.158   0.863  15.538 -0.5461  0.0336 -0.3601
10158TIP3    H151965   4.206   0.913  15.472  2.0497 -4.1372 -1.9659
10158TIP3    H251966   4.066   0.869  15.510 -0.7071  4.6365  0.3185
10159TIP3   OH251967   2.325   4.696  12.072 -0.0555 -0.0962  0.5968
10159TIP3    H151968   2.260   4.652  12.018 -0.6840 -1.0935  2.1042
10159TIP3    H251969   2.306   4.789  12.061 -0.6694 -0.3155 -0.2628
10160TIP3   OH251970   0.970   5.593   5.448 -0.4312  0.3655 -0.4655
10160TIP3    H151971   0.965   5.615   5.541  0.2929  0.1018 -0.3586
10160TIP3    H251972   0.900   5.528   5.436 -0.0348 -0.1705  0.0663
10161TIP3   OH251973   5.632   1.693  15.678 -0.3399  0.0910 -0.1420
10161TIP3    H151974   5.592   1.606  15.685 -0.9402  0.2253 -1.4981
10161TIP3    H251975   5.675   1.707  15.762 -0.8192 -1.2290  0.3468
10162TIP3   OH251976   0.735   1.563   2.000 -0.4784  0.0151 -0.1222
10162TIP3    H151977   0.712   1.494   2.063  0.3003 -1.2492 -1.1801
10162TIP3    H251978   0.651   1.605   1.981 -0.7345  0.4825  1.7781
10163TIP3   OH251979   4.019   1.488  11.018  0.1309 -0.5107  0.0568
10163TIP3    H151980   4.097   1.536  10.989  0.0385 -0.0925  0.4846
10163TIP3    H251981   4.053   1.405  11.051  0.3672 -0.4385 -0.0028
10164TIP3   OH251982   6.266   3.433   0.756 -0.4280 -0.4882  0.5351
10164TIP3    H151983   6.259   3.413   0.849  1.1060 -2.7144  0.2423
10164TIP3    H251984   6.244   3.526   0.750 -0.1196 -0.1733  3.1627
10165TIP3   OH251985   0.412   4.513   4.136 -0.3903 -0.1258  0.3432
10165TIP3    H151986   0.374   4.559   4.062 -1.1112  0.5805  1.1313
10165TIP3    H251987   0.369   4.427   4.136 -1.2367  0.2874  0.6042
10166TIP3   OH251988   6.521   2.796   6.847  0.0039  0.0067  0.7499
10166TIP3    H151989   6.459   2.744   6.898 -0.4958 -0.1081  0.0467
10166TIP3    H251990   6.596   2.808   6.904 -1.1863  1.2763  2.1268
10167TIP3   OH251991   4.107   5.741  11.101  0.6297 -0.1166 -0.8005
10167TIP3    H151992   4.098   5.676  11.032  4.0799 -0.9966 -0.6141
10167TIP3    H251993   4.057   5.816  11.070  0.2028 -1.2915 -3.1482
10168TIP3   OH251994   2.151   4.186   0.170 -0.3370  0.2441  0.2005
10168TIP3    H151995   2.235   4.159   0.133 -0.2238  1.1457 -0.2073
10168TIP3    H251996   2.144   4.279   0.150  0.6409  1.3380  4.0899
10169TIP3   OH251997   2.531   6.265  13.529 -0.1601 -0.2485 -0.1344
10169TIP3    H151998   2.618   6.266  13.490 -0.2582  0.8978 -0.3752
10169TIP3    H251999   2.505   6.357  13.532 -0.9123 -0.4730  0.9658
10170TIP3   OH252000   5.995   4.819   1.456  0.4602 -0.0697  0.0887
10170TIP3    H152001   6.043   4.834   1.374  0.2967 -0.7025 -0.1241
10170TIP3    H252002   5.903   4.822   1.430  0.3970  0.1991  0.3363
10171TIP3   OH252003   1.841   2.320  14.209  0.4365 -0.2678 -0.3078
10171TIP3    H152004   1.857   2.236  14.165  2.0235  0.0293 -0.3462
10171TIP3    H252005   1.749   2.316  14.235 -0.6540 -0.4725 -3.6277
10172TIP3   OH252006   2.097   3.679   1.362 -0.0820 -0.2140  0.3389
10172TIP3    H152007   2.149   3.619   1.308 -2.8642  0.1215 -3.0521
10172TIP3    H252008   2.032   3.623   1.405  0.2733 -0.1373  0.9841
10173TIP3   OH252009   1.612   1.540   1.695 -0.1307 -0.2509  0.1680
10173TIP3    H152010   1.694   1.530   1.743 -0.0394 -0.4490 -0.0302
10173TIP3    H252011   1.615   1.630   1.661  0.3998 -0.5412 -0.5702
10174TIP3   OH252012   1.079   3.241  16.670  0.5539 -0.2711  0.3704
10174TIP3    H152013   1.112   3.311  16.726  1.1530 -0.7989  0.6982
10174TIP3    H252014   1.019   3.192  16.727  1.2063 -0.8413  0.5875
10175TIP3   OH252015   0.978   3.262  15.103  0.0402 -0.4071 -0.3091
10175TIP3    H152016   1.002   3.173  15.128 -0.2321 -0.2642  0.4845
10175TIP3    H252017   1.062   3.307  15.090  0.1889 -0.4663  0.4232
10176TIP3   OH252018   6.127   0.305  11.069  0.4638 -0.3862 -0.5470
10176TIP3    H152019   6.109   0.383  11.015  1.9610 -0.0843 -0.6543
10176TIP3    H252020   6.115   0.232  11.009 -2.0905 -0.3774 -0.1637
10177TIP3   OH252021   6.568   0.223  11.722  0.0825  0.5477  0.0451
10177TIP3    H152022   6.648   0.242  11.674  0.8575 -1.0708  0.5965
10177TIP3    H252023   6.509   0.186  11.656  0.4253  0.1748 -0.0616
10178TIP3   OH252024   3.321   2.297  17.070  0.2148  0.1996 -0.5311
10178TIP3    H152025   3.383   2.298  16.997 -1.4386  0.5403 -1.9821
10178TIP3    H252026   3.351   2.368  17.127 -0.9249  2.9389 -3.0886
10179TIP3   OH252027   5.185   5.114  13.842  0.5032 -0.0903  0.5153
10179TIP3    H152028   5.182   5.089  13.750 -1.7996  1.4184  0.0883
10179TIP3    H252029   5.278   5.129  13.860  0.8834  1.0455 -1.9994
10180TIP3   OH252030   1.655   5.152  16.183 -0.5549 -0.1285 -0.3742
10180TIP3    H152031   1.622   5.107  16.105  2.1104 -0.7354 -1.2448
10180TIP3    H252032   1.632   5.095  16.256  0.5179 -1.6445 -1.1891
10181TIP3   OH252033   1.522   2.292   2.253  0.0415 -0.5159 -0.2004
10181TIP3    H152034   1.609   2.314   2.222  0.8558 -1.2465  1.4517
10181TIP3    H252035   1.526   2.199   2.274 -0.6609 -0.2327  1.3270
10182TIP3   OH252036   3.753   3.303  14.645  0.5370 -0.3781 -0.4883
10182TIP3    H152037   3.762   3.398  14.653  2.2360 -0.5954  0.6801
10182TIP3    H252038   3.690   3.291  14.573 -0.5451  1.6129  0.0465
10183TIP3   OH252039   6.146   2.576  11.321 -0.2959  0.0648 -0.0533
10183TIP3    H152040   6.169   2.538  11.236 -0.4379 -1.0164  0.3691
10183TIP3    H252041   6.218   2.635  11.342 -1.1049  1.7339 -1.7326
10184TIP3   OH252042   0.777   6.780   0.920 -0.3244 -0.7721 -0.1980
10184TIP3    H152043   0.806   6.714   0.857 -0.4063 -0.0436 -1.0086
10184TIP3    H252044   0.855   6.832   0.938 -0.7631  0.2926 -1.2802
10185TIP3   OH252045   1.949   0.178   4.159  0.0379 -0.1370  0.0505
10185TIP3    H152046   2.020   0.136   4.208  0.2273 -0.0955 -0.1844
10185TIP3    H252047   1.987   0.259   4.125 -0.1588 -0.0519  0.0298
10186TIP3   OH252048   1.840   2.706  16.176  0.8383 -0.3443 -0.6436
10186TIP3    H152049   1.841   2.613  16.201  2.0868  0.1724  1.5160
10186TIP3    H252050   1.923   2.720  16.132  1.1313 -0.0415 -0.0076
10187TIP3   OH252051   3.374   6.746  12.079 -0.3717 -0.4025  0.5632
10187TIP3    H152052   3.431   6.797  12.021 -1.1205  0.5512  0.6384
10187TIP3    H252053   3.356   6.665  12.031  0.3131 -0.3188  0.1570
10188TIP3   OH252054   3.113   5.614  11.100 -0.2515 -0.0616 -0.0024
10188TIP3    H152055   3.115   5.583  11.010  1.6495 -2.2782  0.7253
10188TIP3    H252056   3.086   5.538  11.151 -1.5799  1.2309  1.3347
10189TIP3   OH252057   5.284   1.998   2.850 -0.3180 -0.1356 -0.0776
10189TIP3    H152058   5.222   2.034   2.914 -0.9307  0.1407 -0.8161
10189TIP3    H252059   5.284   2.061   2.778  0.1318 -0.5994 -0.4894
10190TIP3   OH252060   1.999   6.088  16.597  0.7870 -0.2501  0.3133
10190TIP3    H152061   1.984   5.995  16.619  0.2523 -0.4357 -0.7816
10190TIP3    H252062   2.038   6.086  16.510  0.6283  0.5743  0.2210
10191TIP3   OH252063   3.538   1.201   3.584 -0.0558 -0.7165 -0.2508
10191TIP3    H152064   3.462   1.248   3.550 -0.0426 -1.9315 -2.0770
10191TIP3    H252065   3.612   1.261   3.568 -0.4318 -0.1074  0.2576
10192TIP3   OH252066   2.889   4.508  15.090 -0.0234  0.3387  0.9203
10192TIP3    H152067   2.974   4.515  15.134  0.0576  2.3713  0.5428
10192TIP3    H252068   2.862   4.417  15.103  2.6743 -0.6478  0.1471
10193TIP3   OH252069   5.645   1.288   5.383  0.2433  0.3196 -0.0060
10193TIP3    H152070   5.656   1.292   5.478  1.3901  1.5407 -0.1659
10193TIP3    H252071   5.676   1.200   5.359 -1.2974 -0.5128  0.8531
10194TIP3   OH252072   5.829   3.558  14.614 -0.1707  0.2782  0.6429
10194TIP3    H152073   5.901   3.581  14.556  0.3763 -0.7661  0.8791
10194TIP3    H252074   5.830   3.462  14.617  0.3497  0.2887  2.9748
10195TIP3   OH252075   0.842   6.115   0.097 -0.0026  0.3108  0.3979
10195TIP3    H152076   0.854   6.042   0.159 -1.4048  0.2398  0.6255
10195TIP3    H252077   0.920   6.168   0.107  0.5117 -0.5414  1.0899
10196TIP3   OH252078   4.514   6.672  15.360  0.4541  0.1273  0.2784
10196TIP3    H152079   4.537   6.605  15.425 -1.8993 -2.8255 -1.6107
10196TIP3    H252080   4.418   6.666  15.354  0.3314  2.5523 -1.1899
10197TIP3   OH252081   5.514   2.355  12.762 -0.3455  0.2081 -0.2140
10197TIP3    H152082   5.597   2.385  12.726 -0.5959  1.4500  0.2097
10197TIP3    H252083   5.447   2.403  12.714 -0.7944 -0.2052 -0.0159
10198TIP3   OH252084   1.637   1.053   2.635 -0.4950 -0.3568 -1.0841
10198TIP3    H152085   1.558   1.012   2.670  0.2876 -1.1110 -0.1210
10198TIP3    H252086   1.705   0.987   2.647  0.9131  1.3419  0.9322
10199TIP3   OH252087   5.998   1.845  15.084  0.4791 -0.0381 -0.0852
10199TIP3    H152088   5.991   1.850  14.989 -0.4006  1.5474  0.0398
10199TIP3    H252089   6.083   1.883  15.105 -0.7943  3.0645 -0.0518
10200TIP3   OH252090   2.326   4.069  13.337 -0.1172  0.2138 -0.0568
10200TIP3    H152091   2.394   4.002  13.340 -0.6252 -0.3191 -0.2843
10200TIP3    H252092   2.372   4.151  13.357  0.8792  0.0902 -1.6249
10201TIP3   OH252093   3.311   4.599   4.212 -0.2443  0.8292  0.1811
10201TIP3    H152094   3.382   4.662   4.210  2.5498 -2.0374  0.3394
10201TIP3    H252095   3.328   4.545   4.290 -1.6359 -0.9732 -0.6647
10202TIP3   OH252096   5.742   5.387  16.129 -1.0044 -0.1366  0.2952
10202TIP3    H152097   5.811   5.324  16.112 -1.3831 -0.7503  0.9907
10202TIP3    H252098   5.699   5.356  16.209 -1.1145  1.0759  0.7331
10203TIP3   OH252099   2.559   2.154  12.953 -0.2169  0.2563  0.1170
10203TIP3    H152100   2.475   2.171  12.909 -0.1054 -0.3124 -0.3353
10203TIP3    H252101   2.609   2.102  12.889  0.0936 -0.2597  0.7697
10204TIP3   OH252102   2.187   1.069  14.903  0.1303  0.0100 -0.3125
10204TIP3    H152103   2.115   1.039  14.848  0.2460  1.1225 -1.1222
10204TIP3    H252104   2.261   1.012  14.881 -0.3395 -0.7699  0.1063
10205TIP3   OH252105   0.010   3.813  15.392  0.4260  0.3323  0.0915
10205TIP3    H152106   0.045   3.725  15.398  1.4658  0.7398  0.1418
10205TIP3    H252107  -0.085   3.802  15.398  0.4115 -0.9455 -1.9184
10206TIP3   OH252108   0.566   5.483   4.643 -0.0245  0.0627  0.0716
10206TIP3    H152109   0.660   5.500   4.638 -0.2657  1.3924 -0.3159
10206TIP3    H252110   0.532   5.510   4.558 -0.6064 -1.5670 -0.2505
10207TIP3   OH252111   4.026   4.596   0.497  0.3807  0.0057 -0.4549
10207TIP3    H152112   3.943   4.612   0.452 -0.3037 -1.5906  0.1701
10207TIP3    H252113   4.006   4.528   0.561  2.1006 -0.1631 -0.0520
10208TIP3   OH252114   3.938   5.539  12.629  0.5796 -0.2798  0.3883
10208TIP3    H152115   3.858   5.548  12.576  0.8163  0.9399  0.2034
10208TIP3    H252116   3.965   5.448  12.616 -0.7868 -0.7185  0.4717
10209TIP3   OH252117   3.555   6.818  11.287 -0.3195 -0.3803 -0.4262
10209TIP3    H152118   3.630   6.766  11.259 -0.3952 -0.7325  0.0021
10209TIP3    H252119   3.566   6.827  11.381 -0.3689  0.2945 -0.4816
10210TIP3   OH252120   2.441   2.569   3.085 -0.2783  0.5162 -0.1025
10210TIP3    H152121   2.353   2.531   3.088  0.6731 -2.0116 -1.0306
10210TIP3    H252122   2.492   2.516   3.146  0.5712  2.1637  0.6904
10211TIP3   OH252123   3.120   6.138   5.332 -0.1555  0.8809  0.1224
10211TIP3    H152124   3.194   6.082   5.306 -0.6206 -0.1329  0.8862
10211TIP3    H252125   3.157   6.226   5.336  1.3525  0.2383  1.6449
10212TIP3   OH252126   5.125   4.706   0.536 -0.7067 -0.4138  0.1886
10212TIP3    H152127   5.177   4.692   0.458  1.6087  3.3862  0.8210
10212TIP3    H252128   5.188   4.714   0.607 -2.1219  2.6907  1.2926
10213TIP3   OH252129   0.735   4.093  16.195  0.0150 -0.0943 -0.1934
10213TIP3    H152130   0.685   4.011  16.196 -0.2547  0.0747  0.8354
10213TIP3    H252131   0.720   4.132  16.281 -2.3781  2.5524 -1.6432
10214TIP3   OH252132   5.193   6.112  11.323 -0.0571 -0.5252 -0.0946
10214TIP3    H152133   5.244   6.049  11.373  1.7598  0.8883 -0.0692
10214TIP3    H252134   5.256   6.154  11.264 -1.3558  0.6620 -0.7151
10215TIP3   OH252135   5.713   2.973  11.961 -0.2642 -0.3019 -0.3522
10215TIP3    H152136   5.706   2.889  11.916  0.9557  0.1310 -1.4132
10215TIP3    H252137   5.702   2.952  12.054 -0.3948 -1.5611 -0.6364
10216TIP3   OH252138   1.913   1.627  15.682 -0.0842  0.4701  0.2943
10216TIP3    H152139   1.898   1.672  15.765  0.4121  1.4216 -0.1258
10216TIP3    H252140   1.933   1.696  15.620 -1.1251 -0.1624 -0.7898
10217TIP3   OH252141   1.096   3.360   0.052  0.2887 -0.5924 -0.1237
10217TIP3    H152142   1.152   3.436   0.070  0.5780 -0.5169 -1.2854
10217TIP3    H252143   1.008   3.390   0.077  0.7965 -0.9575  2.3983
10218TIP3   OH252144   1.708   2.608   3.823  0.5293  0.1738  0.2325
10218TIP3    H152145   1.633   2.627   3.768  1.3367 -0.5832 -1.1940
10218TIP3    H252146   1.677   2.542   3.885  0.3242 -1.1772 -1.2349
10219TIP3   OH252147   0.712   3.611  14.742  0.3279 -0.2756 -0.0032
10219TIP3    H152148   0.767   3.635  14.668  0.9332 -1.4575  0.0232
10219TIP3    H252149   0.636   3.569  14.703 -0.4026  1.0279 -0.0237
10220TIP3   OH252150   4.388   0.294  12.562 -0.6945 -0.0366  0.4280
10220TIP3    H152151   4.438   0.333  12.490 -0.2663 -0.7955  0.3049
10220TIP3    H252152   4.297   0.294  12.530 -0.4069 -1.0617 -0.4379
10221TIP3   OH252153   2.592   6.455  13.227  0.1160  0.1060  0.8997
10221TIP3    H152154   2.588   6.547  13.200  1.5541 -0.1138 -0.1691
10221TIP3    H252155   2.627   6.458  13.316  0.8943  0.5660  0.5852
10222TIP3   OH252156   3.046   4.248   5.637 -0.5726  0.3291 -0.3011
10222TIP3    H152157   3.102   4.170   5.635 -0.6954  0.1487  1.7011
10222TIP3    H252158   2.966   4.221   5.593  0.4677  0.2636 -2.2636
10223TIP3   OH252159   0.112   5.669   4.709 -0.4011 -0.1102  0.3132
10223TIP3    H152160   0.048   5.600   4.694 -0.1318 -0.2799 -0.0647
10223TIP3    H252161   0.178   5.630   4.765 -0.8799  0.2172  1.1261
10224TIP3   OH252162   4.755   6.304  14.647  0.1081  0.2829 -0.1002
10224TIP3    H152163   4.694   6.373  14.674 -0.2532 -0.6236  1.5151
10224TIP3    H252164   4.841   6.346  14.651 -0.1870  0.8855  0.0288
10225TIP3   OH252165   4.576   4.361  12.997  0.1415 -0.1639  0.0244
10225TIP3    H152166   4.616   4.278  13.020  1.5740  0.7808  1.1413
10225TIP3    H252167   4.489   4.357  13.036  0.4772 -0.8400  0.7262
10226TIP3   OH252168   3.981   3.573  15.356 -0.1062  0.1498 -0.2390
10226TIP3    H152169   3.967   3.604  15.446  0.8494  0.1920 -0.0895
10226TIP3    H252170   3.985   3.653  15.304  0.3608  0.1781 -0.1604
10227TIP3   OH252171   6.810   6.154   3.323 -0.1259 -0.1734  0.1347
10227TIP3    H152172   6.717   6.177   3.319  0.4797  2.5755 -0.7518
10227TIP3    H252173   6.821   6.089   3.254 -1.2409  0.2586 -0.4922
10228TIP3   OH252174   5.290   1.135   1.526 -0.1105  0.6236 -0.4325
10228TIP3    H152175   5.274   1.154   1.433  0.2547  0.9634 -0.4270
10228TIP3    H252176   5.236   1.057   1.544 -1.4109  1.4765 -0.5128
10229TIP3   OH252177   4.071   3.539   4.197  0.3216 -0.3195  0.3134
10229TIP3    H152178   4.069   3.496   4.111 -2.1303 -1.4373  0.8353
10229TIP3    H252179   4.060   3.632   4.177  1.9449 -0.2840 -0.6426
10230TIP3   OH252180   5.788   1.100  15.386 -0.0980 -0.4025 -0.5969
10230TIP3    H152181   5.747   1.064  15.307 -1.3721 -0.6204  0.1438
10230TIP3    H252182   5.722   1.157  15.424  0.9320  0.6298 -0.2883
10231TIP3   OH252183   1.504   4.396  12.978  0.4630  0.3170  0.3917
10231TIP3    H152184   1.458   4.324  13.020  0.3960  0.1715  0.0679
10231TIP3    H252185   1.452   4.417  12.901  0.7758  0.3474  0.1853
10232TIP3   OH252186   3.040   6.537   3.751  0.3093  0.1394  0.4306
10232TIP3    H152187   3.016   6.607   3.691  0.8700 -0.9878 -1.2047
10232TIP3    H252188   3.114   6.572   3.800  1.2777  0.3594 -1.1109
10233TIP3   OH252189   2.317   2.886   5.933  0.0106 -0.4532  0.3969
10233TIP3    H152190   2.348   2.806   5.890  0.1935  0.0409 -0.3952
10233TIP3    H252191   2.395   2.921   5.977 -0.2730 -1.1906  1.5134
10234TIP3   OH252192   4.964   6.687   1.548  0.3324  0.4934  0.2308
10234TIP3    H152193   5.037   6.686   1.487 -0.3595 -1.3450 -0.6587
10234TIP3    H252194   4.981   6.761   1.606  3.2067 -0.2245  0.4352
10235TIP3   OH252195   6.438   1.729   3.871 -0.5171 -0.1076 -0.2646
10235TIP3    H152196   6.347   1.703   3.854 -0.2560 -1.3892  0.2107
10235TIP3    H252197   6.431   1.813   3.917 -1.3767  0.9372 -2.1578
10236TIP3   OH252198   2.968   1.208  14.717  0.2841  0.1215  0.4202
10236TIP3    H152199   2.978   1.207  14.622 -0.1505 -3.1389  0.2799
10236TIP3    H252200   2.889   1.156  14.733  0.5977  0.2013  2.5620
10237TIP3   OH252201   2.680   6.602  12.478  0.2632  0.2837  0.0450
10237TIP3    H152202   2.622   6.606  12.555  1.1425 -0.7065  0.7980
10237TIP3    H252203   2.675   6.510  12.450  0.2714  0.5484 -0.8311
10238TIP3   OH252204   2.792   1.493  11.668 -0.4518 -0.6929  0.1811
10238TIP3    H152205   2.730   1.565  11.682  0.1581 -0.3949  1.4883
10238TIP3    H252206   2.858   1.529  11.610  0.2006  0.0484  1.3428
10239TIP3   OH252207   4.442   5.358   5.655 -0.3897  0.1405  0.2099
10239TIP3    H152208   4.428   5.327   5.566  1.6124 -0.0162 -0.0869
10239TIP3    H252209   4.489   5.286   5.698  1.6089  1.4825  0.3923
10240TIP3   OH252210   4.808   1.873  11.519 -0.0195 -0.1328  0.2513
10240TIP3    H152211   4.809   1.779  11.538  1.7786 -0.2239 -0.1078
10240TIP3    H252212   4.881   1.886  11.458  0.3740  1.6316  1.0222
10241TIP3   OH252213   3.861   1.762  11.476 -0.6415  0.4235 -0.0958
10241TIP3    H152214   3.943   1.723  11.506 -0.9860  0.1996  0.5834
10241TIP3    H252215   3.821   1.798  11.556 -0.3430  2.1625 -0.6854
10242TIP3   OH252216   1.961   5.790   5.516 -0.0349  0.1992 -0.0638
10242TIP3    H152217   1.975   5.695   5.515 -1.1358  0.0335 -0.8315
10242TIP3    H252218   1.915   5.809   5.435 -0.3025  1.3268  0.3312
10243TIP3   OH252219   1.206   5.070  10.454  0.3169 -0.0586  0.0295
10243TIP3    H152220   1.177   5.011  10.524  0.3038 -0.6205 -0.4364
10243TIP3    H252221   1.245   5.011  10.389 -1.3780  0.2563 -1.3124
10244TIP3   OH252222   1.860   5.664  14.214  0.0612 -0.3597 -0.0008
10244TIP3    H152223   1.887   5.604  14.284  0.2901  0.6739  0.8119
10244TIP3    H252224   1.883   5.751  14.247 -0.5328  0.2031 -1.0444
10245TIP3   OH252225   6.301   3.322   4.453 -0.0266  0.2320 -0.6288
10245TIP3    H152226   6.362   3.272   4.507 -0.2209  0.8633  0.1882
10245TIP3    H252227   6.350   3.340   4.373  0.9242  0.8290  0.0645
10246TIP3   OH252228   3.478   4.091  11.455  0.1567 -0.6173  0.0063
10246TIP3    H152229   3.411   4.024  11.441  1.3970 -1.7484 -0.7862
10246TIP3    H252230   3.560   4.042  11.459  1.0617  0.8186 -0.1618
10247TIP3   OH252231   2.366   2.659   0.263  0.0412 -0.0000  0.1175
10247TIP3    H152232   2.306   2.586   0.252  0.5030 -0.7343  1.9552
10247TIP3    H252233   2.452   2.619   0.273  0.0653  0.5541  3.1144
10248TIP3   OH252234   0.984   5.347  15.560  0.4082 -0.1665  0.0618
10248TIP3    H152235   0.893   5.329  15.538  0.2107 -1.6339  1.8947
10248TIP3    H252236   1.007   5.422  15.505 -1.4753 -0.5891 -1.4040
10249TIP3   OH252237   3.865   5.012   5.497  0.0208 -0.3643  0.3964
10249TIP3    H152238   3.795   5.056   5.546 -0.0446 -1.0791  0.9541
10249TIP3    H252239   3.877   4.929   5.542  0.5899 -0.6454 -0.2656
10250TIP3   OH252240   6.505   5.947  16.993  0.3362  0.5199  0.3017
10250TIP3    H152241   6.419   5.926  16.957  0.3298  0.5803  0.2832
10250TIP3    H252242   6.547   6.000  16.926  1.4505 -1.7424 -0.9123
10251TIP3   OH252243   6.791   2.739   1.795  0.5097  0.0411 -0.1799
10251TIP3    H152244   6.763   2.721   1.705 -0.0364  1.7816 -0.3982
10251TIP3    H252245   6.886   2.727   1.793  0.3110 -1.6921 -0.5125
10252TIP3   OH252246   5.909   4.131   3.119 -0.2312  0.0814 -0.2862
10252TIP3    H152247   5.993   4.107   3.081 -0.0005 -2.9386  1.7010
10252TIP3    H252248   5.930   4.193   3.189  0.1762  0.3289 -0.6281
10253TIP3   OH252249   1.923   3.630  16.458 -0.5080  0.2434  0.0131
10253TIP3    H152250   1.856   3.697  16.472 -1.0625 -0.4563  0.8209
10253TIP3    H252251   1.924   3.580  16.540  1.3841  0.5498  0.2255
10254TIP3   OH252252   0.490   0.970   3.717  0.5787  0.0092 -0.0588
10254TIP3    H152253   0.403   0.933   3.707  0.0564  0.6549  1.7782
10254TIP3    H252254   0.505   1.018   3.636 -0.8588  0.0856 -0.3032
10255TIP3   OH252255   6.322   5.813  14.778  0.8268  0.2044  0.4998
10255TIP3    H152256   6.353   5.832  14.867 -2.3918  1.5571  1.4800
10255TIP3    H252257   6.315   5.898  14.736  2.1877 -0.4114 -1.0846
10256TIP3   OH252258   3.446   4.064  17.142  0.0309  0.2365 -0.0287
10256TIP3    H152259   3.506   4.007  17.095 -1.5305  0.1126 -2.0126
10256TIP3    H252260   3.464   4.152  17.107  2.2935  1.0892  2.8653
10257TIP3   OH252261   0.713   0.684  15.309  0.3499  0.5799 -0.4932
10257TIP3    H152262   0.653   0.616  15.279 -0.1069  1.6504 -2.1714
10257TIP3    H252263   0.793   0.637  15.332 -1.2662 -0.9717  2.5311
10258TIP3   OH252264   2.588   5.888  15.037  0.0718 -0.2150  0.0993
10258TIP3    H152265   2.582   5.967  14.983 -0.1270 -0.5301 -0.3421
10258TIP3    H252266   2.671   5.898  15.084 -0.2392  0.5449  0.5062
10259TIP3   OH252267   4.530   1.277  12.107 -0.4364  0.4118 -0.2225
10259TIP3    H152268   4.539   1.329  12.187  0.5992  1.2150 -0.8363
10259TIP3    H252269   4.492   1.194  12.136  2.4259 -0.3944  1.5360
10260TIP3   OH252270   2.109   2.540  10.984 -0.0205  0.2888 -0.7699
10260TIP3    H152271   2.112   2.589  10.902 -0.3395  0.0043 -0.9498
10260TIP3    H252272   2.078   2.453  10.960 -2.8623  0.9707  0.0002
10261TIP3   OH252273   1.017   4.764  13.268 -0.4692 -0.1312 -0.1849
10261TIP3    H152274   1.049   4.851  13.291 -1.6702  0.1523  0.5239
10261TIP3    H252275   1.060   4.706  13.330  3.0614 -0.6155 -2.8069
10262TIP3   OH252276   1.136   5.623   6.483  0.7164 -0.8138  0.0748
10262TIP3    H152277   1.203   5.640   6.416 -0.0445 -2.0496 -1.0406
10262TIP3    H252278   1.116   5.530   6.473 -0.5878 -0.6417  0.9417
10263TIP3   OH252279   2.785   3.147   4.375  0.0835  0.3531 -0.5418
10263TIP3    H152280   2.731   3.177   4.301  0.8469  1.7596 -0.5480
10263TIP3    H252281   2.785   3.051   4.366 -1.6682  0.3576 -1.0536
10264TIP3   OH252282   0.809   0.075  14.904  0.2042 -0.4432 -0.1239
10264TIP3    H152283   0.786  -0.000  14.957  0.1125 -0.8195 -0.6883
10264TIP3    H252284   0.899   0.058  14.875  0.1663 -0.3630 -0.2940
10265TIP3   OH252285   2.915   6.433  16.195  0.0159 -0.2003 -0.1925
10265TIP3    H152286   2.937   6.372  16.265  1.1606  0.8007  0.3675
10265TIP3    H252287   2.820   6.442  16.200  0.1484  0.7055  2.0442
10266TIP3   OH252288   1.835   2.859   1.057  0.3400 -0.1522  0.0632
10266TIP3    H152289   1.818   2.951   1.077  1.1009  0.0915 -0.3569
10266TIP3    H252290   1.846   2.857   0.962 -1.3269 -0.9724 -0.1563
10267TIP3   OH252291   2.645   5.415  16.239 -0.8482  0.1302  0.1664
10267TIP3    H152292   2.641   5.459  16.324 -1.4757  1.3414 -0.4626
10267TIP3    H252293   2.666   5.485  16.176  0.4863 -0.8967 -0.5819
10268TIP3   OH252294   4.698   3.168   0.790 -0.1227 -0.0686 -0.2478
10268TIP3    H152295   4.790   3.176   0.815  0.1998  0.1326 -1.4327
10268TIP3    H252296   4.678   3.250   0.744 -1.6847  1.0808  2.2805
10269TIP3   OH252297   1.028   6.061   2.709  0.2660  0.4400 -0.2214
10269TIP3    H152298   1.051   6.095   2.795 -1.2566  1.2211 -0.1050
10269TIP3    H252299   1.048   6.132   2.648 -0.7591  0.7066 -0.2501
10270TIP3   OH252300   1.667   3.969   5.446 -0.0464  0.0589 -0.1548
10270TIP3    H152301   1.716   3.986   5.527  2.1389  0.2887 -1.4384
10270TIP3    H252302   1.578   3.999   5.465  0.8756  2.0068  1.5093
10271TIP3   OH252303   6.587   5.418   3.177  0.1846  0.3358  0.1583
10271TIP3    H152304   6.566   5.469   3.255  1.5912  0.2601  0.5997
10271TIP3    H252305   6.579   5.327   3.205  0.0103  0.3027  0.0091
10272TIP3   OH252306   2.894   2.217  16.224 -0.0671  0.3790 -0.3242
10272TIP3    H152307   2.850   2.246  16.145  0.8384  2.5759 -0.0841
10272TIP3    H252308   2.840   2.145  16.257 -1.0479  0.1524 -2.3177
10273TIP3   OH252309   3.617   4.114  16.108  0.1808 -0.7040  0.1727
10273TIP3    H152310   3.671   4.191  16.087 -0.6144  0.2280  1.3674
10273TIP3    H252311   3.662   4.072  16.180 -0.1952 -0.4555  0.5561
10274TIP3   OH252312   1.684   6.824   2.805  0.7427 -0.0828  0.2305
10274TIP3    H152313   1.756   6.841   2.865  0.8525 -1.8544  0.6688
10274TIP3    H252314   1.606   6.827   2.860  0.6896 -0.1752  0.1615
10275TIP3   OH252315   5.339   3.270  13.726 -0.0457 -0.4673 -0.3055
10275TIP3    H152316   5.271   3.258  13.659  0.9255  2.0003 -1.8689
10275TIP3    H252317   5.308   3.341  13.781  1.4627  1.2591 -1.5219
10276TIP3   OH252318   4.390   3.728   0.755  0.0395 -0.4181 -0.1739
10276TIP3    H152319   4.430   3.699   0.673  0.9944  0.4039 -0.0141
10276TIP3    H252320   4.458   3.717   0.821 -0.5502 -0.5784  0.4191
10277TIP3   OH252321   5.534   4.175  11.715  0.6458 -0.0244  0.2603
10277TIP3    H152322   5.478   4.210  11.784 -0.3936  1.6394 -1.3337
10277TIP3    H252323   5.581   4.103  11.757 -1.7367 -0.6940  2.0431
10278TIP3   OH252324   3.021   2.723   1.294 -0.6795  0.1111  0.7676
10278TIP3    H152325   3.071   2.642   1.299 -0.5580  0.1229 -0.0987
10278TIP3    H252326   3.023   2.747   1.201 -1.5489  0.5766  0.8603
10279TIP3   OH252327   6.706   5.537  11.539 -0.7025  0.0081  0.3924
10279TIP3    H152328   6.648   5.586  11.597 -2.8490 -0.5281 -1.1765
10279TIP3    H252329   6.712   5.450  11.578 -0.1805  0.3207  1.0341
10280TIP3   OH252330   3.550   2.748   2.408  0.0397 -0.0646  0.3685
10280TIP3    H152331   3.572   2.818   2.347 -0.5740  0.6153  0.8989
10280TIP3    H252332   3.455   2.737   2.398  0.3447 -2.0725 -0.9951
10281TIP3   OH252333   1.978   2.209   5.839  0.1685 -0.3131 -0.1029
10281TIP3    H152334   1.926   2.178   5.765  1.7206 -0.2357 -1.2722
10281TIP3    H252335   1.924   2.191   5.916 -1.3748 -0.6247 -1.2288
10282TIP3   OH252336   1.539   1.507  12.936  0.2578 -0.3357  0.3043
10282TIP3    H152337   1.589   1.509  12.854  1.1618 -2.8419  0.6827
10282TIP3    H252338   1.545   1.596  12.971  1.8556  0.2052 -1.1957
10283TIP3   OH252339   2.907   1.166  12.188  0.1699 -0.3819 -0.2678
10283TIP3    H152340   2.877   1.245  12.144 -0.6572 -0.2198  0.5636
10283TIP3    H252341   2.975   1.131  12.131  0.5124  0.8999 -0.6709
10284TIP3   OH252342   3.623   5.012  10.472  0.1685  0.2406  0.1057
10284TIP3    H152343   3.542   5.021  10.422 -0.6110 -1.5021  0.9915
10284TIP3    H252344   3.635   5.097  10.513 -1.1764  0.5483 -0.0915
10285TIP3   OH252345   1.831   1.342   2.005  0.0666  0.8368  0.9347
10285TIP3    H152346   1.756   1.333   2.064  1.2844 -2.6302  2.2816
10285TIP3    H252347   1.897   1.389   2.057  0.2310  0.1262  1.3848
10286TIP3   OH252348   2.780   5.973  13.503 -0.2361 -0.2668  0.2095
10286TIP3    H152349   2.811   6.005  13.418 -0.3594 -0.7154 -0.0143
10286TIP3    H252350   2.806   5.880  13.504  3.5395  0.5984  2.4163
10287TIP3   OH252351   2.587   2.555  12.400 -0.0033 -0.0753  0.1980
10287TIP3    H152352   2.506   2.595  12.368 -0.3178 -0.9116 -0.0666
10287TIP3    H252353   2.651   2.571  12.330 -0.5477 -1.4196 -0.6536
10288TIP3   OH252354   0.074   2.121  11.418 -0.1798 -0.9669 -0.3420
10288TIP3    H152355   0.028   2.174  11.354 -1.5329  0.9865  2.0761
10288TIP3    H252356   0.083   2.177  11.495 -0.1398 -3.6428  1.7970
10289TIP3   OH252357   5.504   5.099   2.039 -0.0823 -0.5912  0.2231
10289TIP3    H152358   5.429   5.103   2.099 -0.1542 -1.1251  0.1784
10289TIP3    H252359   5.559   5.173   2.065 -0.1581 -0.7557  0.8954
10290TIP3   OH252360   5.334   1.097  12.344  0.5311 -0.0763 -0.1173
10290TIP3    H152361   5.287   1.126  12.266 -0.4480  0.2179  0.5633
10290TIP3    H252362   5.266   1.075  12.407  1.2704 -2.0226  0.0796
10291TIP3   OH252363   0.075   6.491  14.694  0.1862  0.1956 -0.2683
10291TIP3    H152364   0.021   6.495  14.774 -0.6487 -0.7692 -0.7510
10291TIP3    H252365   0.023   6.537  14.628  0.1619 -0.3369 -0.6249
10292TIP3   OH252366   4.188   6.700   0.613 -0.3089 -0.0637 -0.4549
10292TIP3    H152367   4.117   6.758   0.585 -1.3578 -0.5614  1.0848
10292TIP3    H252368   4.172   6.618   0.567 -0.9204 -0.2738  0.1291
10293TIP3   OH252369   1.433   0.017   4.729  0.8840  0.1862 -0.2706
10293TIP3    H152370   1.492   0.052   4.662 -0.8694  1.1530 -1.3946
10293TIP3    H252371   1.489  -0.038   4.784  2.8692  1.2918 -1.0738
10294TIP3   OH252372   6.612   6.042   6.561 -0.3859  0.3790  0.5912
10294TIP3    H152373   6.693   6.016   6.606  0.1516 -0.0448 -0.5629
10294TIP3    H252374   6.555   5.966   6.568  0.4938 -0.5069 -1.2029
10295TIP3   OH252375   2.088   3.774   0.730  0.2190 -0.1543 -0.3681
10295TIP3    H152376   2.011   3.777   0.787 -0.5455 -0.6961 -1.3524
10295TIP3    H252377   2.065   3.832   0.657  1.1451  0.4423 -0.1989
10296TIP3   OH252378   4.954   4.595  16.231  0.2056 -0.3067  0.3582
10296TIP3    H152379   4.945   4.675  16.283 -0.6223 -1.2242  1.6815
10296TIP3    H252380   4.992   4.625  16.148 -0.4257  1.5080  0.6687
10297TIP3   OH252381   0.709   6.306  13.817  0.6499  0.3728  0.5890
10297TIP3    H152382   0.780   6.337  13.760 -1.0579 -1.2039 -2.6959
10297TIP3    H252383   0.701   6.213  13.796 -2.0766  0.4054  1.1427
10298TIP3   OH252384   6.272   1.398   0.785 -0.4639  0.2435 -0.6025
10298TIP3    H152385   6.272   1.463   0.855 -2.5428  0.0499 -0.3713
10298TIP3    H252386   6.266   1.314   0.831  2.0263 -0.1827 -0.9037
10299TIP3   OH252387   0.469   2.316  17.214 -0.2550  0.3913  0.0590
10299TIP3    H152388   0.471   2.411  17.217  0.6644  0.3605  1.3938
10299TIP3    H252389   0.504   2.293  17.128  0.0497  1.2537 -0.0530
10300TIP3   OH252390   0.272   0.529  11.567  0.2034  0.4995  0.5981
10300TIP3    H152391   0.251   0.618  11.595  1.4773  0.7371  0.8662
10300TIP3    H252392   0.257   0.530  11.472 -1.6373  0.4299  0.8615
10301TIP3   OH252393   6.448   1.753  13.143  0.2194  0.2264 -0.5453
10301TIP3    H152394   6.486   1.671  13.175  0.3683  0.3342 -0.4430
10301TIP3    H252395   6.523   1.805  13.115  0.3692  1.3197  1.7029
10302TIP3   OH252396   6.565   0.844  12.763  0.0928  0.1855 -1.0381
10302TIP3    H152397   6.589   0.751  12.768  2.2046  0.6884 -0.8717
10302TIP3    H252398   6.544   0.858  12.670  2.2497  0.0398 -1.6161
10303TIP3   OH252399   3.352   6.167  16.256  0.6341  0.5518 -0.0920
10303TIP3    H152400   3.436   6.194  16.292  1.2145  0.0853 -1.0780
10303TIP3    H252401   3.308   6.250  16.234  1.3376  0.7691 -0.7034
10304TIP3   OH252402   5.771   1.488  11.726 -0.1831 -0.4153  0.0558
10304TIP3    H152403   5.749   1.454  11.639 -2.8662 -1.4541  1.0457
10304TIP3    H252404   5.694   1.538  11.752  1.1995  1.1864  1.2554
10305TIP3   OH252405   1.682   0.228  15.679  0.1524 -0.4849  0.1422
10305TIP3    H152406   1.688   0.215  15.584 -0.3804 -0.4849  0.1045
10305TIP3    H252407   1.593   0.199  15.702  0.5818 -1.3495  0.7789
10306TIP3   OH252408   0.216   0.054  17.116  0.2495  0.0273  0.2157
10306TIP3    H152409   0.262   0.025  17.037 -0.0031  0.0311  0.0650
10306TIP3    H252410   0.162  -0.021  17.141  1.8290 -0.7120  1.5489
10307TIP3   OH252411   0.842   0.934  12.441  0.3419 -0.6859  0.4602
10307TIP3    H152412   0.850   0.879  12.363  0.4678 -1.0534  0.7314
10307TIP3    H252413   0.886   0.885  12.510  0.8882 -0.0246  0.5943
10308TIP3   OH252414   4.841   1.258   5.072  0.0230 -0.1310 -0.1198
10308TIP3    H152415   4.858   1.339   5.025 -0.2624 -0.5586 -0.9850
10308TIP3    H252416   4.848   1.281   5.165  2.5380  0.3339 -0.3519
10309TIP3   OH252417   2.079   1.984  11.976 -0.7064 -0.3194  0.3694
10309TIP3    H152418   2.080   1.984  12.071 -0.6500  0.4612  0.3723
10309TIP3    H252419   2.148   2.045  11.951 -1.3710  0.2417 -0.1544
10310TIP3   OH252420   0.634   4.229   2.452  0.1895  0.9285  1.1101
10310TIP3    H152421   0.563   4.207   2.512 -0.2460  1.6684  0.8729
10310TIP3    H252422   0.626   4.166   2.380 -0.9047  1.6845  0.5468
10311TIP3   OH252423   1.471   5.945   4.527  0.5817  0.2393 -0.2629
10311TIP3    H152424   1.387   5.949   4.481  1.3641  0.0663 -1.7657
10311TIP3    H252425   1.479   6.031   4.569  0.3051  0.7893 -1.3008
10312TIP3   OH252426   1.964   3.407  12.095 -0.0977  0.5264 -0.0842
10312TIP3    H152427   1.935   3.480  12.039 -0.1266 -0.6961 -1.7607
10312TIP3    H252428   1.899   3.339  12.080  0.7478 -0.3727  0.2615
10313TIP3   OH252429   3.446   2.591   1.551  0.0946  0.5131  0.0133
10313TIP3    H152430   3.438   2.497   1.538  0.1952  0.4803  0.1872
10313TIP3    H252431   3.468   2.601   1.644  0.2049  0.7005 -0.0321
10314TIP3   OH252432   4.666   4.260  16.764 -0.2008  0.3780  0.5287
10314TIP3    H152433   4.578   4.286  16.737 -0.4039 -1.1905 -0.4167
10314TIP3    H252434   4.696   4.201  16.695  0.9921 -0.3278  1.6113
10315TIP3   OH252435   6.785   5.645   0.172  0.2161  0.5866  0.2109
10315TIP3    H152436   6.827   5.666   0.255 -0.0541 -1.8416  1.0303
10315TIP3    H252437   6.707   5.700   0.170  0.4857  1.0303  1.3112
10316TIP3   OH252438   6.095   2.108   0.386  0.5613  0.1129 -0.2990
10316TIP3    H152439   6.159   2.053   0.340 -0.3161 -1.0180 -0.2080
10316TIP3    H252440   6.010   2.071   0.363 -0.0331  1.0798  0.2488
10317TIP3   OH252441   0.627   3.622  13.283  0.0555  0.4008  0.7374
10317TIP3    H152442   0.674   3.695  13.322 -0.1848 -0.2601  2.3231
10317TIP3    H252443   0.541   3.623  13.325 -0.8561  0.6831 -1.0262
10318TIP3   OH252444   1.445   4.531   5.773 -0.6132  1.0116 -0.2572
10318TIP3    H152445   1.415   4.601   5.832  1.0916  1.5285  0.0496
10318TIP3    H252446   1.484   4.466   5.832 -0.8484  0.4998 -0.6609
10319TIP3   OH252447   0.726   6.653  12.845 -0.3922  0.2866 -0.2366
10319TIP3    H152448   0.756   6.596  12.916  0.3317  0.6514 -0.2414
10319TIP3    H252449   0.718   6.595  12.769 -1.4960 -0.1713  0.2179
10320TIP3   OH252450   3.220   0.727   5.072  0.4869  0.4619 -0.0557
10320TIP3    H152451   3.309   0.728   5.107  0.5099  1.8876 -0.0804
10320TIP3    H252452   3.168   0.684   5.139  1.3530 -1.4572 -0.5411
10321TIP3   OH252453   2.892   3.110  14.312  0.2329 -0.0408 -0.8636
10321TIP3    H152454   2.808   3.127  14.354  0.9193 -1.4756  1.2765
10321TIP3    H252455   2.935   3.195  14.310  0.0573  0.1572  1.2308
10322TIP3   OH252456   4.725   1.018   3.382 -0.8357  0.5898  0.1503
10322TIP3    H152457   4.678   0.943   3.346 -1.0942  0.4632  0.7400
10322TIP3    H252458   4.658   1.084   3.396 -0.6444  0.8523 -0.1460
10323TIP3   OH252459   0.126   6.360  11.173 -0.3663  0.2501  0.4988
10323TIP3    H152460   0.120   6.301  11.098 -0.0262 -0.5603  1.0891
10323TIP3    H252461   0.220   6.372  11.187 -0.3791 -0.7595  1.6483
10324TIP3   OH252462   6.594   6.170  13.261  0.7182 -0.0193 -0.1621
10324TIP3    H152463   6.598   6.254  13.216  0.0211 -0.0366 -0.2634
10324TIP3    H252464   6.520   6.124  13.221  1.9909 -1.2966 -1.1795
10325TIP3   OH252465   5.347   5.865   1.659  0.1492 -0.3712  0.5191
10325TIP3    H152466   5.256   5.849   1.683  0.0956 -0.5078  0.2307
10325TIP3    H252467   5.392   5.784   1.682  0.5398  0.3252  2.3286
10326TIP3   OH252468   5.118   6.237  15.492  0.2692  0.2310  0.2911
10326TIP3    H152469   5.070   6.293  15.553  1.6751  2.8394 -0.8053
10326TIP3    H252470   5.086   6.262  15.406  0.7662 -0.8716 -0.2278
10327TIP3   OH252471   5.459   0.311   0.971  0.3412 -0.6268  0.0639
10327TIP3    H152472   5.456   0.224   1.011 -1.2642 -0.7137 -0.1759
10327TIP3    H252473   5.459   0.295   0.877  1.8203 -0.3785  0.0004
10328TIP3   OH252474   4.890   3.689  12.305  0.1904 -0.1560 -0.2289
10328TIP3    H152475   4.858   3.779  12.301  0.4027 -0.0817 -0.2638
10328TIP3    H252476   4.879   3.655  12.216  0.4288 -0.0539 -0.2979
10329TIP3   OH252477   0.270   1.045   2.428 -0.2795  0.3408  0.1732
10329TIP3    H152478   0.292   1.084   2.344  0.8184 -0.8934 -0.1432
10329TIP3    H252479   0.256   0.952   2.409 -2.5944  0.4612  0.9409
10330TIP3   OH252480   0.144   4.968  11.693  0.4416  0.0396  0.2448
10330TIP3    H152481   0.110   4.906  11.758 -1.9758  1.2903  0.2859
10330TIP3    H252482   0.191   5.033  11.745 -3.1463  2.1630  1.2322
10331TIP3   OH252483   5.052   2.272  13.363  0.0728  0.3178 -0.1086
10331TIP3    H152484   5.114   2.244  13.430 -1.2859  0.0724  1.0772
10331TIP3    H252485   5.091   2.242  13.281  0.1762 -2.3715  0.8275
10332TIP3   OH252486   1.550   6.369   2.628  0.4403 -0.7406 -0.4682
10332TIP3    H152487   1.493   6.320   2.688 -0.2207 -0.2284 -0.6683
10332TIP3    H252488   1.577   6.446   2.677  0.4200 -0.6419 -0.6125
10333TIP3   OH252489   6.588   2.974  12.907 -0.0564  0.3510 -0.2441
10333TIP3    H152490   6.546   3.054  12.877 -2.2595  0.8919  3.6425
10333TIP3    H252491   6.533   2.903  12.874 -2.0673  0.8903  1.7156
10334TIP3   OH252492   3.346   0.310   1.212  0.0802 -0.6145  0.3858
10334TIP3    H152493   3.377   0.254   1.141  0.5816 -1.2303  1.0720
10334TIP3    H252494   3.418   0.310   1.275 -1.6387 -3.0484  2.5758
10335TIP3   OH252495   0.852   0.739   3.818  0.6727 -0.1556  0.1538
10335TIP3    H152496   0.799   0.672   3.860  1.2437 -0.5063  0.3272
10335TIP3    H252497   0.929   0.747   3.874  2.3005 -1.8531 -1.6847
10336TIP3   OH252498   6.074   0.246   1.688 -0.0785  0.1233 -0.5022
10336TIP3    H152499   6.078   0.295   1.770 -0.9116  1.0895 -1.0106
10336TIP3    H252500   6.165   0.240   1.659  0.0822  1.0286 -0.2253
10337TIP3   OH252501   0.114   0.580  16.896  1.1261  0.0458 -0.5681
10337TIP3    H152502   0.132   0.634  16.973 -0.6192  0.5284 -0.4337
10337TIP3    H252503   0.149   0.630  16.823 -1.8909  2.3610 -0.6568
10338TIP3   OH252504   0.301   3.718   3.869  0.4601 -0.2149 -0.1555
10338TIP3    H152505   0.304   3.783   3.800 -1.1461  1.7412  1.4958
10338TIP3    H252506   0.382   3.731   3.919  1.0659 -0.8489 -0.9502
10339TIP3   OH252507   3.653   6.642   2.856  0.2039 -0.2721 -0.0253
10339TIP3    H152508   3.673   6.581   2.927 -2.9259 -1.2504  0.1766
10339TIP3    H252509   3.622   6.586   2.785  1.5763  0.8249 -1.5580
10340TIP3   OH252510   0.538   1.472   6.119  0.4831  0.2068 -0.1715
10340TIP3    H152511   0.556   1.529   6.194 -0.4172 -0.0607  0.2601
10340TIP3    H252512   0.549   1.529   6.043  1.1121  0.5573  0.1683
10341TIP3   OH252513   0.736   3.556  13.547 -0.5401  0.6080 -0.3565
10341TIP3    H152514   0.663   3.519  13.498 -0.5724  1.0885 -0.6743
10341TIP3    H252515   0.701   3.569  13.636 -0.0783 -1.5507  0.2073
10342TIP3   OH252516   2.834   6.603   4.969 -0.0649 -0.5561  0.2850
10342TIP3    H152517   2.804   6.543   4.900  0.5993 -2.3676  1.4943
10342TIP3    H252518   2.926   6.618   4.949  0.0649 -0.8868  0.6218
10343TIP3   OH252519   5.470   3.737   0.577 -0.1034 -0.5421  0.3603
10343TIP3    H152520   5.488   3.828   0.551 -1.5917  0.1590  1.5675
10343TIP3    H252521   5.402   3.708   0.517 -0.0098 -0.6796  0.3205
10344TIP3   OH252522   0.023   2.122  15.909 -0.1568 -0.2207 -0.2757
10344TIP3    H152523   0.105   2.154  15.945 -0.1950  0.2776 -0.6214
10344TIP3    H252524  -0.045   2.167  15.959 -0.2255  1.7762 -2.0138
10345TIP3   OH252525   4.368   1.902   4.866  0.8785  0.1928 -0.6582
10345TIP3    H152526   4.361   1.816   4.826 -1.1825 -0.3338  0.6646
10345TIP3    H252527   4.434   1.892   4.934 -0.6918 -0.9938  0.8067
10346TIP3   OH252528   4.117   3.821  10.524  0.5909  0.4749  0.5166
10346TIP3    H152529   4.103   3.916  10.516 -0.8229  0.1776 -0.8957
10346TIP3    H252530   4.073   3.784  10.448 -1.1191 -1.5310  2.3629
10347TIP3   OH252531   2.256   5.170  13.566  0.8192 -0.2207 -0.4008
10347TIP3    H152532   2.291   5.103  13.625  0.4153  0.7943  1.0307
10347TIP3    H252533   2.257   5.251  13.617  1.8562  1.0241 -2.2857
10348TIP3   OH252534   5.201   1.371  13.827 -0.8137 -0.4562 -0.4132
10348TIP3    H152535   5.167   1.315  13.897 -0.1777 -2.1068 -1.3666
10348TIP3    H252536   5.129   1.430  13.807 -1.1948 -0.2962  1.2525
10349TIP3   OH252537   3.388   5.779  13.410 -0.3256 -0.2181 -0.4078
10349TIP3    H152538   3.322   5.823  13.464 -0.5533  0.5894 -1.3203
10349TIP3    H252539   3.344   5.764  13.326  1.1071  1.7807 -1.5848
10350TIP3   OH252540   5.037   6.629   2.485 -0.3825 -0.4723 -0.0392
10350TIP3    H152541   5.088   6.553   2.516  0.6825  0.5999  0.9492
10350TIP3    H252542   5.028   6.684   2.563  0.8976  1.5090 -1.2180
10351TIP3   OH252543   4.065   4.517  13.489 -0.0244  0.7964  0.1362
10351TIP3    H152544   4.151   4.536  13.452  0.6745 -0.7672  0.8847
10351TIP3    H252545   4.079   4.442  13.547 -2.1033 -0.2434 -0.6060
10352TIP3   OH252546   4.143   6.272  11.438 -0.1502 -0.0778  0.6473
10352TIP3    H152547   4.110   6.321  11.363  0.3140 -0.7552 -0.0132
10352TIP3    H252548   4.129   6.331  11.513  0.5460  1.1335 -0.1376
10353TIP3   OH252549   6.627   0.565  12.807 -0.5858  0.1329 -0.2622
10353TIP3    H152550   6.565   0.519  12.751 -1.5789  0.3033  0.6773
10353TIP3    H252551   6.708   0.567  12.756 -0.5670 -2.4040 -0.4638
10354TIP3   OH252552   4.575   5.076   4.957  0.0963 -0.2047 -0.1636
10354TIP3    H152553   4.615   5.054   5.042 -1.1854  0.6627  0.7025
10354TIP3    H252554   4.483   5.089   4.977 -0.0852  0.8557 -1.5593
10355TIP3   OH252555   6.190   5.309   6.083  0.1898 -0.6572 -0.3567
10355TIP3    H152556   6.240   5.322   6.003  1.8730  1.3232  0.9069
10355TIP3    H252557   6.171   5.398   6.114 -2.7376 -1.3377  0.0987
10356TIP3   OH252558   1.132   0.743   3.525  0.2888 -0.2009  0.0328
10356TIP3    H152559   1.183   0.666   3.551  1.1158  0.0077 -0.8811
10356TIP3    H252560   1.199   0.806   3.495 -0.2384  1.3830  1.9619
10357TIP3   OH252561   4.782   2.933   3.609  0.0776 -0.4491  0.0699
10357TIP3    H152562   4.714   2.889   3.557 -0.2617 -2.0115  1.7340
10357TIP3    H252563   4.745   3.018   3.630 -1.3107 -1.1744  0.7373
10358TIP3   OH252564   3.738   0.512  16.773  0.1765  0.0025 -0.3722
10358TIP3    H152565   3.689   0.503  16.690  1.3607  0.1554 -1.1080
10358TIP3    H252566   3.706   0.440  16.827  0.0925 -0.7076 -1.3310
10359TIP3   OH252567   4.616   2.244  12.994  0.7056 -0.1401 -0.1678
10359TIP3    H152568   4.540   2.282  13.038  2.2064  1.3131  1.3472
10359TIP3    H252569   4.636   2.166  13.045  0.2525 -0.5085 -0.5512
10360TIP3   OH252570   6.549   1.648  14.493 -0.0688  0.1169 -0.1941
10360TIP3    H152571   6.546   1.743  14.503 -0.6231  0.1764 -0.8378
10360TIP3    H252572   6.585   1.634  14.406 -0.5559 -0.2452 -0.3429
10361TIP3   OH252573   5.646   6.286   3.080  0.0020  0.0411  0.1439
10361TIP3    H152574   5.680   6.231   3.009  0.3007  0.5337 -0.1043
10361TIP3    H252575   5.716   6.350   3.096  0.2114 -0.4474  1.3220
10362TIP3   OH252576   4.623   3.341  16.154 -0.1820  0.5464  0.6874
10362TIP3    H152577   4.709   3.343  16.113  0.2506  0.0454  1.5587
10362TIP3    H252578   4.610   3.429  16.189 -1.1536  1.4203 -1.6855
10363TIP3   OH252579   0.699   4.487  13.891 -0.5701 -0.2520  0.0427
10363TIP3    H152580   0.785   4.447  13.877 -0.4321  0.5076 -1.4788
10363TIP3    H252581   0.679   4.530  13.808 -0.8970  2.4568  1.4110
10364TIP3   OH252582   6.443   0.463  11.309 -0.0747 -0.3229  0.4092
10364TIP3    H152583   6.410   0.504  11.229  0.6451 -0.4905  0.0189
10364TIP3    H252584   6.423   0.370  11.298 -0.2590 -0.3030  0.5693
10365TIP3   OH252585   4.874   0.952  11.093  0.3612  0.0776  0.1539
10365TIP3    H152586   4.865   0.991  11.006 -0.3233  0.7468  0.5117
10365TIP3    H252587   4.968   0.939  11.104  0.6893  2.2505  0.2780
10366TIP3   OH252588   0.299   5.219   3.923 -0.4067  0.6294 -0.5530
10366TIP3    H152589   0.252   5.264   3.852  0.3098  3.4706  0.6050
10366TIP3    H252590   0.390   5.250   3.915  0.7176 -2.3956 -0.9304
10367TIP3   OH252591   2.763   6.563   0.896  0.4897 -0.4068  0.5644
10367TIP3    H152592   2.778   6.602   0.982  0.4877 -2.3250  1.4843
10367TIP3    H252593   2.668   6.546   0.894  0.3688  0.2790 -0.1358
10368TIP3   OH252594   4.296   4.036  14.167  0.0091  0.5930  0.4677
10368TIP3    H152595   4.306   3.983  14.246 -2.1692 -0.7886 -0.1190
10368TIP3    H252596   4.330   4.123  14.192  1.1221 -0.3032  2.2857
10369TIP3   OH252597   5.875   3.235  13.149 -0.1340  0.2525 -0.0739
10369TIP3    H152598   5.903   3.306  13.208 -0.8928  0.6563 -0.1763
10369TIP3    H252599   5.954   3.183  13.134  0.2519  0.6056  0.6628
10370TIP3   OH252600   2.299   2.437   4.240 -0.1357  0.3336  0.1360
10370TIP3    H152601   2.362   2.410   4.306 -0.8877  0.9326  1.1421
10370TIP3    H252602   2.255   2.514   4.279 -1.2987  0.0841 -0.6186
10371TIP3   OH252603   0.148   1.597  14.433 -0.4102 -0.2194  0.9387
10371TIP3    H152604   0.101   1.680  14.420  0.2256 -0.1156 -1.2525
10371TIP3    H252605   0.174   1.571  14.344 -0.8537 -2.9493  1.5187
10372TIP3   OH252606   4.540   3.177   2.512 -0.4326 -0.5159  0.2002
10372TIP3    H152607   4.460   3.158   2.560 -0.8848  1.6575  0.4389
10372TIP3    H252608   4.514   3.173   2.420 -0.6223 -0.6259  0.2591
10373TIP3   OH252609   3.088   3.443  11.797 -0.1887 -0.0418  0.4670
10373TIP3    H152610   3.168   3.452  11.848 -0.8092  0.5039  1.3719
10373TIP3    H252611   3.100   3.363  11.746  0.6192 -0.3650  1.1563
10374TIP3   OH252612   3.828   1.663   0.474  0.0422 -0.0048  0.8703
10374TIP3    H152613   3.879   1.743   0.466  0.5585 -0.3944  0.1055
10374TIP3    H252614   3.794   1.647   0.386 -0.0920 -0.5888  1.0203
10375TIP3   OH252615   6.026   3.310  11.702  0.1189 -0.0816  0.6882
10375TIP3    H152616   6.088   3.305  11.630  0.5712 -0.6548  1.1170
10375TIP3    H252617   5.966   3.236  11.689 -1.3357  1.2191 -0.4862
10376TIP3   OH252618   5.228   6.692  16.461 -0.3067 -0.0464  0.5578
10376TIP3    H152619   5.308   6.680  16.411 -0.3347 -0.6846  0.6573
10376TIP3    H252620   5.234   6.628  16.532 -1.0175 -0.2733  0.4231
10377TIP3   OH252621   1.802   5.153  16.863 -0.3579  0.1146 -0.2035
10377TIP3    H152622   1.740   5.086  16.893  0.0346 -0.0510  0.2486
10377TIP3    H252623   1.763   5.236  16.892  0.1686 -0.0618  1.0764
10378TIP3   OH252624   1.223   5.981  16.672  0.0103  0.0883 -0.5314
10378TIP3    H152625   1.142   6.026  16.696 -0.1678  0.1865 -1.2793
10378TIP3    H252626   1.222   5.901  16.724 -0.0881  0.5409  0.1800
10379TIP3   OH252627   0.864   2.670  12.436 -0.6275 -0.0348 -0.4002
10379TIP3    H152628   0.817   2.663  12.354 -2.0878 -2.1129  0.5465
10379TIP3    H252629   0.947   2.625  12.421 -0.8549 -0.3324 -0.7605
10380TIP3   OH252630   2.977   1.554  15.679  0.2961  0.0572 -0.2418
10380TIP3    H152631   2.954   1.516  15.595 -0.4657 -0.7471  0.3101
10380TIP3    H252632   2.894   1.587  15.714  0.2570 -1.2148  0.9635
10381TIP3   OH252633   0.397   0.705  10.809  0.1528 -0.5082 -0.2920
10381TIP3    H152634   0.426   0.742  10.892 -1.2849  0.7420 -0.3021
10381TIP3    H252635   0.329   0.642  10.833 -1.8539  1.4482 -0.5696
10382TIP3   OH252636   6.133   5.158  16.326 -0.1530  0.6665 -0.7107
10382TIP3    H152637   6.206   5.170  16.386 -0.9739 -1.0324  0.7042
10382TIP3    H252638   6.108   5.247  16.300  0.7282  1.3977  0.8457
10383TIP3   OH252639   0.750   3.269  12.368 -0.5789  0.5068 -0.4448
10383TIP3    H152640   0.679   3.315  12.413  0.7063  2.6178 -0.4331
10383TIP3    H252641   0.817   3.256  12.435 -1.0355 -1.8480 -0.3510
10384TIP3   OH252642   4.540   0.984   1.667 -0.0478  0.4134 -0.1350
10384TIP3    H152643   4.513   0.959   1.578 -3.0779 -2.8602  1.4289
10384TIP3    H252644   4.596   0.913   1.696  0.4540  1.1646  0.7832
10385TIP3   OH252645   1.436   2.793   4.724  0.5241 -0.3222  0.0193
10385TIP3    H152646   1.396   2.857   4.665 -1.2296 -1.2796  0.1047
10385TIP3    H252647   1.362   2.751   4.767  1.7078 -0.4104  2.1283
10386TIP3   OH252648   4.174   0.437   0.912  0.0976 -0.4025 -0.0490
10386TIP3    H152649   4.112   0.469   0.846 -0.7117 -0.6068  0.5899
10386TIP3    H252650   4.137   0.354   0.942  0.3973 -0.2704  0.7286
10387TIP3   OH252651   2.538   0.178   2.770 -0.2333  0.2270 -0.7352
10387TIP3    H152652   2.632   0.198   2.768 -0.3262  0.8405 -3.6462
10387TIP3    H252653   2.506   0.224   2.847  1.8414 -0.1039  0.4123
10388TIP3   OH252654   1.614   4.137  11.583  0.3725 -0.5087  0.4884
10388TIP3    H152655   1.690   4.107  11.532  1.4967  0.6353  1.4389
10388TIP3    H252656   1.569   4.198  11.525 -0.5640 -2.0977 -0.5428
10389TIP3   OH252657   5.475   6.144  12.426 -0.3801  0.6421  0.1775
10389TIP3    H152658   5.399   6.109  12.473 -0.7866  0.5532 -0.5259
10389TIP3    H252659   5.550   6.100  12.465 -0.7221  0.4214  0.6027
10390TIP3   OH252660   6.351   0.752  14.633 -0.0296 -0.2718  0.4482
10390TIP3    H152661   6.324   0.660  14.627  0.9503 -0.4953 -1.2693
10390TIP3    H252662   6.359   0.769  14.727 -2.0146 -1.3733  0.8595
10391TIP3   OH252663   3.866   3.085   4.184 -0.3899  0.4207 -0.4452
10391TIP3    H152664   3.830   3.168   4.153 -0.2609  0.5644 -0.2085
10391TIP3    H252665   3.960   3.101   4.193 -0.0828 -0.2707 -2.1062
10392TIP3   OH252666   4.464   2.223   2.334  0.5689  1.3489  0.5390
10392TIP3    H152667   4.476   2.200   2.426 -0.6777  1.2358  0.6925
10392TIP3    H252668   4.473   2.140   2.288  1.8869  1.5149  0.4743
10393TIP3   OH252669   4.120   0.788  13.097 -0.3096 -0.2300 -0.0829
10393TIP3    H152670   4.140   0.734  13.173  2.5870 -0.1789 -0.6980
10393TIP3    H252671   4.121   0.726  13.023  0.8110  0.2726 -0.5151
10394TIP3   OH252672   0.805   6.090   2.471 -0.2542  0.0511  0.2927
10394TIP3    H152673   0.770   6.039   2.544  2.2865 -0.4129  1.2759
10394TIP3    H252674   0.896   6.108   2.495  0.4131  0.6643 -2.3531
10395TIP3   OH252675   5.000   2.138   3.312 -0.3356 -0.6030 -0.6220
10395TIP3    H152676   4.975   2.069   3.251 -0.5274  0.3108 -1.6079
10395TIP3    H252677   4.934   2.206   3.299  0.3262  0.1194 -0.2723
10396TIP3   OH252678   5.176   6.174   5.652 -0.5661 -0.1548  0.2885
10396TIP3    H152679   5.200   6.231   5.726 -0.6729  0.9914 -0.5436
10396TIP3    H252680   5.187   6.085   5.687 -1.8384  0.3313  2.0844
10397TIP3   OH252681   0.767   1.542   5.503 -0.0143  0.4880  0.2551
10397TIP3    H152682   0.835   1.543   5.436 -0.4495  0.4282 -0.1861
10397TIP3    H252683   0.810   1.579   5.581  1.1144 -1.3587  0.5687
10398TIP3   OH252684   6.206   2.325  13.043 -0.0202  0.0759  0.6111
10398TIP3    H152685   6.117   2.356  13.063  0.2069 -0.1204  2.0886
10398TIP3    H252686   6.259   2.404  13.045 -0.0419  0.0929  0.5140
10399TIP3   OH252687   2.281   0.700   4.025 -0.3560 -0.1725 -0.2765
10399TIP3    H152688   2.372   0.728   4.013 -0.9356  0.6655 -3.7660
10399TIP3    H252689   2.233   0.782   4.040 -0.8678 -0.2621 -1.3321
10400TIP3   OH252690   4.293   4.846   3.034 -0.0859 -0.2799 -0.6010
10400TIP3    H152691   4.357   4.904   2.993  1.4506 -0.9839  0.6781
10400TIP3    H252692   4.331   4.825   3.119 -1.9426 -0.9155  0.1337
10401TIP3   OH252693   1.682   5.918  13.421 -0.3966  0.0638  0.0841
10401TIP3    H152694   1.658   5.948  13.509 -0.1907 -0.0130  0.1677
10401TIP3    H252695   1.601   5.881  13.385 -0.3501 -0.4149  0.4545
10402TIP3   OH252696   0.147   0.732  14.627 -0.4345  0.0402 -0.4097
10402TIP3    H152697   0.053   0.716  14.641 -0.8460  1.1252 -1.7111
10402TIP3    H252698   0.174   0.781  14.705 -1.5045  1.7050 -1.0365
10403TIP3   OH252699   3.211   3.952   1.497  0.0255  0.2819  0.3227
10403TIP3    H152700   3.131   3.903   1.515  0.2749  0.2944  1.6138
10403TIP3    H252701   3.180   4.035   1.460 -0.3478 -1.1863 -2.9274
10404TIP3   OH252702   1.229   5.022   0.387  0.2706  0.0629 -0.0476
10404TIP3    H152703   1.266   5.109   0.379 -0.5960  0.4768  0.3069
10404TIP3    H252704   1.286   4.977   0.450  1.0119  0.1922 -0.6127
10405TIP3   OH252705   0.165   5.468  12.390 -0.3963  0.2172 -0.6266
10405TIP3    H152706   0.094   5.447  12.451  0.3946 -0.2513  0.1531
10405TIP3    H252707   0.225   5.394  12.397  1.0191  1.3704  0.0033
10406TIP3   OH252708   1.489   2.397   4.650  0.0912 -0.3281  0.0941
10406TIP3    H152709   1.397   2.412   4.670  0.4025 -0.8388  2.1341
10406TIP3    H252710   1.534   2.407   4.734  1.8005 -0.8915 -0.6988
10407TIP3   OH252711   5.908   1.576  12.333  0.1796  0.1729 -0.2568
10407TIP3    H152712   5.822   1.562  12.293 -0.7104  2.3386  0.7590
10407TIP3    H252713   5.914   1.508  12.401 -0.6913 -0.0601 -0.3983
10408TIP3   OH252714   0.143   2.403   2.647  0.0713  0.2042  0.7546
10408TIP3    H152715   0.083   2.474   2.669 -0.4626 -0.1307  0.4079
10408TIP3    H252716   0.209   2.444   2.592 -1.7159 -0.0410 -1.7524
10409TIP3   OH252717   5.115   4.850   2.620  0.1145  0.0971  0.2035
10409TIP3    H152718   5.143   4.810   2.702  0.4479  0.2237  0.1528
10409TIP3    H252719   5.054   4.918   2.646 -0.8336 -0.7474  0.2672
10410TIP3   OH252720   2.090   4.724   3.955  0.0683 -0.2580  0.4423
10410TIP3    H152721   2.158   4.754   4.016  0.1081  1.6349 -0.4566
10410TIP3    H252722   2.010   4.765   3.987 -0.3057 -0.9232  0.3841
10411TIP3   OH252723   2.571   1.766  10.208  0.0200 -0.6835  0.0476
10411TIP3    H152724   2.664   1.778  10.228  0.3855 -0.3525 -1.7311
10411TIP3    H252725   2.535   1.855  10.207 -0.0756 -0.7260 -0.3544
10412TIP3   OH252726   3.618   2.024   1.448  0.4111  0.0694  0.3178
10412TIP3    H152727   3.680   2.096   1.439  0.1946  0.0828 -1.4797
10412TIP3    H252728   3.640   1.983   1.532  0.5704  2.1524  1.3494
10413TIP3   OH252729   2.128   1.063  11.614  0.5427 -0.3005  0.2939
10413TIP3    H152730   2.121   1.005  11.538 -1.1762 -0.5413  0.5907
10413TIP3    H252731   2.168   1.143  11.579  1.3045 -0.9922 -0.4931
10414TIP3   OH252732   5.204   1.392  14.884  0.2951  0.5421  0.2183
10414TIP3    H152733   5.222   1.455  14.815 -0.3899  0.6540  0.1373
10414TIP3    H252734   5.278   1.400  14.944  0.7385  0.6654 -0.3365
10415TIP3   OH252735   4.059   0.325   2.867  0.0126  0.0191  0.2004
10415TIP3    H152736   4.030   0.413   2.894  0.0475  0.4773 -1.1856
10415TIP3    H252737   4.131   0.342   2.807  0.4143 -0.9961  0.3872
10416TIP3   OH252738   3.635   0.268  15.161 -0.1437 -0.1163  0.8304
10416TIP3    H152739   3.718   0.254  15.205 -0.0416  0.5463  0.8658
10416TIP3    H252740   3.569   0.243  15.225  0.0246 -0.5799  0.8260
10417TIP3   OH252741   4.222   1.088  11.584 -0.0906  0.0438  0.0782
10417TIP3    H152742   4.305   1.118  11.621 -0.8834  0.3149  1.7700
10417TIP3    H252743   4.177   1.045  11.657 -0.8796 -1.3127 -1.1509
10418TIP3   OH252744   3.546   3.213  10.896  0.2569  0.0164 -0.8394
10418TIP3    H152745   3.513   3.284  10.951 -0.8835 -0.9867 -0.1895
10418TIP3    H252746   3.483   3.206  10.825  1.2255  0.6863 -1.7928
10419TIP3   OH252747   4.723   4.274   4.761 -0.0735 -0.2922 -0.7136
10419TIP3    H152748   4.766   4.193   4.731  0.5312 -0.2530  0.0118
10419TIP3    H252749   4.788   4.342   4.745  0.0108 -0.1798  0.0836
10420TIP3   OH252750   0.439   0.982   4.552 -0.0377 -0.1660 -0.0496
10420TIP3    H152751   0.377   1.054   4.544 -0.0937 -0.0986  0.9145
10420TIP3    H252752   0.407   0.916   4.490 -0.5102  0.2596 -0.2663
10421TIP3   OH252753   3.231   0.333  16.159  0.4094  0.2629 -0.0594
10421TIP3    H152754   3.164   0.368  16.100 -0.4084  0.6277  1.0445
10421TIP3    H252755   3.311   0.332  16.107 -0.2442  0.7373 -1.1117
10422TIP3   OH252756   3.449   0.996  17.061 -0.2337  0.5073 -0.5025
10422TIP3    H152757   3.485   1.084  17.073  0.2632  0.3978 -1.1109
10422TIP3    H252758   3.455   0.955  17.147  0.0103  0.8920 -0.3317
10423TIP3   OH252759   3.143   0.866  13.199 -0.8202  0.6131  0.2100
10423TIP3    H152760   3.218   0.919  13.173 -0.5733  0.1312 -0.0493
10423TIP3    H252761   3.089   0.861  13.121 -1.2700  1.1924  0.4702
10424TIP3   OH252762   4.591   3.286   3.861  0.3171  0.0378 -0.7460
10424TIP3    H152763   4.553   3.203   3.892  2.9887  0.1100  3.5774
10424TIP3    H252764   4.658   3.259   3.797  2.0673 -1.4853  1.5391
10425TIP3   OH252765   3.662   3.266   4.235  0.5251 -0.2836 -0.2003
10425TIP3    H152766   3.622   3.188   4.272  1.1816 -1.6403 -2.1489
10425TIP3    H252767   3.608   3.339   4.266 -0.2654 -1.5164  1.4563
10426TIP3   OH252768   1.014   3.552  14.301 -0.0992  0.1339 -0.2472
10426TIP3    H152769   0.935   3.583  14.256 -1.3757 -1.1179  1.0025
10426TIP3    H252770   1.084   3.564  14.237 -1.1771  1.8736 -1.1779
10427TIP3   OH252771   1.811   0.725  11.199 -0.4768  0.0628 -0.0707
10427TIP3    H152772   1.791   0.745  11.108 -0.9347  0.6388  0.1458
10427TIP3    H252773   1.729   0.692  11.235 -0.1700 -0.6131  0.0113
10428TIP3   OH252774   5.455   0.419  12.679 -0.0063 -0.4017  0.3584
10428TIP3    H152775   5.389   0.433  12.747  0.4434 -0.9706  0.9243
10428TIP3    H252776   5.490   0.506  12.661 -1.8261  0.1235 -0.9172
10429TIP3   OH252777   4.929   5.793   2.896 -0.1552 -0.7253  0.0065
10429TIP3    H152778   4.903   5.859   2.960 -1.2510 -0.2824 -0.8585
10429TIP3    H252779   4.922   5.837   2.811  1.9177 -1.1045 -0.4120
10430TIP3   OH252780   1.029   4.234  11.846 -0.1964  0.3671 -0.3217
10430TIP3    H152781   0.957   4.255  11.788 -0.7697  2.7681  1.1093
10430TIP3    H252782   1.106   4.271  11.803 -0.4427  1.1315 -0.1283
10431TIP3   OH252783   1.909   0.007   4.433 -0.0620 -0.5482 -0.1978
10431TIP3    H152784   1.994   0.023   4.392  1.6355 -3.2554  1.9201
10431TIP3    H252785   1.871  -0.066   4.384  0.9356 -2.2733  1.4815
10432TIP3   OH252786   2.529   2.382   2.022  0.7307 -0.2678 -0.3240
10432TIP3    H152787   2.529   2.472   2.056 -4.6290 -0.4842  1.1427
10432TIP3    H252788   2.534   2.393   1.927  1.8145  1.3903 -0.1210
10433TIP3   OH252789   5.799   0.051  11.383  1.2589 -0.3842  0.4242
10433TIP3    H152790   5.861  -0.018  11.405 -0.3772 -2.1706 -0.3105
10433TIP3    H252791   5.715   0.007  11.374 -0.1616  1.9418  1.3496
10434TIP3   OH252792   4.699   3.728  13.710  0.2586 -0.1513  0.3472
10434TIP3    H152793   4.639   3.668  13.753  1.3853 -1.0624  0.7058
10434TIP3    H252794   4.655   3.752  13.628  1.0580 -4.0727 -1.4750
10435TIP3   OH252795   1.787   2.395   1.100  0.4211  0.6082  0.2269
10435TIP3    H152796   1.865   2.447   1.081  0.6754  0.5803  1.1534
10435TIP3    H252797   1.805   2.310   1.060  0.8670  0.6063  0.4171
10436TIP3   OH252798   3.117   4.559  16.725 -0.3560  0.1781  0.2202
10436TIP3    H152799   3.193   4.560  16.667  0.0673 -0.9942  0.7269
10436TIP3    H252800   3.144   4.612  16.800 -0.7591  1.3602 -0.4341
10437TIP3   OH252801   3.456   6.583  15.849  0.0056 -0.4426  0.1113
10437TIP3    H152802   3.493   6.649  15.907  2.5898 -0.0901 -1.7600
10437TIP3    H252803   3.518   6.510  15.853 -0.2183 -0.7601 -1.4887
10438TIP3   OH252804   0.605   2.095   4.657 -0.2593 -0.5151 -0.1683
10438TIP3    H152805   0.605   2.110   4.751 -0.2461  0.3897 -0.3103
10438TIP3    H252806   0.697   2.083   4.634 -0.1368  0.5354 -0.2597
10439TIP3   OH252807   4.548   2.761   4.230 -0.5888  0.2176  0.0880
10439TIP3    H152808   4.613   2.819   4.191  0.6974 -0.2416  1.4957
10439TIP3    H252809   4.499   2.818   4.290 -0.2971  0.1729  0.3699
10440TIP3   OH252810   4.638   0.115   4.973  1.1057  0.1376  0.0861
10440TIP3    H152811   4.680   0.050   4.917 -0.1287  0.1927 -0.9322
10440TIP3    H252812   4.581   0.165   4.915  0.4603  0.7820  1.2243
10441TIP3   OH252813   4.122   0.971  11.840 -0.7660 -0.3136  0.5227
10441TIP3    H152814   4.130   1.050  11.894 -1.1876  0.1003 -0.0146
10441TIP3    H252815   4.035   0.937  11.860 -0.9316 -0.1461  0.0868
10442TIP3   OH252816   5.418   6.126   4.801 -0.5058  0.0304  0.6420
10442TIP3    H152817   5.411   6.176   4.720 -1.0111 -1.1105 -0.0580
10442TIP3    H252818   5.506   6.143   4.833  0.7862 -1.6458 -1.6685
10443TIP3   OH252819   0.355   5.738   4.836 -0.0245  0.1551  0.0152
10443TIP3    H152820   0.373   5.794   4.912  1.1816  1.3589 -1.1021
10443TIP3    H252821   0.282   5.781   4.791 -0.5078 -0.3630  0.2986
10444TIP3   OH252822   5.653   2.733   0.067  0.1128  0.0399  0.4530
10444TIP3    H152823   5.734   2.785   0.065 -0.5507  1.1096 -0.2859
10444TIP3    H252824   5.647   2.694  -0.020 -0.5016  0.5364  0.2613
10445TIP3   OH252825   3.942   3.993  16.564 -0.4324  0.7016  0.0264
10445TIP3    H152826   4.020   3.963  16.610 -0.1274  1.0892 -0.2296
10445TIP3    H252827   3.902   4.058  16.622 -1.3784 -0.5375  0.8153
10446TIP3   OH252828   6.449   2.767   5.539 -0.0248  0.3063  0.1229
10446TIP3    H152829   6.467   2.685   5.584  1.7812 -0.0303 -1.1214
10446TIP3    H252830   6.385   2.744   5.471 -0.0194  0.0686  0.1989
10447TIP3   OH252831   2.787   5.681  13.527  0.0107 -0.1790  0.3411
10447TIP3    H152832   2.810   5.611  13.466 -1.0210 -0.1599 -0.0901
10447TIP3    H252833   2.692   5.678  13.533  0.0687  0.0236  1.7198
10448TIP3   OH252834   6.201   1.077  10.816  0.2481 -0.4076 -0.2094
10448TIP3    H152835   6.225   1.155  10.866 -0.9143 -0.2360  0.1157
10448TIP3    H252836   6.185   1.011  10.884  1.0949 -0.9114 -0.4768
10449TIP3   OH252837   4.243   5.425   6.227 -0.5971 -0.2266 -0.2710
10449TIP3    H152838   4.187   5.348   6.218 -2.6234  0.9961  0.9331
10449TIP3    H252839   4.265   5.428   6.320  1.4442 -0.5905 -0.6926
10450TIP3   OH252840   3.608   3.502  13.362 -0.3562  0.0368  0.3352
10450TIP3    H152841   3.543   3.572  13.357  0.1951  0.6579 -5.4304
10450TIP3    H252842   3.690   3.546  13.386 -0.7187  0.7026  0.3644
10451TIP3   OH252843   1.950   0.535   2.591  0.0755  0.0570  0.2150
10451TIP3    H152844   2.025   0.578   2.550 -0.9947  1.1641 -0.6949
10451TIP3    H252845   1.875   0.564   2.539 -1.1727  0.2614  2.0232
10452TIP3   OH252846   3.458   3.787  13.913  0.7009 -0.0650  0.2865
10452TIP3    H152847   3.514   3.806  13.837  1.2652  0.7164  0.8694
10452TIP3    H252848   3.435   3.873  13.948 -1.4415 -0.3520 -0.3162
10453TIP3   OH252849   4.803   5.299   5.012 -0.1843 -0.6510  0.3114
10453TIP3    H152850   4.737   5.355   5.053  0.4154  1.0553 -0.9187
10453TIP3    H252851   4.762   5.213   5.007 -1.3133 -0.2518  1.8958
10454TIP3   OH252852   0.856   5.469  14.198 -0.0008 -0.3926  0.1636
10454TIP3    H152853   0.795   5.494  14.267 -2.6459 -0.1559 -2.0519
10454TIP3    H252854   0.831   5.379  14.175  1.4200 -0.7908  0.0891
10455TIP3   OH252855   3.865   4.397   5.245 -0.2006  0.2867  0.4574
10455TIP3    H152856   3.890   4.344   5.169  1.6668  0.3937  0.9430
10455TIP3    H252857   3.923   4.367   5.315 -2.1471 -0.0715  1.9724
10456TIP3   OH252858   1.974   0.049   4.703 -0.4508  1.0472 -0.0752
10456TIP3    H152859   2.037   0.108   4.745  0.5808 -1.2213  1.8236
10456TIP3    H252860   2.020   0.016   4.626 -0.3934  1.4712 -0.2264
10457TIP3   OH252861   1.910   2.735  17.103  0.3965  0.3268 -0.1816
10457TIP3    H152862   1.824   2.713  17.067  1.2478  0.7565 -2.6320
10457TIP3    H252863   1.972   2.718  17.032  2.2398  1.0292  1.1665
10458TIP3   OH252864   1.266   0.052   3.973  0.2618  0.1530 -0.5383
10458TIP3    H152865   1.230   0.045   4.061  1.5261 -2.2813 -0.1277
10458TIP3    H252866   1.224  -0.020   3.925  1.9427 -0.5549 -0.9977
10459TIP3   OH252867   5.434   1.273   4.982  0.3974  0.2258 -0.5773
10459TIP3    H152868   5.501   1.276   5.050 -0.4250  0.6798  0.2292
10459TIP3    H252869   5.359   1.230   5.024  0.1481 -0.1988 -1.4379
10460TIP3   OH252870   3.733   0.425  12.700 -0.0941  0.4092  0.1996
10460TIP3    H152871   3.670   0.353  12.706 -0.4886  0.6670 -0.5939
10460TIP3    H252872   3.814   0.389  12.735 -0.4457 -0.2263  0.3843
10461TIP3   OH252873   5.265   5.275  13.045  0.7215 -0.2803  0.0037
10461TIP3    H152874   5.331   5.283  12.977 -0.3533 -1.3317 -1.2214
10461TIP3    H252875   5.228   5.362  13.055  1.1388 -0.0471 -0.4929
10462TIP3   OH252876   6.278   3.432  15.208 -0.3548 -0.2870  0.3851
10462TIP3    H152877   6.314   3.375  15.276  0.6516  0.1780  0.2524
10462TIP3    H252878   6.306   3.392  15.125 -0.0713  0.1188  0.2819
10463TIP3   OH252879   2.337   5.659  16.213  0.2442  0.4577  0.2772
10463TIP3    H152880   2.321   5.580  16.265 -0.3979  1.0158  0.9553
10463TIP3    H252881   2.314   5.634  16.124  0.0649 -0.1275  0.4785
10464TIP3   OH252882   6.351   1.434   4.552  0.5612 -0.5310 -0.0133
10464TIP3    H152883   6.281   1.479   4.505  2.9813 -0.7331 -4.3359
10464TIP3    H252884   6.398   1.503   4.598 -0.6617  0.0343  0.4275
10465TIP3   OH252885   2.989   5.351   3.053 -0.0861  0.9836  0.4083
10465TIP3    H152886   3.024   5.311   2.974 -0.9722  0.5405  0.2309
10465TIP3    H252887   2.904   5.386   3.027 -0.9791 -0.3188  1.4707
10466TIP3   OH252888   3.180   5.433   3.553  0.1854 -0.3978 -0.0820
10466TIP3    H152889   3.104   5.408   3.501  0.3739  0.0781 -0.5874
10466TIP3    H252890   3.155   5.411   3.643 -0.8004  0.3591 -0.1591
10467TIP3   OH252891   1.410   2.275   0.997 -0.2716 -0.3807  0.4813
10467TIP3    H152892   1.446   2.354   0.957  1.4567 -0.8908  0.9306
10467TIP3    H252893   1.316   2.289   0.999 -0.0562  1.3259 -0.1531
10468TIP3   OH252894   6.294   3.928  14.286 -0.0649 -0.3608 -0.1506
10468TIP3    H152895   6.202   3.904  14.273 -0.7502  1.9311  0.0664
10468TIP3    H252896   6.342   3.873  14.224 -1.6416 -1.0524 -0.8263
10469TIP3   OH252897   4.029   4.920  11.044  0.1960  0.0837  0.2234
10469TIP3    H152898   4.040   4.970  10.963 -0.1564  1.4835  1.0066
10469TIP3    H252899   4.114   4.877  11.057 -0.0465 -0.9515 -1.3753
10470TIP3   OH252900   0.750   2.280  11.432 -0.1135 -0.1724 -0.1843
10470TIP3    H152901   0.684   2.258  11.366 -0.1994  0.0358 -0.1700
10470TIP3    H252902   0.742   2.374  11.443 -0.3963 -0.2690  0.4456
10471TIP3   OH252903   0.762   3.119  15.839 -0.0289 -0.0444 -0.5236
10471TIP3    H152904   0.709   3.195  15.861 -0.1918 -0.3485  0.1524
10471TIP3    H252905   0.852   3.145  15.858 -0.1742 -0.3331  0.6275
10472TIP3   OH252906   6.347   3.114   4.794  0.5995  0.3819  0.1270
10472TIP3    H152907   6.261   3.100   4.754  0.3093 -0.5720  1.0490
10472TIP3    H252908   6.339   3.200   4.836  0.3754  0.6613 -0.4695
10473TIP3   OH252909   2.406   4.404   5.650 -0.2999 -0.2685 -0.4147
10473TIP3    H152910   2.358   4.486   5.664 -0.0737  0.3233 -2.6763
10473TIP3    H252911   2.495   4.431   5.631 -0.1498 -1.0647 -0.8759
10474TIP3   OH252912   3.892   2.456  15.384 -0.4500 -1.2607  0.1437
10474TIP3    H152913   3.922   2.520  15.320  0.5473 -3.2861 -1.5325
10474TIP3    H252914   3.797   2.468  15.388 -0.5083 -0.9234 -1.5542
10475TIP3   OH252915   6.027   5.943  11.790  0.0952 -0.1684 -0.1873
10475TIP3    H152916   6.061   6.032  11.799 -0.8830  0.2235 -0.1487
10475TIP3    H252917   6.008   5.933  11.697 -3.0144  0.9651  0.2040
10476TIP3   OH252918   2.123   4.248   5.036  0.2514 -0.5008  0.8751
10476TIP3    H152919   2.049   4.188   5.039 -0.3413  0.0537 -1.3179
10476TIP3    H252920   2.152   4.248   4.945  2.5624 -0.2003  1.5368
10477TIP3   OH252921   1.826   0.790   3.503 -0.1245  0.0111 -0.1893
10477TIP3    H152922   1.921   0.793   3.505 -0.1316  1.2734 -1.1119
10477TIP3    H252923   1.800   0.866   3.452 -1.6290 -0.4035 -0.0894
10478TIP3   OH252924   5.590   4.165  17.016  0.2635 -0.1166 -0.0109
10478TIP3    H152925   5.587   4.107  17.093  2.5470 -0.0286  0.2340
10478TIP3    H252926   5.676   4.207  17.022 -0.4971  1.7483 -1.3245
10479TIP3   OH252927   1.230   4.200   4.493 -0.1449 -0.4600 -0.1978
10479TIP3    H152928   1.225   4.111   4.529  0.1192 -0.9349 -1.3094
10479TIP3    H252929   1.300   4.242   4.544  0.5302 -1.2621 -0.4467
10480TIP3   OH252930   6.782   4.477  13.847 -0.4125 -0.0379 -0.2017
10480TIP3    H152931   6.769   4.501  13.939 -0.3909 -0.9754  0.0484
10480TIP3    H252932   6.874   4.497  13.830 -1.0363  2.8106 -0.8490
10481TIP3   OH252933   5.279   4.020  13.009 -0.1122 -0.1013  1.0983
10481TIP3    H152934   5.279   3.932  12.970 -0.1386  0.2472  0.2861
10481TIP3    H252935   5.279   4.004  13.103 -0.0387 -0.9749  0.9645
10482TIP3   OH252936   5.287   0.942  14.739 -0.0670 -0.0264 -0.3416
10482TIP3    H152937   5.245   1.022  14.707 -2.7429 -0.0494  2.6119
10482TIP3    H252938   5.214   0.884  14.760  1.6723 -1.8465  0.9872
10483TIP3   OH252939   2.145   5.220  15.140 -0.4561  0.2315  0.0113
10483TIP3    H152940   2.232   5.261  15.141 -0.7227  0.8218 -0.0859
10483TIP3    H252941   2.086   5.292  15.115 -0.9463 -0.2092 -0.1103
10484TIP3   OH252942   5.565   2.924  12.193  0.1977  0.5439 -0.3218
10484TIP3    H152943   5.628   2.968  12.250  0.9750  0.8571 -1.3820
10484TIP3    H252944   5.523   2.994  12.144 -0.9802  0.3326  0.3440
10485TIP3   OH252945   5.531   5.846  13.639 -0.4353 -0.2492  0.2665
10485TIP3    H152946   5.520   5.931  13.682  0.6793  0.0564 -0.0238
10485TIP3    H252947   5.523   5.866  13.546  2.8100  0.1021 -0.0214
10486TIP3   OH252948   6.552   5.824   0.169  0.0014  0.2236  0.0488
10486TIP3    H152949   6.550   5.879   0.248 -1.1226  1.2569 -0.6501
10486TIP3    H252950   6.564   5.887   0.097  0.9300 -0.6950 -0.6179
10487TIP3   OH252951   0.796   2.066   1.825 -0.4901  0.5447  0.4841
10487TIP3    H152952   0.866   2.046   1.888 -0.1377 -2.3864 -0.6590
10487TIP3    H252953   0.835   2.129   1.765  0.5571  0.3410  0.9261
10488TIP3   OH252954   3.000   1.811   0.475  0.0170 -0.1303  0.0279
10488TIP3    H152955   3.040   1.793   0.560  1.1776 -0.6189 -0.6063
10488TIP3    H252956   3.030   1.899   0.453 -0.4526  0.0792  0.2041
10489TIP3   OH252957   5.816   6.340  15.124  0.2537 -0.9770  0.2720
10489TIP3    H152958   5.742   6.399  15.111 -0.1533 -1.5376  0.0140
10489TIP3    H252959   5.877   6.361  15.053  1.2886  0.8817  1.6268
10490TIP3   OH252960   0.187   0.684  16.644 -0.1476  0.2798  0.4144
10490TIP3    H152961   0.235   0.668  16.563 -1.3825 -0.8379 -0.1317
10490TIP3    H252962   0.146   0.770  16.631  0.9141  0.8254  0.5212
10491TIP3   OH252963   1.124   1.500  12.932  0.0882  0.4433  0.2399
10491TIP3    H152964   1.124   1.502  12.836 -2.2824  2.0623  0.1755
10491TIP3    H252965   1.150   1.589  12.958  1.0364 -0.0741  1.1168
10492TIP3   OH252966   1.814   3.675   6.123  0.2293  0.3461 -0.0774
10492TIP3    H152967   1.740   3.718   6.166 -0.3510 -0.9178  0.2331
10492TIP3    H252968   1.844   3.610   6.186  1.0138  0.2078 -0.5792
10493TIP3   OH252969   3.868   1.163   1.630 -0.5660  0.6122  0.0613
10493TIP3    H152970   3.850   1.178   1.537  0.4782  1.3192 -0.0444
10493TIP3    H252971   3.823   1.081   1.650  0.0726 -0.1160 -1.3534
10494TIP3   OH252972   5.021   6.203   4.046  0.3227  0.1048  0.2324
10494TIP3    H152973   4.971   6.285   4.042 -0.1518 -0.0741  1.8505
10494TIP3    H252974   5.109   6.231   4.071  0.8381  0.3249 -1.6705
10495TIP3   OH252975   3.519   5.580  10.753  0.0288  0.0698  0.1305
10495TIP3    H152976   3.567   5.521  10.695  2.1147  2.1848 -0.4700
10495TIP3    H252977   3.444   5.609  10.700  1.2402  1.0430 -1.1302
10496TIP3   OH252978   2.518   1.601  13.036  0.2096  0.9570 -0.0099
10496TIP3    H152979   2.429   1.565  13.035 -0.4138  2.3713  0.9872
10496TIP3    H252980   2.575   1.525  13.031 -1.0586 -0.0304  0.0943
10497TIP3   OH252981   2.976   0.019  14.939 -0.0271 -0.9028 -0.0504
10497TIP3    H152982   3.045   0.082  14.958 -1.7801  1.5015 -1.1318
10497TIP3    H252983   2.941  -0.005  15.024 -1.5331  2.3205  0.3763
10498TIP3   OH252984   1.603   0.625  13.274  0.2836  0.5795  0.2101
10498TIP3    H152985   1.565   0.545  13.237 -0.7087  0.6331  1.0574
10498TIP3    H252986   1.582   0.693  13.211 -0.8677  0.5629  0.5485
10499TIP3   OH252987   1.176   6.604  11.931 -0.3647 -0.0405 -0.4895
10499TIP3    H152988   1.149   6.683  11.978 -0.7418 -0.4573  0.0142
10499TIP3    H252989   1.107   6.591  11.866  0.0843  0.4570 -1.0814
10500TIP3   OH252990   6.669   2.418  16.927 -0.1880  0.0782 -0.2809
10500TIP3    H152991   6.754   2.436  16.887  0.6787  0.5591  1.6482
10500TIP3    H252992   6.690   2.363  17.002 -1.8247 -1.3434 -0.8147
10501TIP3   OH252993   6.718   4.500  12.886 -0.2555 -0.3474 -0.0651
10501TIP3    H152994   6.799   4.453  12.869 -0.7322 -1.0157 -0.5333
10501TIP3    H252995   6.704   4.554  12.809 -0.0763  0.0361  0.1685
10502TIP3   OH252996   3.798   5.341   2.721 -0.2391  0.2983 -0.0107
10502TIP3    H152997   3.823   5.338   2.629 -1.6954  1.9015 -0.5076
10502TIP3    H252998   3.779   5.433   2.738  0.0981  0.0529  1.9407
10503TIP3   OH252999   3.246   1.932  11.627 -0.2003 -0.2812 -0.3523
10503TIP3    H153000   3.180   1.915  11.695  1.1313 -1.3469  0.7356
10503TIP3    H253001   3.263   1.845  11.589  1.1439 -0.1598 -0.0592
10504TIP3   OH253002   3.218   2.814  17.078  0.1211 -0.3481 -0.1521
10504TIP3    H153003   3.194   2.725  17.104  0.1239 -0.4918 -0.6234
10504TIP3    H253004   3.143   2.868  17.104 -0.5614 -0.7319 -1.2440
10505TIP3   OH253005   3.514   1.449   1.025  0.0916 -0.2214  0.0507
10505TIP3    H153006   3.467   1.529   1.046 -0.7853  0.0748 -2.5643
10505TIP3    H253007   3.476   1.383   1.083 -0.3467  0.9057  1.0931
10506TIP3   OH253008   3.196   5.915  10.963  0.0597  0.3469 -0.2814
10506TIP3    H153009   3.265   5.860  11.000 -0.0747 -0.1491 -0.7600
10506TIP3    H253010   3.148   5.857  10.905 -2.2544  0.0161  1.7949
10507TIP3   OH253011   4.082   0.531  14.489  0.5548  0.0493  0.3675
10507TIP3    H153012   4.016   0.501  14.426  2.1712 -3.3557  0.0416
10507TIP3    H253013   4.153   0.566  14.436  0.1746  1.2079  0.5883
10508TIP3   OH253014   5.815   5.829  13.699  0.4175 -0.4757  0.4671
10508TIP3    H153015   5.720   5.833  13.683  0.4452  0.9731  0.5262
10508TIP3    H253016   5.850   5.788  13.619 -0.2457 -1.0693  0.4622
10509TIP3   OH253017   5.355   5.115   1.194 -1.0568 -0.5415 -0.3011
10509TIP3    H153018   5.398   5.198   1.217 -0.1836 -0.7220 -1.2391
10509TIP3    H253019   5.275   5.142   1.149 -0.8464 -0.2065 -0.4807
10510TIP3   OH253020   6.676   4.071  15.083 -0.2056 -0.2175 -0.1351
10510TIP3    H153021   6.709   3.993  15.039  1.3697 -0.1062  0.7723
10510TIP3    H253022   6.589   4.085  15.045  0.4101 -1.0577 -1.9660
10511TIP3   OH253023   1.799   0.331   2.920  0.1485  0.0553  0.2007
10511TIP3    H153024   1.866   0.363   2.981  0.6904 -0.7591  0.0484
10511TIP3    H253025   1.726   0.306   2.977  0.0457  0.7571  0.3851
10512TIP3   OH253026   2.238   1.272  13.679 -0.6269  0.1191 -0.1708
10512TIP3    H153027   2.264   1.318  13.759  1.2143 -3.1813  1.3419
10512TIP3    H253028   2.181   1.201  13.710 -1.8127  0.1491 -2.1315
10513TIP3   OH253029   3.548   4.335   3.074  0.6222 -0.1834 -0.1234
10513TIP3    H153030   3.643   4.329   3.077  0.9420  2.8237 -0.7849
10513TIP3    H253031   3.529   4.429   3.082 -2.4182 -0.8267  2.1922
10514TIP3   OH253032   2.930   0.894  16.101  0.0718  0.3740  0.2494
10514TIP3    H153033   2.896   0.886  16.012 -0.2853  0.2940  0.3958
10514TIP3    H253034   2.879   0.965  16.140  0.6427  0.8269  0.1953
10515TIP3   OH253035   2.251   4.008   2.340  0.1209 -0.4089 -0.2527
10515TIP3    H153036   2.228   3.925   2.298 -0.1154 -1.0010  1.0116
10515TIP3    H253037   2.317   3.985   2.404  0.2355  0.4271 -0.0573
10516TIP3   OH253038   1.896   6.437  14.481 -0.0320 -0.6965 -0.1473
10516TIP3    H153039   1.842   6.387  14.543 -0.2259  0.3626  0.5693
10516TIP3    H253040   1.979   6.389  14.477 -0.4548 -1.4572 -0.0288
10517TIP3   OH253041   6.635   0.445  13.040  0.3699 -0.0799 -0.1575
10517TIP3    H153042   6.667   0.357  13.018  0.6750  0.5107 -2.3712
10517TIP3    H253043   6.624   0.488  12.955 -0.2539  1.8709  0.8509
10518TIP3   OH253044   3.187   6.313  10.622  0.1471 -0.1050  0.2994
10518TIP3    H153045   3.142   6.234  10.593  1.2706 -0.9466  0.8037
10518TIP3    H253046   3.138   6.385  10.581 -1.0968 -1.0291  0.1161
10519TIP3   OH253047   0.386   3.982   1.684  0.1691 -0.2095 -0.1438
10519TIP3    H153048   0.300   4.025   1.678  0.8433  1.4099  1.0689
10519TIP3    H253049   0.437   4.020   1.612  1.0314  1.8302  1.4158
10520TIP3   OH253050   6.469   5.287  12.449  0.4746  0.2382  0.0882
10520TIP3    H153051   6.417   5.339  12.512 -1.6985 -0.7936 -0.7412
10520TIP3    H253052   6.509   5.218  12.502  0.6670  0.8140  0.7018
10521TIP3   OH253053   2.982   5.632   3.737  0.0746  0.4402  0.1784
10521TIP3    H153054   2.937   5.655   3.656  0.5528 -0.1444 -0.2586
10521TIP3    H253055   3.046   5.702   3.751  1.2325 -0.3471 -0.9219
10522TIP3   OH253056   3.754   0.304  15.518 -0.0189  0.3208  0.0783
10522TIP3    H153057   3.725   0.213  15.521 -0.9006  0.5843 -0.1020
10522TIP3    H253058   3.723   0.341  15.601  0.9879  0.2754  0.4872
10523TIP3   OH253059   0.623   4.850  14.740 -0.0329 -0.2754  0.0021
10523TIP3    H153060   0.553   4.913  14.757 -1.3748 -1.9577  1.0212
10523TIP3    H253061   0.669   4.842  14.824  0.4413 -0.2971 -0.2538
10524TIP3   OH253062   0.019   5.690  16.935 -0.3400 -0.4378  0.2636
10524TIP3    H153063  -0.066   5.646  16.943  0.3039 -1.8512 -0.4448
10524TIP3    H253064   0.079   5.622  16.906  0.7678  0.8458 -0.5744
10525TIP3   OH253065   3.022   6.426  14.965 -0.1867 -0.0564 -0.0125
10525TIP3    H153066   3.072   6.347  14.945  0.8499  0.3226  1.0219
10525TIP3    H253067   2.961   6.399  15.034  0.9640  0.3137  1.1694
10526TIP3   OH253068   5.797   3.438  14.195 -0.2030  1.1466 -0.3332
10526TIP3    H153069   5.817   3.416  14.286 -0.6040  1.2244 -0.2275
10526TIP3    H253070   5.710   3.476  14.197 -0.6580  0.1889 -0.8788
10527TIP3   OH253071   3.648   0.841   4.532 -0.2337  0.0374  0.0421
10527TIP3    H153072   3.709   0.789   4.480 -0.7164 -1.7365  1.1624
10527TIP3    H253073   3.577   0.862   4.472  0.4795  0.3196 -0.7159
10528TIP3   OH253074   4.549   5.297  14.075 -0.6293 -0.2488  0.1220
10528TIP3    H153075   4.617   5.364  14.080 -0.6286 -0.2511  0.1445
10528TIP3    H253076   4.581   5.235  14.010 -0.4759 -0.4008  0.3411
10529TIP3   OH253077   3.930   5.528   0.135 -0.3787  0.6202  0.2939
10529TIP3    H153078   3.900   5.458   0.193  0.7341  1.2765  1.7427
10529TIP3    H253079   3.857   5.589   0.132 -1.7828 -1.0435 -1.8522
10530TIP3   OH253080   2.055   2.432  14.350  0.0415  0.6098 -0.1412
10530TIP3    H153081   2.039   2.362  14.413 -0.9394  0.1934 -0.8269
10530TIP3    H253082   1.968   2.453  14.315  0.7369 -0.5179 -2.7828
10531TIP3   OH253083   4.513   2.228  15.421 -0.0339 -0.4450 -0.2496
10531TIP3    H153084   4.531   2.320  15.403 -0.4189  0.3910  3.0128
10531TIP3    H253085   4.443   2.230  15.486 -0.3813 -3.0776 -0.4425
10532TIP3   OH253086   0.541   6.739   1.029  0.3295 -0.0408 -0.2346
10532TIP3    H153087   0.625   6.766   0.993  0.0830 -2.0977 -2.6633
10532TIP3    H253088   0.488   6.716   0.952 -2.5818  1.3630  1.1762
10533TIP3   OH253089   3.032   6.592  16.437  0.2999  0.1791 -0.8592
10533TIP3    H153090   2.943   6.557  16.444 -0.4131  1.7245 -1.6844
10533TIP3    H253091   3.063   6.563  16.351 -0.0268  0.9555 -1.2483
10534TIP3   OH253092   3.490   0.535   4.985 -0.2482 -0.1681 -0.6509
10534TIP3    H153093   3.402   0.505   5.010 -0.2461  0.1756 -0.2297
10534TIP3    H253094   3.522   0.581   5.062 -0.1513  0.7056 -1.2101
10535TIP3   OH253095   0.450   0.249  12.971 -0.2003 -0.4503  0.1247
10535TIP3    H153096   0.487   0.162  12.958  1.0010 -0.0151  0.4789
10535TIP3    H253097   0.466   0.268  13.063  1.2065  0.8534 -0.3401
10536TIP3   OH253098   2.028   6.758  11.563 -0.1825  0.0728 -0.0992
10536TIP3    H153099   1.962   6.692  11.585 -0.1818  0.5095  1.2989
10536TIP3    H253100   1.977   6.834  11.533 -0.1631 -0.7692 -2.5120
10537TIP3   OH253101   3.681   1.054  12.822  0.0168  0.4402  0.5346
10537TIP3    H153102   3.616   0.992  12.787 -0.6501  0.0185  2.3902
10537TIP3    H253103   3.761   1.002  12.832  0.1557  0.5150 -0.1413
10538TIP3   OH253104   5.745   0.558   3.983  0.1461 -0.7765 -0.3614
10538TIP3    H153105   5.833   0.521   3.977  0.0765 -0.9781 -0.1311
10538TIP3    H253106   5.691   0.487   4.016 -0.5085 -1.3112 -2.3998
10539TIP3   OH253107   0.337   1.752   1.590  0.5299 -0.1430  0.6069
10539TIP3    H153108   0.382   1.831   1.560 -0.6817  0.1443 -0.5214
10539TIP3    H253109   0.271   1.785   1.651  0.0250 -0.2780  0.1358
10540TIP3   OH253110   4.894   2.270  15.895 -0.0544 -0.3480 -0.5226
10540TIP3    H153111   4.854   2.185  15.877 -1.0851 -0.3221  1.3927
10540TIP3    H253112   4.827   2.318  15.943  1.8810  0.0615  1.9959
10541TIP3   OH253113   0.445   0.265   4.411  0.0386 -0.4361 -0.0152
10541TIP3    H153114   0.431   0.352   4.375 -3.3501 -0.3727  1.0963
10541TIP3    H253115   0.445   0.277   4.506  0.0735 -1.5652  0.1508
10542TIP3   OH253116   3.707   4.159   0.811  0.1212 -0.3786 -0.2273
10542TIP3    H153117   3.775   4.094   0.829 -0.2949 -0.8609 -0.3606
10542TIP3    H253118   3.669   4.178   0.897  1.4499  1.0790  0.0891
10543TIP3   OH253119   4.071   1.876   2.732 -0.0370  0.3495  0.3785
10543TIP3    H153120   4.160   1.851   2.709 -0.1142 -0.1656  0.6323
10543TIP3    H253121   4.015   1.820   2.678 -0.2113  0.9857 -0.1164
10544TIP3   OH253122   3.771   6.343   2.413 -0.0292  0.2121 -0.0192
10544TIP3    H153123   3.685   6.304   2.399  0.9322 -1.1948 -2.7814
10544TIP3    H253124   3.791   6.388   2.331  1.7510  0.7456  0.6645
10545TIP3   OH253125   3.852   5.168   0.770 -0.2724 -0.3073 -0.5917
10545TIP3    H153126   3.783   5.226   0.739  1.0298  1.4670 -0.3099
10545TIP3    H253127   3.856   5.098   0.704 -0.3161  1.1791 -2.2448
10546TIP3   OH253128   6.686   4.952  10.978  0.3024 -0.2637 -0.5579
10546TIP3    H153129   6.773   4.916  10.995  0.1352  0.2719  1.7556
10546TIP3    H253130   6.627   4.900  11.032 -0.3257  1.5200  0.5516
10547TIP3   OH253131   5.049   4.844   0.880 -0.6051 -0.1223  0.5403
10547TIP3    H153132   4.976   4.792   0.913  0.2837 -2.1721 -0.5450
10547TIP3    H253133   5.127   4.800   0.912  0.2127 -0.4207 -1.6717
10548TIP3   OH253134   4.493   3.486  11.607  0.1318 -0.0611  0.0300
10548TIP3    H153135   4.522   3.471  11.517 -0.2609 -1.6371  0.1294
10548TIP3    H253136   4.413   3.433  11.616  0.3024 -0.1347  1.3812
10549TIP3   OH253137   1.983   3.444  12.365  0.2955 -0.2611 -0.1918
10549TIP3    H153138   1.980   3.434  12.270 -0.6128 -0.4441 -0.1553
10549TIP3    H253139   1.926   3.374  12.398 -0.0495  0.3062  0.4400
10550TIP3   OH253140   1.155   2.048  12.096  0.2475 -0.1029  0.5175
10550TIP3    H153141   1.208   2.127  12.086 -1.2753  0.9319  0.2494
10550TIP3    H253142   1.111   2.060  12.181  0.8375 -1.1907  0.9884
10551TIP3   OH253143   5.310   1.702   4.196  0.2130  0.3819  0.0837
10551TIP3    H153144   5.339   1.681   4.285 -0.1340 -1.3911 -0.1863
10551TIP3    H253145   5.215   1.710   4.203  0.3597  2.3823  0.2457
10552TIP3   OH253146   5.939   0.901  13.564  0.0895 -0.4668  0.0296
10552TIP3    H153147   5.981   0.974  13.609 -1.0993  0.7378 -0.7489
10552TIP3    H253148   5.918   0.935  13.477 -1.5994 -1.3288  0.0696
10553TIP3   OH253149   0.127   6.557  16.870 -0.0239  0.0186  0.2704
10553TIP3    H153150   0.073   6.635  16.863  0.3610  0.3960  1.3320
10553TIP3    H253151   0.124   6.534  16.962 -0.3138 -1.3653 -0.0577
10554TIP3   OH253152   6.499   1.212   5.501  0.0607  0.1636 -0.2110
10554TIP3    H153153   6.490   1.121   5.530  0.0151  0.3761  0.4524
10554TIP3    H253154   6.413   1.235   5.468  0.1692 -0.1476 -0.7276
10555TIP3   OH253155   6.212   3.517   0.331 -0.5350  0.1627  0.1359
10555TIP3    H153156   6.251   3.443   0.284 -2.0542 -1.3629  1.1579
10555TIP3    H253157   6.283   3.549   0.388  0.1093 -0.5757 -0.2343
10556TIP3   OH253158   1.362   3.100   3.760  0.4159 -0.0745  1.3562
10556TIP3    H153159   1.430   3.167   3.759 -1.5189  2.1146  3.6583
10556TIP3    H253160   1.365   3.064   3.849 -0.6211 -0.7594  1.1318
10557TIP3   OH253161   4.741   5.195   4.157  0.8216  0.1943 -0.7225
10557TIP3    H153162   4.656   5.151   4.153  0.6757  0.5578 -2.6853
10557TIP3    H253163   4.774   5.190   4.067  1.8660  2.0125 -0.4771
10558TIP3   OH253164   1.966   1.041   0.035 -0.5281  0.0584  0.4336
10558TIP3    H153165   1.965   1.040  -0.061  0.1457  2.1253  0.3644
10558TIP3    H253166   1.947   1.132   0.059  2.1032  0.2805  2.1599
10559TIP3   OH253167   1.994   2.951   3.859  0.0413 -0.6490 -0.2603
10559TIP3    H153168   1.989   2.863   3.820  0.9582 -0.8519  0.0435
10559TIP3    H253169   2.024   3.007   3.789  0.3356 -0.7490 -0.2136
10560TIP3   OH253170   3.788   6.164  11.276 -0.3461 -0.4399 -0.7277
10560TIP3    H153171   3.858   6.137  11.217 -0.7231 -0.9452 -0.9392
10560TIP3    H253172   3.808   6.256  11.294  0.7420 -0.7386 -0.2752
10561TIP3   OH253173   3.552   5.332  16.673 -0.1207 -0.3647 -0.2512
10561TIP3    H153174   3.548   5.425  16.653 -0.2129  0.0255  1.4457
10561TIP3    H253175   3.465   5.310  16.705  0.5277 -0.4633  1.5684
10562TIP3   OH253176   0.739   6.274   2.734  0.5463  1.0778  0.2651
10562TIP3    H153177   0.763   6.326   2.657  1.1650  0.8386  0.2949
10562TIP3    H253178   0.797   6.306   2.803 -1.1062  2.4835  1.1118
10563TIP3   OH253179   5.090   1.394  16.822 -0.2941 -0.0999 -0.1690
10563TIP3    H153180   5.044   1.359  16.898  1.9599  0.1444  1.4110
10563TIP3    H253181   5.022   1.406  16.756 -2.4530  0.2345  1.9865
10564TIP3   OH253182   1.833   1.132  11.676 -0.4393 -0.1920 -0.2374
10564TIP3    H153183   1.928   1.140  11.689 -0.4128 -1.2823  0.3513
10564TIP3    H253184   1.812   1.043  11.705 -1.8008  0.3510  0.5652
10565TIP3   OH253185   5.271   1.743   3.277 -0.4682  0.2207 -0.0969
10565TIP3    H153186   5.344   1.802   3.295  0.3061 -1.2696  2.0026
10565TIP3    H253187   5.298   1.659   3.315 -2.0609 -1.1720 -1.8604
10566TIP3   OH253188   1.382   2.241   5.015  0.5550 -0.2375  0.2936
10566TIP3    H153189   1.395   2.169   5.076 -0.4748 -0.7833 -0.1057
10566TIP3    H253190   1.298   2.222   4.972  1.1755  0.2026 -1.1751
10567TIP3   OH253191   4.169   2.136  12.503  0.1903  0.2915  0.4988
10567TIP3    H153192   4.246   2.150  12.559  0.6166  1.7347 -0.3992
10567TIP3    H253193   4.109   2.084  12.557  1.6792 -0.6461  1.3105
10568TIP3   OH253194   5.464   0.754   6.248  0.3078  0.2873  0.4613
10568TIP3    H153195   5.455   0.768   6.342  2.1536  0.7036  0.6238
10568TIP3    H253196   5.397   0.690   6.226 -1.1610  1.3260  1.7570
10569TIP3   OH253197   2.037   3.758  14.919 -0.3819  0.2800 -0.4405
10569TIP3    H153198   2.094   3.700  14.869 -0.7435  0.4334 -1.0537
10569TIP3    H253199   2.079   3.766  15.005 -0.6806 -1.4164 -0.1120
10570TIP3   OH253200   3.441   0.623   3.551  0.2228  0.3598 -0.2830
10570TIP3    H153201   3.394   0.583   3.623 -0.0472  0.3623 -0.4576
10570TIP3    H253202   3.387   0.698   3.526  0.1189  0.1361 -0.7390
10571TIP3   OH253203   6.150   4.751   1.793 -0.7683 -0.2852  0.6167
10571TIP3    H153204   6.184   4.695   1.864  1.0333 -2.2784 -1.6515
10571TIP3    H253205   6.080   4.699   1.755 -1.5283  0.6491  0.7270
10572TIP3   OH253206   5.099   1.095  14.608  0.4259 -0.0045  0.7919
10572TIP3    H153207   5.054   1.111  14.691 -0.1390 -0.7186  0.6400
10572TIP3    H253208   5.064   1.160  14.548 -1.4303 -1.3422  0.3198
10573TIP3   OH253209   5.940   1.193  16.548 -0.1273  0.0298  0.8830
10573TIP3    H153210   5.847   1.215  16.559 -0.3161 -0.5483  0.4962
10573TIP3    H253211   5.954   1.119  16.607 -0.3776 -1.0677 -0.3936
10574TIP3   OH253212   0.729   5.176   3.752 -0.1595  0.4161 -0.0508
10574TIP3    H153213   0.806   5.226   3.724 -0.9968  2.8964  1.7430
10574TIP3    H253214   0.673   5.241   3.795 -2.3027 -1.7224  0.5586
10575TIP3   OH253215   1.813   6.529   0.066  0.3900  0.0623  0.2123
10575TIP3    H153216   1.799   6.438   0.093  3.2567 -0.6448 -0.3469
10575TIP3    H253217   1.758   6.540  -0.012 -0.1496 -1.1095  0.4117
10576TIP3   OH253218   5.163   5.087   5.786  0.1847 -0.3889  0.4827
10576TIP3    H153219   5.091   5.036   5.751 -1.4704  2.1503 -0.0996
10576TIP3    H253220   5.136   5.111   5.874  0.0070  1.0043  0.0829
10577TIP3   OH253221   3.953   3.306  16.314  0.0541  0.1782 -0.1011
10577TIP3    H153222   3.947   3.214  16.339  0.7141  0.2859  0.4829
10577TIP3    H253223   4.047   3.326  16.316 -0.0127  0.6531 -1.0167
10578TIP3   OH253224   4.220   0.464   3.958  0.4051  0.1829 -0.0958
10578TIP3    H153225   4.274   0.387   3.938  1.8873  0.2685  2.9758
10578TIP3    H253226   4.152   0.430   4.017  0.0057  0.9691 -0.0941
10579TIP3   OH253227   6.198   2.233   1.111 -0.4858  0.0671 -0.0996
10579TIP3    H153228   6.271   2.178   1.084 -0.4977 -1.2533  2.2775
10579TIP3    H253229   6.229   2.278   1.189 -1.0799  2.1825 -1.0314
10580TIP3   OH253230   3.314   2.347  11.173  0.0160  0.2319  0.3920
10580TIP3    H153231   3.300   2.261  11.214  1.0730  0.5328  1.4371
10580TIP3    H253232   3.400   2.340  11.132 -0.9103  0.0210 -1.6420
10581TIP3   OH253233   4.985   4.344   6.104  0.0429 -0.2519  0.4635
10581TIP3    H153234   4.998   4.253   6.129 -1.8579 -0.2440  1.6800
10581TIP3    H253235   5.069   4.371   6.067 -0.2461 -3.4381 -3.1463
10582TIP3   OH253236   0.352   6.204   2.526  0.1526 -0.3164 -0.0337
10582TIP3    H153237   0.286   6.196   2.457  0.0224  0.1643  0.0380
10582TIP3    H253238   0.416   6.136   2.505 -0.3771 -0.8081 -0.0865
10583TIP3   OH253239   5.905   5.274  17.229 -0.2127 -0.4960  0.2667
10583TIP3    H153240   5.850   5.324  17.289 -0.3859  2.2792 -2.0351
10583TIP3    H253241   5.980   5.248  17.282  0.0954  2.6153  1.5482
10584TIP3   OH253242   4.782   6.364  10.988  0.1597  0.5052 -0.0063
10584TIP3    H153243   4.697   6.360  10.944  0.8378 -1.3957 -1.2501
10584TIP3    H253244   4.798   6.275  11.018  2.0062  0.6660 -0.4099
10585TIP3   OH253245   3.200   6.142   0.384 -0.4845  0.6558  0.0662
10585TIP3    H153246   3.222   6.109   0.297  2.5102  1.3835  0.4528
10585TIP3    H253247   3.130   6.206   0.368 -2.2849 -1.5278 -1.3497
10586TIP3   OH253248   0.907   1.985  10.966 -0.1913  0.4518 -0.0061
10586TIP3    H153249   0.974   2.049  10.941  0.4490 -0.0902  0.2812
10586TIP3    H253250   0.935   1.904  10.924 -1.3432  0.4949 -0.8957
10587TIP3   OH253251   2.688   0.562   4.312 -1.1463 -0.2072  0.4621
10587TIP3    H153252   2.684   0.579   4.218  0.8046 -0.3499  0.2977
10587TIP3    H253253   2.702   0.467   4.319  1.3090  0.1022  0.7109
10588TIP3   OH253254   3.963   4.707  11.977  0.4968  0.0102  0.0126
10588TIP3    H153255   3.952   4.613  11.994 -1.2417 -0.2105 -1.9768
10588TIP3    H253256   4.057   4.718  11.964  0.6906 -1.5391 -0.1061
10589TIP3   OH253257   5.405   1.904  15.906  0.3456 -0.1196 -0.3733
10589TIP3    H153258   5.332   1.846  15.884  2.1980 -2.4713 -0.7853
10589TIP3    H253259   5.450   1.918  15.824  0.7320  0.7623 -0.0152
10590TIP3   OH253260   3.383   1.519  13.967  0.1015  0.4226 -1.0938
10590TIP3    H153261   3.418   1.556  14.049 -0.8793 -1.1085  0.0618
10590TIP3    H253262   3.459   1.479  13.925  0.6401  1.3105 -0.9965
10591TIP3   OH253263   4.449   4.389   6.353  0.2028  0.2790 -0.6405
10591TIP3    H153264   4.380   4.378   6.418 -0.7065  0.6936 -1.5074
10591TIP3    H253265   4.440   4.313   6.295  0.9361 -0.0331 -0.3531
10592TIP3   OH253266   5.516   2.752   2.091 -0.1948  0.4368 -0.2320
10592TIP3    H153267   5.487   2.661   2.096  1.4811 -0.0745  1.8770
10592TIP3    H253268   5.592   2.750   2.034 -1.9421  1.1475 -2.7596
10593TIP3   OH253269   4.038   0.271   2.099 -0.2598  0.5090 -0.1236
10593TIP3    H153270   4.114   0.241   2.149 -1.1638 -0.6074  0.6496
10593TIP3    H253271   4.046   0.227   2.014 -0.2956 -0.0223  0.1429
10594TIP3   OH253272   3.005   1.806  13.066  0.2343 -0.2371  0.0266
10594TIP3    H153273   3.063   1.877  13.041 -0.0206  0.8590  2.3061
10594TIP3    H253274   3.017   1.796  13.161 -1.3879 -1.7210  0.1464
10595TIP3   OH253275   3.853   1.308  13.896 -0.3182  0.1810 -0.7576
10595TIP3    H153276   3.859   1.362  13.817 -1.5364  0.1412 -0.8950
10595TIP3    H253277   3.943   1.283  13.915  0.1314  1.2689 -1.3859
10596TIP3   OH253278   3.756   6.130  13.416  0.2444 -0.0113  0.3538
10596TIP3    H153279   3.760   6.038  13.391  2.5764  0.0075  0.4569
10596TIP3    H253280   3.761   6.178  13.333  2.3380  0.0050  0.4447
10597TIP3   OH253281   1.213   4.091   4.202  0.0761  0.2939  0.2563
10597TIP3    H153282   1.120   4.115   4.205  0.4569  1.8616  0.4349
10597TIP3    H253283   1.242   4.122   4.116  0.8555  1.5768  0.9499
10598TIP3   OH253284   6.324   2.745  13.041  0.3240 -0.3297  0.2983
10598TIP3    H153285   6.299   2.833  13.067 -0.2194 -0.1441 -0.7963
10598TIP3    H253286   6.301   2.690  13.115 -0.3633  0.2967  0.5528
10599TIP3   OH253287   2.178   4.926  10.833 -0.2213  0.3018 -0.1033
10599TIP3    H153288   2.188   4.874  10.913 -0.3895  1.4529  0.6981
10599TIP3    H253289   2.090   4.962  10.839  0.4823  2.0722  0.2564
10600TIP3   OH253290   4.914   5.308  12.106  0.1799  0.0569  0.1557
10600TIP3    H153291   4.887   5.250  12.035 -1.1107  0.9344 -0.0994
10600TIP3    H253292   4.963   5.251  12.166 -0.6221 -1.1746 -0.3307
10601TIP3   OH253293   5.227   4.841  11.983  0.1700  0.2991 -0.2895
10601TIP3    H153294   5.237   4.755  12.024 -0.4079  0.5569  0.4312
10601TIP3    H253295   5.155   4.831  11.921 -0.3341  0.4180  0.2692
10602TIP3   OH253296   5.105   3.750  14.045  0.5216  0.2205  0.1989
10602TIP3    H153297   5.024   3.748  13.993  0.9788 -0.0849 -0.5090
10602TIP3    H253298   5.088   3.691  14.119 -0.4045  1.2260  0.8261
10603TIP3   OH253299   0.730   6.183   4.805  0.5009 -0.0854 -0.1336
10603TIP3    H153300   0.700   6.220   4.722  0.3444  0.4811  0.1692
10603TIP3    H253301   0.808   6.233   4.827 -0.3700  0.8860  0.8628
10604TIP3   OH253302   4.597   5.821   5.021  0.0845  0.5910  0.3840
10604TIP3    H153303   4.591   5.797   5.113  0.7087 -1.0221  0.0302
10604TIP3    H253304   4.689   5.807   4.998  0.1261  1.7979 -0.2816
10605TIP3   OH253305   2.308   6.532  16.748 -0.1153  0.2952 -0.2240
10605TIP3    H153306   2.357   6.465  16.796  0.1693  0.2261 -0.6091
10605TIP3    H253307   2.247   6.483  16.694 -0.0996  0.3565 -0.2976
10606TIP3   OH253308   4.780   5.181  12.970 -0.7415  0.4934  0.3767
10606TIP3    H153309   4.748   5.122  12.902 -1.4681  1.8939 -0.5274
10606TIP3    H253310   4.726   5.161  13.046 -0.8633 -0.1185  0.1366
10607TIP3   OH253311   2.023   1.665   4.525  0.2336  0.1831  0.7845
10607TIP3    H153312   2.067   1.597   4.474  1.4156  0.2134  1.6975
10607TIP3    H253313   1.970   1.712   4.462 -0.2687 -1.3094  0.0539
10608TIP3   OH253314   4.200   4.572  11.832  1.0103  0.2028  0.2330
10608TIP3    H153315   4.260   4.511  11.790  2.3972  1.4485  0.3384
10608TIP3    H253316   4.128   4.581  11.770  0.2034 -2.3460  0.6897
10609TIP3   OH253317   2.472   2.106   0.204  0.1787 -0.6171  0.4685
10609TIP3    H153318   2.517   2.135   0.283 -0.6697  1.1990  0.3508
10609TIP3    H253319   2.538   2.112   0.135  0.8602 -1.9908  0.9724
10610TIP3   OH253320   0.151   2.434   4.355 -0.9167 -0.0896  0.4648
10610TIP3    H153321   0.163   2.411   4.263  0.6600 -0.8118  0.8255
10610TIP3    H253322   0.165   2.352   4.403 -0.9862  0.4280  1.4087
10611TIP3   OH253323   3.113   4.311  11.922  0.0234 -0.2736  0.1960
10611TIP3    H153324   3.086   4.347  11.838 -0.6874  1.1367  0.9998
10611TIP3    H253325   3.040   4.328  11.981  1.0678  0.0450  1.4445
10612TIP3   OH253326   4.881   4.152  14.698  0.3331 -0.6177  0.3624
10612TIP3    H153327   4.943   4.113  14.636  0.7124 -0.2970  0.5324
10612TIP3    H253328   4.933   4.217  14.746 -0.6643  1.3800 -1.0847
10613TIP3   OH253329   2.058   2.666   0.575  0.2396  0.0398 -0.2552
10613TIP3    H153330   2.138   2.643   0.622  1.1766  1.9063 -0.8350
10613TIP3    H253331   2.088   2.694   0.489 -1.2132 -0.7140 -1.0433
10614TIP3   OH253332   3.002   5.840   5.823  0.0811  0.0948  0.1137
10614TIP3    H153333   3.032   5.847   5.913  2.4378 -1.9096 -0.4057
10614TIP3    H253334   3.004   5.746   5.804  0.6295  0.5170 -2.3163
10615TIP3   OH253335   3.659   0.033  16.690  0.3807  0.0790 -0.1524
10615TIP3    H153336   3.633  -0.022  16.763 -1.2634  0.3240 -0.5167
10615TIP3    H253337   3.731  -0.014  16.649  1.2178 -0.1464  1.4849
10616TIP3   OH253338   2.676   4.598   0.022 -0.4800 -0.0867 -0.0481
10616TIP3    H153339   2.672   4.647  -0.060 -1.1529 -0.8579 -0.4898
10616TIP3    H253340   2.593   4.618   0.066 -0.5730 -0.4919 -0.0341
10617TIP3   OH253341   4.957   1.767  14.721 -0.0264  0.0957  0.3783
10617TIP3    H153342   4.991   1.701  14.661  0.0202  0.7376 -0.3162
10617TIP3    H253343   4.893   1.720  14.774  1.4159 -0.9677  1.2465
10618TIP3   OH253344   0.596   2.342   0.628  0.4271  0.0114 -0.1331
10618TIP3    H153345   0.573   2.261   0.674 -1.4884  1.2269  1.2405
10618TIP3    H253346   0.670   2.377   0.678 -0.2635  0.2494  0.7575
10619TIP3   OH253347   0.149   0.244  13.797  0.2729  0.1136  0.2279
10619TIP3    H153348   0.078   0.291  13.840  0.5668  1.3806 -0.6128
10619TIP3    H253349   0.223   0.305  13.799 -0.4526  1.6123 -4.5995
10620TIP3   OH253350   6.154   2.975  12.736 -0.6758 -0.3464 -0.0646
10620TIP3    H153351   6.190   2.918  12.668 -1.5071  0.9746 -1.6923
10620TIP3    H253352   6.102   3.040  12.688 -1.9293  0.1981  1.8926
10621TIP3   OH253353   0.230   1.167   5.714 -0.3967 -0.5135 -0.1509
10621TIP3    H153354   0.269   1.231   5.773  2.1785 -0.7995 -1.3883
10621TIP3    H253355   0.215   1.089   5.769 -2.0766  0.5366  0.9940
10622TIP3   OH253356   1.139   2.494  16.124  0.4357 -0.7923 -0.3523
10622TIP3    H153357   1.094   2.566  16.080 -1.9506 -2.2949 -0.5768
10622TIP3    H253358   1.121   2.507  16.217  4.1981  1.5276  0.2666
10623TIP3   OH253359   4.330   4.594   3.947 -0.6038 -0.2494  0.4528
10623TIP3    H153360   4.307   4.627   3.860  1.8090 -0.6519 -0.4018
10623TIP3    H253361   4.360   4.505   3.931  1.5005  0.2330  1.3946
10624TIP3   OH253362   2.191   5.989  13.800 -0.3607 -0.0050 -0.2931
10624TIP3    H153363   2.244   5.911  13.816 -0.5841 -0.1029 -0.0190
10624TIP3    H253364   2.194   6.001  13.705  2.2786  1.4994 -0.1183
10625TIP3   OH253365   2.164   4.244   3.193  0.3154 -0.3233 -0.1789
10625TIP3    H153366   2.242   4.194   3.215  1.2316  0.7198 -0.9479
10625TIP3    H253367   2.197   4.330   3.166 -1.0348 -0.1235 -1.3172
10626TIP3   OH253368   6.298   5.310  17.147 -0.2219  0.1005  0.7958
10626TIP3    H153369   6.381   5.352  17.125  0.5391 -0.1258  3.0051
10626TIP3    H253370   6.247   5.377  17.192 -0.8859 -0.0299  0.2673
10627TIP3   OH253371   2.886   6.156   3.506  0.5226 -0.0514  0.1242
10627TIP3    H153372   2.914   6.111   3.586  0.2779 -0.8110 -0.2056
10627TIP3    H253373   2.966   6.162   3.453  1.0865  1.9955  1.1025
10628TIP3   OH253374   3.121   1.956   3.315 -0.1885  0.2031 -0.1596
10628TIP3    H153375   3.031   1.924   3.305 -0.0576 -0.0901 -0.4524
10628TIP3    H253376   3.154   1.960   3.225  0.3367 -0.4257 -0.0025
10629TIP3   OH253377   0.837   1.388  13.777 -0.2126  0.2256  0.1234
10629TIP3    H153378   0.753   1.360  13.741 -0.4733  1.1628 -0.0331
10629TIP3    H253379   0.850   1.476  13.740  1.2560 -0.2458 -0.5718
10630TIP3   OH253380   4.238   4.068  12.819  0.3429 -0.1106  0.4041
10630TIP3    H153381   4.145   4.044  12.823 -0.3852  1.9675 -1.7211
10630TIP3    H253382   4.264   4.049  12.729  2.1388 -1.0004  1.0538
10631TIP3   OH253383   2.843   5.629   0.285 -0.7962 -0.4665  0.0870
10631TIP3    H153384   2.770   5.589   0.239  0.2012 -2.4841  0.1369
10631TIP3    H253385   2.878   5.693   0.223 -1.3428 -0.9477 -0.7406
10632TIP3   OH253386   5.711   1.174  14.762  0.2322 -0.4476  0.3369
10632TIP3    H153387   5.718   1.142  14.672 -2.7492  0.3515 -0.3034
10632TIP3    H253388   5.667   1.259  14.754  2.4922  1.0496  2.3983
10633TIP3   OH253389   0.166   1.678   4.538  0.5893 -0.0755 -0.2149
10633TIP3    H153390   0.102   1.728   4.487  1.9534  0.9237 -1.0254
10633TIP3    H253391   0.172   1.725   4.621 -0.6876 -0.9487  0.3843
10634TIP3   OH253392   5.152   2.456   3.025 -0.1931  0.0123 -0.2648
10634TIP3    H153393   5.164   2.521   2.955 -0.2306 -0.3725 -0.6285
10634TIP3    H253394   5.163   2.506   3.106  2.0155  0.0541 -0.5502
10635TIP3   OH253395   3.911   1.493   5.456 -0.1753  0.0259  0.0245
10635TIP3    H153396   3.931   1.568   5.399 -0.1979  0.0943  0.1064
10635TIP3    H253397   3.927   1.525   5.544  0.0474 -0.1408  0.0449
10636TIP3   OH253398   0.294   6.053   4.283  1.4754 -0.4083 -0.6519
10636TIP3    H153399   0.357   6.113   4.243 -0.8641  2.8436  0.1831
10636TIP3    H253400   0.259   6.100   4.358  0.1812 -3.2890  0.7129
10637TIP3   OH253401   1.586   5.148  12.601 -0.2298  0.3440 -0.3901
10637TIP3    H153402   1.657   5.127  12.662 -0.6763  2.1385  0.8120
10637TIP3    H253403   1.625   5.211  12.540 -0.6581  0.9903 -0.0016
10638TIP3   OH253404   6.214   2.586  16.416 -0.4360 -0.1864  0.0206
10638TIP3    H153405   6.205   2.520  16.346 -0.2283  1.1214 -1.2962
10638TIP3    H253406   6.173   2.664  16.380  0.4979  0.7919  1.0051
10639TIP3   OH253407   0.558   1.940   1.638 -0.3602  0.1648  0.8853
10639TIP3    H153408   0.578   1.849   1.618  0.1028  0.4106  0.1690
10639TIP3    H253409   0.614   1.962   1.712  1.0245  0.4337 -0.2017
10640TIP3   OH253410   2.193   3.411  13.382 -0.1162 -0.1100 -0.2069
10640TIP3    H153411   2.263   3.366  13.428 -1.4424 -1.4210  0.6198
10640TIP3    H253412   2.230   3.432  13.296  1.1663 -1.0377  0.0945
10641TIP3   OH253413   5.184   2.722   3.252  0.0757 -0.4007  0.3946
10641TIP3    H153414   5.128   2.793   3.282  0.5638 -0.3250  1.1648
10641TIP3    H253415   5.205   2.744   3.161 -0.8426 -0.2519  0.2159
10642TIP3   OH253416   0.508   6.493   0.626 -0.0517 -0.2236  0.3559
10642TIP3    H153417   0.520   6.554   0.553  0.1612 -0.5000  0.1596
10642TIP3    H253418   0.597   6.466   0.649 -0.1635 -0.7228  0.2183
10643TIP3   OH253419   5.127   6.281   0.941 -0.0562 -0.6274  0.7483
10643TIP3    H153420   5.041   6.241   0.952  0.2806 -1.6123 -0.0371
10643TIP3    H253421   5.161   6.292   1.030 -0.8958 -0.4265  1.0470
10644TIP3   OH253422   4.332   6.290  13.255 -0.3182 -0.0958  0.5765
10644TIP3    H153423   4.390   6.227  13.298  1.5775  0.8375 -0.4666
10644TIP3    H253424   4.368   6.298  13.166 -1.2625  1.5070  0.3094
10645TIP3   OH253425   4.995   4.138  16.842 -0.3849  0.1464  0.2416
10645TIP3    H153426   4.942   4.196  16.897 -0.5725 -1.0130  1.3171
10645TIP3    H253427   5.085   4.160  16.865 -0.3040  2.2666 -1.7412
10646TIP3   OH253428   2.340   3.690   4.567  0.2197 -0.2486  0.4272
10646TIP3    H153429   2.382   3.776   4.574 -1.3088  0.5376  0.2318
10646TIP3    H253430   2.298   3.691   4.481 -0.1571 -1.0334  0.6004
10647TIP3   OH253431   5.230   4.229  15.540 -0.3495 -0.4337 -0.0623
10647TIP3    H153432   5.160   4.235  15.606  0.3651  1.7016  0.5789
10647TIP3    H253433   5.310   4.219  15.591  0.0677 -0.1874 -0.6630
10648TIP3   OH253434   5.707   0.563   1.231 -0.1879  0.1358 -0.4859
10648TIP3    H153435   5.702   0.578   1.326  0.1094  1.8074 -0.6972
10648TIP3    H253436   5.623   0.524   1.208 -0.9595  1.3164  0.2214
10649TIP3   OH253437   2.976   2.015   0.688 -0.8235  0.4796 -0.2226
10649TIP3    H153438   3.053   1.959   0.679 -0.7347  0.6449 -0.5249
10649TIP3    H253439   3.011   2.104   0.686 -0.9454  0.5453  0.4325
10650TIP3   OH253440   4.091   6.265   0.624  0.3046  0.3903  0.5972
10650TIP3    H153441   4.090   6.343   0.569 -1.3232 -0.1142 -0.1526
10650TIP3    H253442   4.098   6.192   0.562  0.6664 -0.1015  1.2054
10651TIP3   OH253443   1.485   1.464  12.188 -0.0689 -0.4978  0.1923
10651TIP3    H153444   1.483   1.537  12.126  3.2612  0.1409  0.5906
10651TIP3    H253445   1.454   1.389  12.139 -1.5645  0.7613 -0.8893
10652TIP3   OH253446   1.578   3.673  11.483  0.5145 -0.1381 -0.1346
10652TIP3    H153447   1.492   3.667  11.441  0.4925  0.3894 -0.1652
10652TIP3    H253448   1.631   3.608  11.437 -0.2263 -1.4405  0.7825
10653TIP3   OH253449   0.830   3.443  15.214 -0.1085 -0.2454 -0.0141
10653TIP3    H153450   0.896   3.485  15.270 -1.1365  0.6930  0.5219
10653TIP3    H253451   0.873   3.363  15.182  0.3774 -1.0497  2.4520
10654TIP3   OH253452   0.373   5.740   1.474  0.6180 -0.1752 -0.2042
10654TIP3    H153453   0.347   5.830   1.490  1.1985  0.2058 -1.3160
10654TIP3    H253454   0.442   5.745   1.408 -0.1498 -1.4878 -1.1826
10655TIP3   OH253455   2.352   1.766  12.592 -0.6025 -0.0979  0.3077
10655TIP3    H153456   2.277   1.707  12.603 -0.0609 -0.5527  1.7576
10655TIP3    H253457   2.362   1.773  12.497 -0.3275 -2.8423  0.0563
10656TIP3   OH253458   2.168   3.944   1.359 -0.2366  0.0365 -0.2255
10656TIP3    H153459   2.181   3.850   1.350 -2.7896 -0.4294  0.4165
10656TIP3    H253460   2.191   3.979   1.273  2.4215 -0.8749  0.0028
10657TIP3   OH253461   6.644   2.750   0.308  0.4573 -0.1791 -0.1388
10657TIP3    H153462   6.639   2.655   0.298  1.4601 -0.3186  0.5519
10657TIP3    H253463   6.663   2.783   0.220  1.1603 -0.7078 -0.1884
10658TIP3   OH253464   4.146   1.358   3.932  0.0232  0.6303 -0.1348
10658TIP3    H153465   4.222   1.401   3.891 -1.0658  0.9973 -1.8655
10658TIP3    H253466   4.071   1.405   3.897 -1.0221  0.9335  2.3174
10659TIP3   OH253467   4.369   1.108  10.985 -0.0275 -0.1585 -0.6865
10659TIP3    H153468   4.443   1.101  11.045 -1.0313  2.6726  1.1365
10659TIP3    H253469   4.315   1.031  11.002  0.0642  0.2358  1.6751
10660TIP3   OH253470   5.648   2.536   4.546 -0.0575 -0.0040 -0.0616
10660TIP3    H153471   5.561   2.525   4.585  0.3058  0.0786  0.7893
10660TIP3    H253472   5.676   2.623   4.573 -0.2959  0.5565 -1.5384
10661TIP3   OH253473   2.970   1.551  10.326  0.5217 -0.4537 -0.1405
10661TIP3    H153474   3.010   1.620  10.273  0.2842  0.5306  0.9245
10661TIP3    H253475   2.904   1.512  10.269  1.3227 -0.4570 -1.0805
10662TIP3   OH253476   3.243   1.504   0.576 -0.3058 -0.4143  0.0673
10662TIP3    H153477   3.227   1.595   0.553  2.0594 -0.4312 -2.1345
10662TIP3    H253478   3.265   1.506   0.669 -2.2392  0.9089  0.5578
10663TIP3   OH253479   4.866   1.636   5.684  0.1391 -0.5685 -0.0485
10663TIP3    H153480   4.925   1.696   5.731 -0.4141  0.1302 -0.2307
10663TIP3    H253481   4.781   1.648   5.726  0.2409 -2.0386  0.6273
10664TIP3   OH253482   3.064   2.985   5.578 -0.3427 -0.0448 -0.1152
10664TIP3    H153483   3.012   2.951   5.651  1.8919  1.0484  2.1518
10664TIP3    H253484   3.113   2.908   5.546 -0.1248 -0.2457  0.6680
10665TIP3   OH253485   1.465   5.240   3.841 -0.1984 -0.7031 -0.0605
10665TIP3    H153486   1.485   5.317   3.788 -1.3126 -0.3494  0.0237
10665TIP3    H253487   1.497   5.166   3.789  1.6231 -0.1643  0.2092
10666TIP3   OH253488   1.874   3.119  14.025 -0.0191  0.4011 -0.0326
10666TIP3    H153489   1.867   3.025  14.004 -0.5915  0.0717  1.5139
10666TIP3    H253490   1.784   3.148  14.034  0.1611  1.1036 -0.4200
10667TIP3   OH253491   4.412   1.905   0.856 -0.6408  0.1429  0.1762
10667TIP3    H153492   4.440   1.983   0.904  0.1047  1.5211 -2.3255
10667TIP3    H253493   4.468   1.835   0.890 -0.6102  0.8840  1.7440
10668TIP3   OH253494   4.465   5.650   2.860  0.1014 -0.4735  0.0877
10668TIP3    H153495   4.397   5.660   2.792 -0.4306  0.1017  0.6903
10668TIP3    H253496   4.419   5.667   2.942  0.6268 -1.6348  0.6480
10669TIP3   OH253497   4.410   1.769  13.944 -0.2859 -0.4640  0.0250
10669TIP3    H153498   4.413   1.864  13.950  0.3116 -0.4356 -0.5275
10669TIP3    H253499   4.412   1.738  14.034 -0.6154  0.0473  0.2098
10670TIP3   OH253500   4.822   3.058   6.166 -0.5104  0.0484  0.5762
10670TIP3    H153501   4.729   3.040   6.149 -0.5025  0.0951  0.4849
10670TIP3    H253502   4.828   3.063   6.262 -0.1910 -2.2177  0.7317
10671TIP3   OH253503   3.686   3.090   0.962  0.1731  0.2314 -0.4309
10671TIP3    H153504   3.770   3.094   1.007 -0.0311 -1.0307  0.1016
10671TIP3    H253505   3.647   3.176   0.976  0.1128 -0.1033  1.8594
10672TIP3   OH253506   6.304   0.478   5.943  0.7343 -0.1191  0.3858
10672TIP3    H153507   6.238   0.490   6.011  0.4356  0.3311  0.0217
10672TIP3    H253508   6.359   0.556   5.948 -0.1319  0.5998 -0.7976
10673TIP3   OH253509   4.654   4.292  11.526 -0.7377  0.3194  0.6679
10673TIP3    H153510   4.728   4.233  11.538 -0.6015  0.2855 -0.2807
10673TIP3    H253511   4.689   4.366  11.477 -0.8126  1.4185  2.1831
10674TIP3   OH253512   3.693   5.500   1.302 -0.1828 -0.1930  0.3980
10674TIP3    H153513   3.655   5.470   1.384  0.6048 -0.9248  0.5041
10674TIP3    H253514   3.740   5.424   1.268  0.4123  0.4292 -0.1840
10675TIP3   OH253515   5.285   3.632  11.004  0.0844 -0.4432  0.7370
10675TIP3    H153516   5.314   3.657  11.091  1.3207 -0.4234  0.3427
10675TIP3    H253517   5.266   3.715  10.960  0.2090 -0.4107  0.7436
10676TIP3   OH253518   5.898   5.201   5.915  0.1046  0.1249 -0.2520
10676TIP3    H153519   5.832   5.270   5.920 -0.6044 -0.4154 -1.7513
10676TIP3    H253520   5.959   5.230   5.847  0.7107 -0.0032  0.2194
10677TIP3   OH253521   4.114   1.205   4.246  0.2554  0.5514 -0.4778
10677TIP3    H153522   4.206   1.180   4.256  0.4409  0.4071 -2.3013
10677TIP3    H253523   4.116   1.299   4.228  0.0278  0.5719 -0.4071
10678TIP3   OH253524   3.245   6.242  14.988 -0.2821  0.1976  0.5770
10678TIP3    H153525   3.318   6.239  15.050  1.0573  2.8763 -0.6957
10678TIP3    H253526   3.268   6.178  14.921 -0.0464 -0.2947  1.1220
10679TIP3   OH253527   6.691   6.823   4.247  0.3701 -0.1818  0.0995
10679TIP3    H153528   6.691   6.773   4.329 -1.4683  0.4723  0.5388
10679TIP3    H253529   6.611   6.875   4.251  0.2363 -0.1380 -2.1268
10680TIP3   OH253530   4.234   3.280  16.889  0.6527 -0.0535 -0.3425
10680TIP3    H153531   4.306   3.232  16.847 -0.1575  0.7057 -2.8098
10680TIP3    H253532   4.243   3.369  16.855  0.4743  0.8747  1.9314
10681TIP3   OH253533   6.328   3.107   1.467  0.8839  0.2659  0.0361
10681TIP3    H153534   6.372   3.150   1.540 -1.2737  1.3715  0.7705
10681TIP3    H253535   6.283   3.178   1.420 -2.1050 -0.9585  0.7839
10682TIP3   OH253536   3.998   2.760  16.979 -0.1971  0.5485  0.0775
10682TIP3    H153537   4.042   2.817  17.043  0.0886  2.2468 -1.5286
10682TIP3    H253538   3.915   2.805  16.960 -0.2894  0.0630 -0.7135
10683TIP3   OH253539   1.890   3.716  15.859 -0.1212 -0.4106  0.6384
10683TIP3    H153540   1.964   3.723  15.919 -0.4342 -0.4364  1.0313
10683TIP3    H253541   1.930   3.712  15.772  0.3232  0.0299  0.8142
10684TIP3   OH253542   3.674   3.930  11.950  0.4535  0.3470 -0.4905
10684TIP3    H153543   3.754   3.980  11.965  0.0920  0.7611  0.1259
10684TIP3    H253544   3.606   3.996  11.942  0.5379  0.2201 -4.0765
10685TIP3   OH253545   4.137   6.481   0.467  0.7031 -0.1856  0.3732
10685TIP3    H153546   4.061   6.508   0.415  0.9859  1.2977  0.6892
10685TIP3    H253547   4.210   6.487   0.406  0.8504  0.3613  0.5946
10686TIP3   OH253548   6.358   0.517   2.798 -0.2030  0.5464 -0.3828
10686TIP3    H153549   6.419   0.520   2.724  1.3126 -0.1121  0.7687
10686TIP3    H253550   6.413   0.535   2.875 -1.8625  2.0526  0.5430
10687TIP3   OH253551   3.128   3.654  12.197 -0.1945  0.3507  0.2683
10687TIP3    H153552   3.055   3.660  12.136  0.8143  4.0689 -0.8951
10687TIP3    H253553   3.181   3.581  12.164 -1.4690  0.0306 -1.1837
10688TIP3   OH253554   4.152   4.636  13.192  0.0784  0.3192 -0.2085
10688TIP3    H153555   4.213   4.611  13.123  0.6726  2.8837 -0.7208
10688TIP3    H253556   4.187   4.597  13.271  2.2660  1.4384 -0.5467
10689TIP3   OH253557   1.335   5.536  10.267  0.0769 -0.1936 -0.2070
10689TIP3    H153558   1.352   5.590  10.344  1.4800 -1.2344  0.2580
10689TIP3    H253559   1.280   5.465  10.299  1.6718 -1.3131  0.1711
10690TIP3   OH253560   0.456   1.012  16.420 -0.4026 -0.5670 -0.0083
10690TIP3    H153561   0.546   1.038  16.404 -0.4327 -1.5720 -2.1783
10690TIP3    H253562   0.463   0.940  16.483  0.3012 -0.4873  0.0134
10691TIP3   OH253563   2.515   4.294  15.618 -0.4749  0.1242 -0.3647
10691TIP3    H153564   2.458   4.302  15.695  0.2435  1.1735  0.0773
10691TIP3    H253565   2.464   4.333  15.547 -1.4216 -1.4564 -0.6153
10692TIP3   OH253566   1.884   6.171   0.145 -0.1739  0.7352 -0.4045
10692TIP3    H153567   1.796   6.163   0.109 -0.6081 -0.1521  0.7900
10692TIP3    H253568   1.870   6.206   0.233  0.7822  1.8888 -0.6890
10693TIP3   OH253569   3.476   4.257  11.740 -0.0568 -0.2366  0.2648
10693TIP3    H153570   3.448   4.208  11.662  0.3355  0.6319 -0.4471
10693TIP3    H253571   3.446   4.347  11.723 -0.2014 -0.0945  1.2448
10694TIP3   OH253572   5.538   1.480  11.989  0.3460 -0.7781 -0.1238
10694TIP3    H153573   5.545   1.470  11.894 -1.4495 -1.2830 -0.2388
10694TIP3    H253574   5.521   1.574  12.002  2.9571 -0.2478 -0.0863
10695TIP3   OH253575   5.241   2.341  11.118  0.1761 -0.0148  0.3297
10695TIP3    H153576   5.287   2.424  11.130  1.6584 -0.6359 -0.7310
10695TIP3    H253577   5.305   2.274  11.143 -0.1865 -0.9025 -1.0272
10696TIP3   OH253578   5.059   2.013   2.545  0.2619 -0.2228  0.0803
10696TIP3    H153579   5.006   1.945   2.587 -0.2279 -1.8404 -2.8326
10696TIP3    H253580   4.996   2.078   2.515  0.5528  0.6404  1.2557
10697TIP3   OH253581   5.448   6.116   4.311  0.3586  0.0344  0.2510
10697TIP3    H153582   5.405   6.031   4.322  0.5873  0.0734  1.5869
10697TIP3    H253583   5.514   6.100   4.243 -1.0119 -0.2860 -1.0641
10698TIP3   OH253584   0.499   4.245  14.012  0.1982  0.0770  0.3260
10698TIP3    H153585   0.591   4.253  14.035 -0.2972  2.0791  1.9568
10698TIP3    H253586   0.472   4.335  13.990 -1.2515 -0.5468 -0.6682
10699TIP3   OH253587   6.383   4.421  13.559 -0.2291  0.0936 -0.7997
10699TIP3    H153588   6.471   4.454  13.572  0.0815 -0.2149 -1.9923
10699TIP3    H253589   6.367   4.364  13.634  1.8325 -2.3653 -2.0600
10700TIP3   OH253590   1.259   2.466  14.058  0.1140  0.0554 -0.3298
10700TIP3    H153591   1.207   2.392  14.090 -0.5560  0.1285 -1.2227
10700TIP3    H253592   1.195   2.525  14.016  0.8182  0.4747 -0.8425
10701TIP3   OH253593   6.446   3.429   1.576  0.4953  0.2996  0.1191
10701TIP3    H153594   6.402   3.465   1.499  1.9196  2.6163  0.2973
10701TIP3    H253595   6.526   3.389   1.542  0.1722 -0.4700  0.2245
10702TIP3   OH253596   6.733   1.879   2.113  0.4291 -0.0527  0.1248
10702TIP3    H153597   6.700   1.792   2.135 -2.0108  0.7471 -0.1134
10702TIP3    H253598   6.785   1.906   2.189  1.6954 -1.8789 -0.0284
10703TIP3   OH253599   0.796   1.096  14.066 -0.3402 -0.3208  0.4577
10703TIP3    H153600   0.721   1.124  14.014 -0.7465  0.2777  1.3568
10703TIP3    H253601   0.872   1.123  14.014 -0.7275 -1.0235 -0.5065
10704TIP3   OH253602   4.460   3.068   4.777 -0.1188 -0.1231  0.0526
10704TIP3    H153603   4.553   3.062   4.801 -0.1841  2.2774  1.2134
10704TIP3    H253604   4.458   3.126   4.702 -0.7510  0.9539  0.8758
10705TIP3   OH253605   3.343   2.606  13.293 -0.1171 -0.6026  0.0124
10705TIP3    H153606   3.298   2.650  13.220 -0.4752 -0.9275  0.0321
10705TIP3    H253607   3.288   2.624  13.369  0.1939 -0.3650  0.1821
10706TIP3   OH253608   0.871   1.352  11.508  0.2407  0.8190  0.5380
10706TIP3    H153609   0.894   1.360  11.415  1.1378 -1.8052  0.4526
10706TIP3    H253610   0.951   1.378  11.555  0.6466 -0.2852  0.4789
10707TIP3   OH253611   0.073   2.359  15.129 -0.1446  0.2469  0.1955
10707TIP3    H153612   0.049   2.327  15.042 -1.3446  1.0236  0.2143
10707TIP3    H253613   0.043   2.291  15.189 -0.9292  0.5146  0.1110
10708TIP3   OH253614   5.460   1.773  13.562  0.1937 -0.5658  0.0595
10708TIP3    H153615   5.538   1.777  13.617  0.9277  0.7208 -1.0258
10708TIP3    H253616   5.389   1.754  13.623  1.4870 -3.1281  0.9124
10709TIP3   OH253617   2.448   1.884   0.683 -0.0381  0.3275 -0.8878
10709TIP3    H153618   2.538   1.858   0.662 -0.1423 -0.3149 -0.5573
10709TIP3    H253619   2.401   1.873   0.600  0.4051  1.7385 -1.3598
10710TIP3   OH253620   1.103   3.848  11.435 -0.6586 -0.2053 -0.5613
10710TIP3    H153621   1.105   3.822  11.527 -1.2978 -1.4533 -0.8768
10710TIP3    H253622   1.070   3.771  11.389 -1.0349  0.6403 -1.7576
10711TIP3   OH253623   0.208   5.005  16.846  0.0661 -0.0244  0.0339
10711TIP3    H153624   0.240   4.923  16.808  0.8302  0.3808 -0.2146
10711TIP3    H253625   0.140   5.035  16.786  1.8709  1.0799 -1.5708
10712TIP3   OH253626   3.174   4.876  16.084  0.4251 -0.0794 -0.1789
10712TIP3    H153627   3.148   4.806  16.024 -0.3938  0.8778 -0.9911
10712TIP3    H253628   3.092   4.904  16.125  0.6330  0.8413 -0.3655
10713TIP3   OH253629   0.418   6.136   4.565  0.2185  0.1587 -0.3535
10713TIP3    H153630   0.403   6.135   4.660 -0.0161  0.0206 -0.3915
10713TIP3    H253631   0.353   6.198   4.532  0.2303  0.1276 -0.4345
10714TIP3   OH253632   3.646   6.679   3.909 -0.3329  0.3335  0.1161
10714TIP3    H153633   3.719   6.702   3.852  1.8073  0.1611  2.5970
10714TIP3    H253634   3.637   6.754   3.968 -2.8890  0.7912 -0.7402
10715TIP3   OH253635   1.380   3.938  10.871  0.2338 -0.2482  0.2033
10715TIP3    H153636   1.452   3.999  10.884  0.9506 -0.9443 -0.3964
10715TIP3    H253637   1.330   3.974  10.798 -0.1078  0.2959  0.6959
10716TIP3   OH253638   1.930   0.637  13.141 -0.2832 -0.0303  0.1839
10716TIP3    H153639   1.978   0.634  13.058 -0.7561  0.7193 -0.1324
10716TIP3    H253640   1.937   0.728  13.170 -0.1216 -0.2880  0.9728
10717TIP3   OH253641   1.012   5.427   0.992 -0.6131 -0.1855  0.5315
10717TIP3    H153642   1.096   5.403   1.032  0.4312 -0.2063 -1.4989
10717TIP3    H253643   0.982   5.502   1.043  1.4133  0.7801  0.4364
10718TIP3   OH253644   3.323   2.224   2.907  0.0996 -0.1115  0.0203
10718TIP3    H153645   3.388   2.294   2.907  0.7128 -0.6762  0.1901
10718TIP3    H253646   3.334   2.180   2.824  1.1441 -1.3013  0.7571
10719TIP3   OH253647   3.180   5.094   3.159  0.5310 -0.0471 -0.8169
10719TIP3    H153648   3.247   5.073   3.093  0.3659  1.3618 -1.4670
10719TIP3    H253649   3.148   5.180   3.133 -0.3189  0.0456  0.4940
10720TIP3   OH253650   1.492   4.792  16.505  0.6602 -0.0340 -0.1740
10720TIP3    H153651   1.469   4.710  16.460  0.8295  0.2707 -0.8302
10720TIP3    H253652   1.581   4.776  16.538 -0.2579 -1.0464  1.9748
10721TIP3   OH253653   5.790   6.183  14.415  0.4246 -0.0230 -0.0939
10721TIP3    H153654   5.829   6.115  14.470  0.8203 -0.0533 -0.4122
10721TIP3    H253655   5.820   6.265  14.454 -0.8468  0.0111  0.8897
10722TIP3   OH253656   6.808   2.604   2.781 -0.1420  0.0883  0.1292
10722TIP3    H153657   6.826   2.685   2.734 -0.4495  1.8519  2.8169
10722TIP3    H253658   6.721   2.577   2.751  0.1355  0.4917 -1.0943
10723TIP3   OH253659   5.403   5.973   1.399 -0.3459 -0.7059 -0.2528
10723TIP3    H153660   5.386   5.925   1.480  0.0047 -1.3884 -0.5747
10723TIP3    H253661   5.322   6.022   1.383 -0.0794  0.1973  1.0038
10724TIP3   OH253662   4.338   4.247   1.911  0.1841  0.3771  0.8998
10724TIP3    H153663   4.262   4.298   1.940 -0.6850 -0.0199 -0.5472
10724TIP3    H253664   4.338   4.169   1.965  0.1695  0.8500  1.5906
10725TIP3   OH253665   5.716   6.338  15.617  0.7706  0.2686 -0.4348
10725TIP3    H153666   5.649   6.329  15.686  1.3625  0.0437  0.1204
10725TIP3    H253667   5.799   6.335  15.664  1.1634  1.9265 -0.9705
10726TIP3   OH253668   0.347   5.015   4.132  0.0489  0.1567 -0.0041
10726TIP3    H153669   0.309   5.080   4.072  0.7732  1.6965  1.1514
10726TIP3    H253670   0.437   5.005   4.102  0.3009  0.6415  0.5842
10727TIP3   OH253671   2.273   1.710  16.053  0.1947 -0.6480 -0.2046
10727TIP3    H153672   2.362   1.692  16.083  0.1963 -1.4391 -0.6717
10727TIP3    H253673   2.252   1.795  16.092  1.8672  0.5170 -1.6355
10728TIP3   OH253674   6.636   6.605   1.476 -0.2194  0.3328 -0.0882
10728TIP3    H153675   6.700   6.590   1.407  1.3113  0.4032  1.2563
10728TIP3    H253676   6.552   6.582   1.436  0.5902  0.4943 -1.9861
10729TIP3   OH253677   1.687   6.456   4.431 -0.1831  0.1597  0.0170
10729TIP3    H153678   1.664   6.549   4.439  0.0237  0.2448 -0.3703
10729TIP3    H253679   1.637   6.426   4.355  0.8811  0.3159 -0.7679
10730TIP3   OH253680   6.149   2.405  15.314 -0.3746  0.1493  0.3318
10730TIP3    H153681   6.211   2.428  15.245  2.0670 -2.5364  1.4160
10730TIP3    H253682   6.063   2.411  15.273  0.8372  0.4219 -2.3804
10731TIP3   OH253683   5.176   0.765  15.223  0.3387 -0.0423  0.0241
10731TIP3    H153684   5.262   0.758  15.264 -0.2713 -0.8658  1.1972
10731TIP3    H253685   5.116   0.787  15.295 -0.4965  0.1716 -0.7132
10732TIP3   OH253686   3.793   0.785  14.413  0.2617  0.6093  0.1854
10732TIP3    H153687   3.794   0.824  14.326  0.8196 -0.9876 -0.5523
10732TIP3    H253688   3.750   0.700  14.401 -2.0349  1.4122  1.9673
10733TIP3   OH253689   2.272   1.902   0.162 -0.1423 -0.5205  0.4288
10733TIP3    H153690   2.263   1.860   0.247 -0.5989  0.9540  1.1379
10733TIP3    H253691   2.343   1.966   0.174 -0.6875  0.1927 -0.0803
10734TIP3   OH253692   5.343   6.015  14.928 -0.0850  0.7359 -0.0779
10734TIP3    H153693   5.275   6.076  14.957 -0.3652  0.4677 -0.1690
10734TIP3    H253694   5.399   6.067  14.871  0.0851  1.0951  0.4105
10735TIP3   OH253695   3.864   4.933  13.468 -0.4667 -0.5145 -0.2741
10735TIP3    H153696   3.792   4.991  13.440 -0.1987  0.0231  0.1424
10735TIP3    H253697   3.943   4.987  13.459 -0.3870 -0.2547  1.6988
10736TIP3   OH253698   6.406   5.520   0.695  0.0619 -0.2867  0.1893
10736TIP3    H153699   6.501   5.518   0.699  0.2936  0.4805 -2.5603
10736TIP3    H253700   6.383   5.612   0.704 -0.1860 -0.1612 -1.3559
10737TIP3   OH253701   5.864   2.075  14.076  0.1323 -0.0388  0.3681
10737TIP3    H153702   5.843   2.139  14.144  1.3513 -0.0080  0.7404
10737TIP3    H253703   5.795   2.009  14.084 -0.0604  0.2475  1.2674
10738TIP3   OH253704   6.299   0.858  16.773  0.1420  0.4436  0.0081
10738TIP3    H153705   6.316   0.826  16.685 -1.0254 -0.2838  0.0365
10738TIP3    H253706   6.348   0.799  16.830  1.5523  1.3912 -0.1629
10739TIP3   OH253707   2.311   5.171   0.037 -0.1601 -0.4509 -0.0934
10739TIP3    H153708   2.308   5.170  -0.058  0.4198  1.0925 -0.1556
10739TIP3    H253709   2.233   5.122   0.064 -1.3438  0.6556 -1.3635
10740TIP3   OH253710   2.162   6.177  13.445 -0.2974  0.2327  0.0630
10740TIP3    H153711   2.108   6.241  13.399 -0.3246  0.4948  0.4501
10740TIP3    H253712   2.100   6.112  13.478 -0.2346 -0.1817 -0.6202
10741TIP3   OH253713   5.355   1.588   4.439  0.1319 -0.3100 -0.0202
10741TIP3    H153714   5.348   1.664   4.496  0.5216 -0.6714  0.5247
10741TIP3    H253715   5.355   1.513   4.499 -1.1640 -0.7978 -0.5887
10742TIP3   OH253716   1.751   0.775   1.800 -0.1062 -0.1845  0.0402
10742TIP3    H153717   1.682   0.730   1.751  0.0769 -0.7031  0.2496
10742TIP3    H253718   1.715   0.786   1.888 -0.1378  0.0577 -0.0018
10743TIP3   OH253719   4.110   5.849   0.003 -0.0286  0.0033  0.0149
10743TIP3    H153720   4.155   5.797   0.069 -0.5228  0.5509  0.8084
10743TIP3    H253721   4.176   5.868  -0.063  0.3819 -0.8486  0.1773
10744TIP3   OH253722   4.736   6.721  14.487 -0.5767 -0.2407  0.0918
10744TIP3    H153723   4.709   6.652  14.426  0.5298  0.4376 -1.2440
10744TIP3    H253724   4.821   6.751  14.452 -1.1524  1.9864  0.4445
10745TIP3   OH253725   6.672   4.328   5.911  0.3898 -0.2837 -0.7018
10745TIP3    H153726   6.742   4.270   5.883 -1.0275 -1.4945 -1.8932
10745TIP3    H253727   6.644   4.294   5.996  2.2387  1.1709  0.5708
10746TIP3   OH253728   5.556   2.536  11.875 -0.6421 -0.3372 -0.4549
10746TIP3    H153729   5.496   2.464  11.857  0.5242 -1.0710 -1.6034
10746TIP3    H253730   5.557   2.544  11.971 -1.5234 -1.2006 -0.3648
10747TIP3   OH253731   0.062   1.573  15.005  0.1495  0.3516 -0.4144
10747TIP3    H153732   0.025   1.600  15.089 -0.0444  1.4780 -0.8423
10747TIP3    H253733  -0.009   1.525  14.961  0.0792  0.2164 -0.1556
10748TIP3   OH253734   5.904   4.827   0.235  1.1261  0.1613  1.0128
10748TIP3    H153735   5.986   4.867   0.206  0.3782  0.8598 -0.2333
10748TIP3    H253736   5.922   4.733   0.238  1.7283  0.2320 -0.0956
10749TIP3   OH253737   1.003   3.127   4.253 -0.1234 -0.2716 -0.0482
10749TIP3    H153738   1.080   3.079   4.224  2.1503  2.5626  0.9265
10749TIP3    H253739   0.970   3.075   4.327  1.8584 -0.7154  0.5921
10750TIP3   OH253740   2.406   4.272   3.661 -0.3647  0.5112 -0.3717
10750TIP3    H153741   2.419   4.367   3.655  1.6342  0.2980 -0.0332
10750TIP3    H253742   2.487   4.234   3.628 -0.0454 -1.0212  1.9241
10751TIP3   OH253743   1.770   0.562  12.450 -0.2568  0.0354  0.2635
10751TIP3    H153744   1.693   0.619  12.439  0.4789  0.9252 -0.3571
10751TIP3    H253745   1.831   0.591  12.383  0.4515 -0.9740  0.4617
10752TIP3   OH253746   1.195   6.027   2.022 -0.2740  0.7043  0.1885
10752TIP3    H153747   1.265   5.991   1.968 -0.6998 -0.4022  0.3423
10752TIP3    H253748   1.235   6.043   2.108  0.0804  1.2409 -0.0714
10753TIP3   OH253749   2.712   5.731   5.690  0.4958 -0.1848  0.0449
10753TIP3    H153750   2.802   5.701   5.703  0.3985  0.1005  1.5292
10753TIP3    H253751   2.688   5.699   5.603  1.3187 -2.0414  0.4671
10754TIP3   OH253752   4.077   1.666   0.581  0.7264  0.2270  0.4813
10754TIP3    H153753   3.982   1.661   0.583  0.5528  1.1203 -1.9081
10754TIP3    H253754   4.104   1.601   0.517  1.4367  1.8524 -0.9745
10755TIP3   OH253755   4.837   2.372   5.896  0.2891 -0.5717 -0.3409
10755TIP3    H153756   4.810   2.438   5.959 -1.9566 -1.8472  0.1590
10755TIP3    H253757   4.800   2.290   5.930  0.4803 -1.5837 -2.4183
10756TIP3   OH253758   4.626   6.119   3.272  0.2044  0.1134  0.2925
10756TIP3    H153759   4.630   6.158   3.359  1.0299  0.3389  0.1572
10756TIP3    H253760   4.534   6.091   3.263  0.2845 -0.6033  1.5106
10757TIP3   OH253761   1.591   0.168  12.075  0.3513  0.6084  0.3084
10757TIP3    H153762   1.682   0.160  12.046 -0.2499 -0.8987 -1.2907
10757TIP3    H253763   1.558   0.079  12.075 -2.0285  1.3555 -2.2333
10758TIP3   OH253764   5.260   4.881  10.629  0.1388  0.0402 -0.3293
10758TIP3    H153765   5.260   4.812  10.695  1.9538 -0.1350 -0.4762
10758TIP3    H253766   5.307   4.953  10.669 -2.5110  1.6263  0.1697
10759TIP3   OH253767   0.449   0.007   1.864  0.0815  0.5058 -0.6419
10759TIP3    H153768   0.528   0.057   1.842 -0.1636  1.1527 -0.0579
10759TIP3    H253769   0.389   0.071   1.900 -0.1453 -0.2464  0.3648
10760TIP3   OH253770   5.709   2.123  12.043 -0.0846  0.0132 -0.0621
10760TIP3    H153771   5.759   2.080  11.974  1.5739  1.1897  0.3406
10760TIP3    H253772   5.711   2.216  12.021 -1.9988  0.1393  0.0743
10761TIP3   OH253773   5.903   1.716  13.602 -0.0110  0.6052  0.3828
10761TIP3    H153774   5.916   1.695  13.510 -0.6626 -2.4865  0.8640
10761TIP3    H253775   5.916   1.810  13.608  1.4786  0.6925 -2.5913
10762TIP3   OH253776   1.208   6.431   3.340  0.0715  0.1097 -0.6122
10762TIP3    H153777   1.209   6.343   3.301  2.0682  0.1554 -0.7397
10762TIP3    H253778   1.234   6.489   3.269  0.6495  0.5746 -0.0307
10763TIP3   OH253779   0.076   6.628   5.888 -0.0497  0.0577 -0.4277
10763TIP3    H153780   0.145   6.597   5.947  0.0787  0.1565 -0.5246
10763TIP3    H253781   0.077   6.723   5.897 -1.1176 -0.0148  0.6186
10764TIP3   OH253782   0.226   0.289   4.241 -0.0240 -0.1714  0.1774
10764TIP3    H153783   0.216   0.383   4.258 -0.5363 -0.0946 -0.5235
10764TIP3    H253784   0.156   0.268   4.180  1.9686 -0.3436 -2.2198
10765TIP3   OH253785   6.203   2.539   0.279  0.2708 -0.1586 -0.4695
10765TIP3    H153786   6.247   2.536   0.364 -0.2488  1.6174 -0.0917
10765TIP3    H253787   6.110   2.538   0.300  0.1387 -0.4228 -1.0601
10766TIP3   OH253788   4.848   3.275  15.675 -0.1356  0.4169  0.9489
10766TIP3    H153789   4.918   3.246  15.617  0.9868  1.0603  1.9288
10766TIP3    H253790   4.805   3.194  15.703  0.2232  0.0088  0.3308
10767TIP3   OH253791   2.905   3.824   3.313  0.8894 -0.3472  0.4452
10767TIP3    H153792   2.878   3.736   3.288  0.5703 -0.2941  0.6038
10767TIP3    H253793   2.882   3.832   3.405  0.6846 -0.0067  0.3681
10768TIP3   OH253794   1.339   6.267   2.784  0.1323 -0.5020 -0.1742
10768TIP3    H153795   1.293   6.303   2.860 -1.1128 -3.0540  0.3795
10768TIP3    H253796   1.287   6.294   2.709  0.4839  0.6917 -0.0136
10769TIP3   OH253797   1.030   0.800   1.636  0.2021  0.0261  0.2716
10769TIP3    H153798   1.044   0.728   1.574 -1.5265 -0.5257  0.4673
10769TIP3    H253799   1.117   0.821   1.668  1.1333  0.0856 -2.0679
10770TIP3   OH253800   3.080   2.784   1.911  0.6975  0.0049 -0.5847
10770TIP3    H153801   3.088   2.879   1.916  0.1391  0.0076  1.8346
10770TIP3    H253802   3.157   2.751   1.959  0.0338 -0.6849  0.0442
10771TIP3   OH253803   0.216   2.606   2.477  0.3067 -0.3319 -0.1257
10771TIP3    H153804   0.194   2.696   2.451  0.3916 -0.5258 -0.9096
10771TIP3    H253805   0.309   2.610   2.501  0.5251 -0.3539 -0.9191
10772TIP3   OH253806   3.019   4.836  12.389 -0.2269 -0.7646  0.0016
10772TIP3    H153807   2.994   4.878  12.306  0.3189 -1.1508 -0.3695
10772TIP3    H253808   3.077   4.900  12.431 -0.2778 -0.6852 -0.0471
10773TIP3   OH253809   0.603   2.714  14.213  0.3979  0.3868  0.3126
10773TIP3    H153810   0.669   2.646  14.198  0.7961  0.6686  0.7540
10773TIP3    H253811   0.583   2.749  14.127 -0.8339 -1.2278 -0.1076
10774TIP3   OH253812   2.553   0.646  17.015  0.0174 -0.0822 -0.0783
10774TIP3    H153813   2.470   0.694  17.023 -0.3660 -0.6026 -0.7663
10774TIP3    H253814   2.617   0.713  16.994 -0.3417  0.2591 -0.0998
10775TIP3   OH253815   2.544   1.916   6.164  0.1147  0.2740  0.2863
10775TIP3    H153816   2.603   1.974   6.212 -1.6911  1.7012  0.8703
10775TIP3    H253817   2.478   1.890   6.227 -1.5048  1.0250 -1.0226
10776TIP3   OH253818   0.328   0.961   4.254  0.4028 -0.3069  0.0070
10776TIP3    H153819   0.256   0.973   4.317 -0.2396 -1.6911 -0.4235
10776TIP3    H253820   0.364   0.875   4.276  2.6174  0.7699  0.8608
10777TIP3   OH253821   6.581   2.380  14.481  0.0276  0.5061 -0.5710
10777TIP3    H153822   6.527   2.345  14.411 -0.4165  0.5896 -0.2754
10777TIP3    H253823   6.642   2.309  14.502 -0.4634  0.1316 -0.3898
10778TIP3   OH253824   3.976   0.288  11.245 -0.3396 -0.6031 -0.2597
10778TIP3    H153825   4.052   0.267  11.299 -1.5727  1.1036  2.3369
10778TIP3    H253826   3.948   0.374  11.276 -2.3986 -0.4876 -2.2286
10779TIP3   OH253827   0.668   4.838   1.058  0.7103  0.0535  0.6755
10779TIP3    H153828   0.694   4.893   0.984 -1.0545  0.1264  0.0659
10779TIP3    H253829   0.610   4.893   1.110  1.6268 -0.1259  1.9426
10780TIP3   OH253830   2.164   2.155  15.044  0.5059  0.4845 -0.5101
10780TIP3    H153831   2.103   2.208  14.992 -0.7052  0.7656  1.1195
10780TIP3    H253832   2.112   2.123  15.117  0.4375 -5.0314 -2.5114
10781TIP3   OH253833   3.600   1.407  11.368  0.5815  0.1472  0.4668
10781TIP3    H153834   3.661   1.334  11.367  0.3535 -0.0451 -0.4506
10781TIP3    H253835   3.651   1.482  11.339  0.5215  0.1061  0.2560
10782TIP3   OH253836   0.302   6.819   6.495 -0.2507  0.2388  0.7683
10782TIP3    H153837   0.301   6.889   6.430 -1.7823  0.0831  0.5945
10782TIP3    H253838   0.310   6.739   6.443 -0.7291  0.1586  0.8155
10783TIP3   OH253839   4.431   5.897   5.976 -0.0149  0.3324  0.0224
10783TIP3    H153840   4.341   5.918   5.954  0.5758  0.3177 -2.8683
10783TIP3    H253841   4.474   5.982   5.987 -0.2445  0.3496  0.8068
10784TIP3   OH253842   4.005   2.037   1.115 -0.3372 -0.0404  0.0169
10784TIP3    H153843   3.918   2.002   1.132 -0.2765 -1.0315 -1.5857
10784TIP3    H253844   4.007   2.054   1.021  0.9972  0.5615  0.1296
10785TIP3   OH253845   0.182   5.924   4.634  0.3217 -0.1471  0.4905
10785TIP3    H153846   0.238   5.906   4.559 -0.7500  0.5852 -0.5365
10785TIP3    H253847   0.139   5.840   4.653  0.6478 -0.3507  0.3303
10786TIP3   OH253848   6.416   5.699  13.099  0.2950  0.2409  0.4406
10786TIP3    H153849   6.442   5.657  13.018 -0.2750 -0.1522  0.4516
10786TIP3    H253850   6.388   5.787  13.074 -1.8683 -0.5323 -0.1362
10787TIP3   OH253851   1.573   5.988   2.691 -0.1023 -0.7033  0.0155
10787TIP3    H153852   1.555   6.051   2.622 -0.0265 -0.9598 -0.2402
10787TIP3    H253853   1.581   6.041   2.770 -1.5820 -0.5419  0.0852
10788TIP3   OH253854   6.643   3.999  11.138 -0.3086  0.1112 -0.0373
10788TIP3    H153855   6.599   4.055  11.075  1.1472  0.8980 -0.3892
10788TIP3    H253856   6.624   3.910  11.109 -0.8215  0.4456 -0.7501
10789TIP3   OH253857   2.755   3.888   1.205 -0.0298 -0.4228  0.3945
10789TIP3    H153858   2.800   3.867   1.123  0.1575  0.7488  0.1776
10789TIP3    H253859   2.814   3.948   1.250 -0.6933 -0.0675  0.8076
10790TIP3   OH253860   0.944   1.531   3.057 -0.4847  0.1168 -0.0571
10790TIP3    H153861   0.853   1.535   3.085 -0.3257  1.2406  0.3599
10790TIP3    H253862   0.993   1.517   3.139 -0.2261  0.4946 -0.1420
10791TIP3   OH253863   4.907   0.166  14.396 -0.1559  0.2801 -0.5058
10791TIP3    H153864   4.982   0.225  14.391 -0.4941  0.8316  0.5536
10791TIP3    H253865   4.831   0.223  14.406 -0.5954 -0.3054 -0.4123
10792TIP3   OH253866   3.507   2.083   3.540  0.0062  0.9834 -0.1612
10792TIP3    H153867   3.564   2.071   3.616 -0.4670  4.6503  0.9710
10792TIP3    H253868   3.458   2.001   3.533 -0.0045  0.5053  3.5796
10793TIP3   OH253869   2.208   5.666  14.734  0.5704  0.2188  0.2621
10793TIP3    H153870   2.295   5.696  14.706  0.9788 -0.1467  1.0926
10793TIP3    H253871   2.172   5.740  14.783  0.3449  0.4266 -0.2127
10794TIP3   OH253872   3.755   0.799  11.135  0.5668  0.0041  0.4496
10794TIP3    H153873   3.816   0.748  11.082 -0.5996  0.4393 -1.3993
10794TIP3    H253874   3.717   0.735  11.195  1.0901 -0.7395  0.0117
10795TIP3   OH253875   6.134   2.914   2.522 -0.6184  0.0737  0.3982
10795TIP3    H153876   6.163   2.918   2.431  0.3483 -1.0021  0.6425
10795TIP3    H253877   6.086   2.996   2.535 -1.2602  0.0026 -1.2303
10796TIP3   OH253878   0.942   0.400  14.993 -0.3903  0.3709 -0.2279
10796TIP3    H153879   0.941   0.475  15.053 -1.4508  1.9412 -2.0989
10796TIP3    H253880   0.854   0.363  15.001  0.3734 -1.2778  1.2990
10797TIP3   OH253881   6.348   4.033   2.710  0.4780  0.7037 -0.8180
10797TIP3    H153882   6.262   4.058   2.676 -0.3200 -3.9384 -2.9709
10797TIP3    H253883   6.405   4.031   2.633  1.6796  0.6739  0.0444
10798TIP3   OH253884   3.471   2.934   2.180  0.4458  0.0520  0.1642
10798TIP3    H153885   3.535   2.988   2.133  2.1300  0.0809  2.3651
10798TIP3    H253886   3.404   2.996   2.208  0.0186  0.2157 -1.1233
10799TIP3   OH253887   5.888   1.986   5.309  0.7750  0.2991 -0.4318
10799TIP3    H153888   5.879   2.001   5.215 -2.4374  0.7050 -0.1742
10799TIP3    H253889   5.845   2.061   5.350 -0.6226 -1.3145  1.2441
10800TIP3   OH253890   6.445   4.450   5.801  0.4653 -0.3306  0.4992
10800TIP3    H153891   6.534   4.428   5.828  0.5154  0.2358  0.8121
10800TIP3    H253892   6.456   4.507   5.725  0.3682 -0.4145  0.4224
10801TIP3   OH253893   5.720   3.206  15.542 -0.0264  0.2878  0.2581
10801TIP3    H153894   5.692   3.297  15.546  2.1105  1.0926 -0.9581
10801TIP3    H253895   5.801   3.209  15.490 -0.6316 -2.4922 -1.0160
10802TIP3   OH253896   0.890   4.442  15.925 -0.2997  0.1605  0.0265
10802TIP3    H153897   0.826   4.475  15.988  0.2096 -0.5141  0.9314
10802TIP3    H253898   0.864   4.351  15.909 -0.0029  0.1053 -0.1633
10803TIP3   OH253899   3.238   0.055   4.065  0.1248 -0.5393  0.0470
10803TIP3    H153900   3.174   0.079   4.132 -0.6005 -1.9117 -0.1059
10803TIP3    H253901   3.187   0.052   3.983  0.0819 -2.6905  0.0867
10804TIP3   OH253902   5.241   2.668  15.500 -0.3467 -0.0105 -0.2995
10804TIP3    H153903   5.281   2.725  15.565 -0.0092  0.3832 -0.8476
10804TIP3    H253904   5.271   2.580  15.523 -0.9579  0.0052  0.6113
10805TIP3   OH253905   0.902   1.715   2.574  0.5391 -0.2097 -0.1323
10805TIP3    H153906   0.912   1.712   2.479  0.1709  2.6132 -0.3535
10805TIP3    H253907   0.991   1.713   2.608  0.7304 -0.1049 -0.6230
10806TIP3   OH253908   2.590   1.255   0.573 -0.3865  0.8039  0.2491
10806TIP3    H153909   2.652   1.183   0.587 -1.3279  0.4623  3.3262
10806TIP3    H253910   2.514   1.231   0.627 -2.1773  2.4410 -1.4151
10807TIP3   OH253911   2.820   1.933  15.387 -0.1517  0.3124 -0.0867
10807TIP3    H153912   2.734   1.919  15.427 -0.4635  1.8581 -0.1815
10807TIP3    H253913   2.851   1.844  15.368 -0.8091 -0.4056  1.8433
10808TIP3   OH253914   3.507   1.919  14.228 -0.2729 -0.4364 -0.2566
10808TIP3    H153915   3.465   1.884  14.306  0.3695  0.0344  0.3224
10808TIP3    H253916   3.436   1.959  14.178 -0.6689 -0.5752  0.1877
10809TIP3   OH253917   1.375   2.711   0.859  0.6475  0.2039  0.4156
10809TIP3    H153918   1.326   2.675   0.933  0.7867  0.0702  0.4447
10809TIP3    H253919   1.395   2.634   0.805 -0.8226  0.4737 -0.5940
10810TIP3   OH253920   1.113   5.559   4.632 -0.1230 -0.2981 -0.1924
10810TIP3    H153921   1.136   5.492   4.567  1.9715 -0.8387  1.0397
10810TIP3    H253922   1.132   5.519   4.716 -0.4366  1.2771  0.6628
10811TIP3   OH253923   1.358   1.848  15.418  0.1868  0.4514 -0.0311
10811TIP3    H153924   1.354   1.943  15.407 -0.0327  0.3200 -1.1381
10811TIP3    H253925   1.434   1.834  15.475 -0.3762  1.3409  0.9852
10812TIP3   OH253926   4.220   1.035   3.074  0.2080  0.5416  0.3666
10812TIP3    H153927   4.311   1.042   3.043  0.3638 -0.4009  0.5788
10812TIP3    H253928   4.168   1.075   3.004  0.7639  0.7889  0.0870
10813TIP3   OH253929   6.793   5.258  11.611 -0.0385 -0.0500 -0.1147
10813TIP3    H153930   6.805   5.270  11.706  0.6660 -0.8421 -0.0945
10813TIP3    H253931   6.871   5.211  11.583 -0.3639 -0.0445 -1.0557
10814TIP3   OH253932   4.395   6.458   4.812  0.4016  0.2582 -0.2143
10814TIP3    H153933   4.418   6.365   4.810  0.2091  0.2218 -1.0601
10814TIP3    H253934   4.315   6.462   4.864 -0.0898 -0.1740 -0.9088
10815TIP3   OH253935   2.827   5.220   0.597 -0.0913 -0.4308  0.1561
10815TIP3    H153936   2.839   5.255   0.685 -1.4020 -0.8482  0.5165
10815TIP3    H253937   2.784   5.136   0.609  1.9659 -1.7099 -0.7659
10816TIP3   OH253938   5.899   2.659  12.584  0.1264  0.8569  0.0016
10816TIP3    H153939   5.933   2.636  12.497 -0.7374 -0.5550  0.0040
10816TIP3    H253940   5.972   2.644  12.643 -0.3467 -2.0609 -0.0015
10817TIP3   OH253941   2.930   4.451   2.978  0.3430 -0.1519 -0.4922
10817TIP3    H153942   2.941   4.544   2.962 -3.3740  0.3172 -1.2634
10817TIP3    H253943   2.897   4.416   2.895  1.3650 -2.1431 -0.1333
10818TIP3   OH253944   3.435   4.610   5.490  0.0017  0.1076 -0.7549
10818TIP3    H153945   3.424   4.610   5.395 -1.7765  0.1623 -0.5756
10818TIP3    H253946   3.369   4.549   5.522  0.4001  0.2898  0.4780
10819TIP3   OH253947   3.305   4.058  10.382 -0.4705 -0.5082 -0.3406
10819TIP3    H153948   3.342   3.989  10.327  1.7363 -0.0944  0.5132
10819TIP3    H253949   3.304   4.020  10.470  0.5028  0.4127  0.0896
10820TIP3   OH253950   4.577   3.349   1.773 -0.3972 -0.1136  0.3711
10820TIP3    H153951   4.615   3.427   1.732  0.9216 -1.2609 -0.6771
10820TIP3    H253952   4.587   3.364   1.867  0.2647  0.7781  0.1714
10821TIP3   OH253953   2.712   2.311  12.653  0.0376 -0.1060  0.1223
10821TIP3    H153954   2.755   2.307  12.739  0.8659  1.6242 -0.1570
10821TIP3    H253955   2.693   2.220  12.631  0.8390 -0.6789  1.6331
10822TIP3   OH253956   6.011   4.797  12.865 -0.3092  0.5845 -0.6196
10822TIP3    H153957   5.979   4.781  12.954 -2.6422 -1.5775 -1.7297
10822TIP3    H253958   6.007   4.892  12.855  0.6794  0.9715  1.7406
10823TIP3   OH253959   3.935   2.606  16.517 -0.2246 -0.2441  0.2804
10823TIP3    H153960   4.013   2.620  16.464  0.0015 -0.2048  0.6228
10823TIP3    H253961   3.892   2.530  16.476  0.3733 -0.7236  0.5275
10824TIP3   OH253962   5.757   2.906   4.765  0.6942 -0.5641  0.0030
10824TIP3    H153963   5.707   2.894   4.846  1.1877  0.6406  0.5117
10824TIP3    H253964   5.791   2.995   4.771 -0.7411  0.2415 -2.3609
10825TIP3   OH253965   0.718   4.197   0.665 -0.3775 -0.3169 -0.3515
10825TIP3    H153966   0.681   4.254   0.732  1.3380  1.3032 -0.6772
10825TIP3    H253967   0.682   4.111   0.684  0.7068 -0.1451  3.2606
10826TIP3   OH253968   5.973   4.143  11.731 -0.1734 -0.4922  0.2137
10826TIP3    H153969   6.053   4.172  11.688  0.6200 -2.0400  0.5523
10826TIP3    H253970   6.003   4.079  11.796 -1.7036 -1.3958  0.0768
10827TIP3   OH253971   6.369   6.486  10.791  0.8063  0.1804 -0.4315
10827TIP3    H153972   6.285   6.516  10.757  1.0990 -1.2022 -2.5876
10827TIP3    H253973   6.423   6.565  10.795 -0.4840  1.0437  0.7664
10828TIP3   OH253974   4.500   1.945  10.923 -0.1220 -0.7231 -0.1708
10828TIP3    H153975   4.572   1.952  10.861 -1.2834  0.4441 -1.4367
10828TIP3    H253976   4.428   1.993  10.883 -1.4229 -1.2960  1.3532
10829TIP3   OH253977   4.082   6.239  15.331 -0.6713 -0.7428  0.1427
10829TIP3    H153978   4.088   6.235  15.235 -2.2965  0.3053 -0.0594
10829TIP3    H253979   4.008   6.182  15.352 -0.3588 -0.9206  0.7646
10830TIP3   OH253980   2.314   4.535  15.137 -0.1414 -0.4053 -0.1963
10830TIP3    H153981   2.406   4.538  15.163 -0.8893  0.7862  2.8266
10830TIP3    H253982   2.313   4.561  15.045  2.5083 -0.2448 -0.2375
10831TIP3   OH253983   2.387   6.810   6.506  0.1263 -0.1907  0.3346
10831TIP3    H153984   2.470   6.770   6.533  0.4222  0.3015  0.1688
10831TIP3    H253985   2.325   6.787   6.576  0.9840  1.4645  1.7270
10832TIP3   OH253986   4.722   5.143   1.597 -0.1813  0.2280 -0.5176
10832TIP3    H153987   4.800   5.114   1.643 -1.1259 -1.4360  0.1222
10832TIP3    H253988   4.695   5.223   1.642 -0.8179 -1.1019  1.5904
10833TIP3   OH253989   3.357   6.552   5.663 -0.0164  0.1347 -0.2594
10833TIP3    H153990   3.368   6.469   5.709  1.2821  0.5589  0.2365
10833TIP3    H253991   3.263   6.557   5.644 -0.2950 -0.8685  0.7848
10834TIP3   OH253992   0.539   2.135   1.893  0.3591 -0.1140  0.0960
10834TIP3    H153993   0.588   2.148   1.974  1.3465  0.1502 -0.5270
10834TIP3    H253994   0.606   2.115   1.827 -0.5184 -1.6261 -0.4021
10835TIP3   OH253995   4.936   3.169  16.170  0.4438  0.1644  0.5927
10835TIP3    H153996   4.885   3.098  16.130  1.0478 -0.2562  0.5605
10835TIP3    H253997   4.878   3.205  16.238  0.4995 -1.0092  1.2790
10836TIP3   OH253998   6.526   2.884   0.979 -0.4340 -0.0829  0.3826
10836TIP3    H153999   6.543   2.920   0.892 -0.7142 -0.5669  0.1292
10836TIP3    H254000   6.605   2.833   0.999 -0.6052 -0.4315  0.1756
10837TIP3   OH254001   2.204   1.254   2.067 -0.5414  0.0443 -0.6275
10837TIP3    H154002   2.141   1.222   2.132 -1.2910  0.2127 -1.2520
10837TIP3    H254003   2.288   1.216   2.093 -0.9136 -0.2355  0.1829
10838TIP3   OH254004   6.007   4.885  15.699 -0.0338  1.2681  0.0925
10838TIP3    H154005   5.971   4.952  15.640  0.1603 -0.0218 -1.5533
10838TIP3    H254006   6.059   4.935  15.762  0.1742  2.6873 -1.1305
10839TIP3   OH254007   5.445   1.298   3.556  0.0513 -0.0344 -0.0450
10839TIP3    H154008   5.521   1.244   3.533  0.8427  0.4728  1.3039
10839TIP3    H254009   5.372   1.237   3.555  0.7145 -0.8558  0.0904
10840TIP3   OH254010   6.177   2.511   3.570 -0.3662  0.0234 -0.0924
10840TIP3    H154011   6.158   2.604   3.566  1.7690  0.7496  2.9631
10840TIP3    H254012   6.098   2.471   3.604 -0.0910  1.3801  2.3431
10841TIP3   OH254013   0.226   2.697   6.296  0.6632  0.5271  0.1286
10841TIP3    H154014   0.155   2.652   6.341  1.2128  0.1201  0.6137
10841TIP3    H254015   0.305   2.669   6.343  1.3979 -0.8880 -1.7803
10842TIP3   OH254016   1.897   1.451   4.993  0.1957 -0.0331 -0.1900
10842TIP3    H154017   1.863   1.428   5.079  2.2539 -1.4190  0.3303
10842TIP3    H254018   1.878   1.374   4.939  0.7116  0.0027 -0.4225
10843TIP3   OH254019   0.248   2.333   0.603 -0.6482  0.3314 -0.1637
10843TIP3    H154020   0.250   2.368   0.693 -0.4817  0.0902 -0.0728
10843TIP3    H254021   0.291   2.248   0.610 -2.0886 -0.4150 -0.1539
10844TIP3   OH254022   6.771   4.242   1.544  0.1920 -0.5218  0.3560
10844TIP3    H154023   6.736   4.303   1.610  1.2836  0.2581  0.2456
10844TIP3    H254024   6.792   4.298   1.469 -2.6891 -1.6154 -1.4170
10845TIP3   OH254025   0.013   0.643  15.433 -0.1362 -0.5415  0.2932
10845TIP3    H154026  -0.049   0.715  15.421 -0.0537 -0.9066 -3.6133
10845TIP3    H254027   0.099   0.682  15.416  0.0501 -1.2331 -0.3940
10846TIP3   OH254028   1.506   3.887   3.708  0.9162  0.4755 -1.1922
10846TIP3    H154029   1.470   3.878   3.796  1.0876 -1.4906 -1.2923
10846TIP3    H254030   1.583   3.942   3.719  0.3136  1.1658 -0.3078
10847TIP3   OH254031   2.254   6.691   3.296 -0.1754  0.2724  0.2463
10847TIP3    H154032   2.346   6.718   3.297  0.3501 -1.3134  2.3151
10847TIP3    H254033   2.209   6.758   3.347 -0.1035  0.7779 -0.3373
10848TIP3   OH254034   1.364   6.448   4.480 -0.2274 -0.1274 -0.1026
10848TIP3    H154035   1.297   6.482   4.539  1.9657  1.7781  1.4904
10848TIP3    H254036   1.435   6.512   4.486  2.5188 -2.9535 -0.2269
10849TIP3   OH254037   0.164   3.860  12.612  1.1415 -0.2551  0.2224
10849TIP3    H154038   0.071   3.839  12.603  0.9472 -1.0452  3.0477
10849TIP3    H254039   0.186   3.905  12.531 -2.0983  1.3952  0.0707
10850TIP3   OH254040   2.746   2.486   5.379  0.0300  0.0821  0.1200
10850TIP3    H154041   2.662   2.458   5.416 -0.4087  1.2664  0.0651
10850TIP3    H254042   2.739   2.469   5.285  0.2297 -0.7066  0.2408
10851TIP3   OH254043   6.174   0.463  15.570 -0.3715  0.5390 -0.4104
10851TIP3    H154044   6.118   0.385  15.566  0.6758 -0.2473 -0.1879
10851TIP3    H254045   6.115   0.534  15.593 -1.1242 -0.4302  0.7433
10852TIP3   OH254046   1.177   3.914   4.530  0.6633  0.3142 -0.1453
10852TIP3    H154047   1.223   3.896   4.448  1.8123 -0.0270  0.5537
10852TIP3    H254048   1.203   3.843   4.589  1.6954  1.7694  1.2417
10853TIP3   OH254049   1.011   0.251  11.050 -0.3744  0.5450  0.4804
10853TIP3    H154050   1.045   0.238  10.962 -1.4591 -1.0841  0.2634
10853TIP3    H254051   0.944   0.319  11.040 -0.0275  0.8538  0.1949
10854TIP3   OH254052   0.538   4.582  13.688 -0.2388 -0.0210 -0.0711
10854TIP3    H154053   0.469   4.527  13.650  0.4566 -1.9822  1.3256
10854TIP3    H254054   0.596   4.602  13.614 -0.2360 -1.6466 -0.5517
10855TIP3   OH254055   4.212   6.750  12.785 -0.7831  0.0435 -0.0349
10855TIP3    H154056   4.144   6.792  12.836 -1.7486 -0.8455 -0.5551
10855TIP3    H254057   4.212   6.659  12.814 -1.3429 -0.4770 -1.5636
10856TIP3   OH254058   2.732   3.623  14.279  0.4356 -0.3559  0.0783
10856TIP3    H154059   2.730   3.604  14.372  1.0348 -0.7911  0.0076
10856TIP3    H254060   2.679   3.703  14.269 -2.6075 -2.1984  0.3118
10857TIP3   OH254061   1.009   1.989  13.749 -0.5865  0.2268 -0.2846
10857TIP3    H154062   1.039   2.031  13.830  0.2462 -0.1995 -0.3583
10857TIP3    H254063   1.081   2.002  13.687 -0.7111 -0.4859 -0.5863
10858TIP3   OH254064   0.860   4.475   5.447 -0.1713  0.4682  0.0571
10858TIP3    H154065   0.949   4.441   5.437 -0.1232  0.6933 -0.3107
10858TIP3    H254066   0.845   4.526   5.367 -0.1204  1.5720  0.7305
10859TIP3   OH254067   0.828   2.684   5.988  0.5436 -0.6917  0.3779
10859TIP3    H154068   0.861   2.769   5.957 -0.6984 -0.4647 -0.3692
10859TIP3    H254069   0.874   2.670   6.071 -0.0962  1.2766  1.1108
10860TIP3   OH254070   2.117   6.434  16.600  0.6054  0.3290  0.6875
10860TIP3    H154071   2.140   6.373  16.530  0.0233 -0.2069  0.9482
10860TIP3    H254072   2.045   6.486  16.564 -1.5660 -1.7425  1.7511
10861TIP3   OH254073   0.998   1.502   5.337 -0.1562 -0.1804 -0.0048
10861TIP3    H154074   1.024   1.411   5.329 -2.2738 -0.9050  0.5281
10861TIP3    H254075   0.968   1.527   5.249  0.7436  0.1219 -0.2304
10862TIP3   OH254076   3.986   1.614   5.707 -0.2768 -0.2203 -0.0621
10862TIP3    H154077   4.043   1.561   5.762 -1.7710 -0.9664  0.8333
10862TIP3    H254078   4.046   1.667   5.653  1.2260 -1.4347  0.3612
10863TIP3   OH254079   1.104   2.206  12.646 -0.4105 -0.0820 -0.1355
10863TIP3    H154080   1.152   2.158  12.714 -1.3302  0.1967  0.7461
10863TIP3    H254081   1.019   2.162  12.643 -0.7055  0.5074 -0.4457
10864TIP3   OH254082   2.928   0.897   4.618 -0.2057 -0.1803 -0.4715
10864TIP3    H154083   2.834   0.882   4.618 -0.1856 -0.3209 -0.1904
10864TIP3    H254084   2.963   0.834   4.556 -0.1716 -0.9925  0.3493
10865TIP3   OH254085   3.312   3.611   1.825 -0.8478  0.2655  0.0504
10865TIP3    H154086   3.361   3.646   1.899 -2.6207 -0.0437  1.4586
10865TIP3    H254087   3.289   3.522   1.852 -0.1294 -0.4529 -1.5969
10866TIP3   OH254088   3.132   5.150   0.231  0.1421 -0.1723  0.1311
10866TIP3    H154089   3.162   5.203   0.157  1.7577 -1.8099 -0.4708
10866TIP3    H254090   3.211   5.131   0.281 -0.6875 -0.4307  1.4043
10867TIP3   OH254091   1.148   5.793   0.836 -0.1336  0.1310  1.3246
10867TIP3    H154092   1.191   5.715   0.871 -0.1205 -0.2850  0.4045
10867TIP3    H254093   1.101   5.762   0.759 -1.8226  0.6445  2.1073
10868TIP3   OH254094   1.036   0.588  16.268 -0.4010  0.1287 -0.2124
10868TIP3    H154095   1.046   0.668  16.319  0.8161 -0.4773  0.5221
10868TIP3    H254096   1.101   0.596  16.198 -1.0534  0.2858 -0.8104
10869TIP3   OH254097   2.466   6.023   5.470  0.1065  0.3641  0.0013
10869TIP3    H154098   2.456   6.047   5.378 -1.6243 -0.3170 -0.0398
10869TIP3    H254099   2.428   5.935   5.476 -1.8604  1.2247  1.7185
10870TIP3   OH254100   6.433   5.144  14.352  0.1446 -0.2541  0.3719
10870TIP3    H154101   6.357   5.170  14.300 -0.1652  0.4784  1.1650
10870TIP3    H254102   6.491   5.221  14.350  1.1342 -1.0095 -0.6976
10871TIP3   OH254103   5.166   6.144   4.705 -0.6771 -0.0720 -0.2176
10871TIP3    H154104   5.158   6.062   4.655 -0.6405  0.7019 -1.5475
10871TIP3    H254105   5.245   6.132   4.758 -1.2970 -1.3268  0.4827
10872TIP3   OH254106   2.817   3.797   2.061 -0.4686  0.4828 -0.0408
10872TIP3    H154107   2.731   3.804   2.101  0.4072 -1.3531  2.4049
10872TIP3    H254108   2.834   3.703   2.055  1.5701  0.7867  0.0660
10873TIP3   OH254109   6.535   3.477  13.740 -0.3648  0.1930  0.6850
10873TIP3    H154110   6.612   3.500  13.793 -2.0393  1.3131  2.7967
10873TIP3    H254111   6.522   3.384  13.757 -0.2064  0.2864  1.3853
10874TIP3   OH254112   6.649   6.735  12.541 -0.4247 -0.2864  0.5319
10874TIP3    H154113   6.583   6.679  12.500 -0.6537 -0.3837  1.0346
10874TIP3    H254114   6.726   6.679  12.550 -1.0581 -0.9485  2.2498
10875TIP3   OH254115   5.624   1.656   4.378 -0.0749 -0.1235  0.0844
10875TIP3    H154116   5.619   1.730   4.439 -0.3634 -0.3576  0.3534
10875TIP3    H254117   5.537   1.616   4.383 -0.3969  0.3709 -1.1528
10876TIP3   OH254118   5.335   3.244  14.468 -0.1400  0.4807 -0.3387
10876TIP3    H154119   5.339   3.333  14.504 -3.0032  1.1243 -1.3786
10876TIP3    H254120   5.358   3.255  14.376 -0.7903  0.2077 -0.5354
10877TIP3   OH254121   4.067   1.169  11.340  0.1951 -0.4342 -0.0821
10877TIP3    H154122   3.972   1.179  11.336  0.0185 -0.7697  2.2738
10877TIP3    H254123   4.081   1.090  11.393  1.8075 -0.2900 -0.2266
10878TIP3   OH254124   0.661   2.914  10.285 -0.3444  0.4614 -0.2104
10878TIP3    H154125   0.662   2.894  10.191  0.6460  1.5743 -0.4591
10878TIP3    H254126   0.662   3.010  10.289  1.0618  0.4329  0.9151
10879TIP3   OH254127   4.483   1.110  13.198  0.2548  0.1250 -0.5225
10879TIP3    H154128   4.540   1.125  13.122 -0.5897 -0.3064 -1.2604
10879TIP3    H254129   4.450   1.021  13.186  1.5298 -0.6701  1.3311
10880TIP3   OH254130   2.147   0.246   2.310  0.0043 -0.2279  0.1970
10880TIP3    H154131   2.138   0.201   2.394 -1.9648 -0.0335  0.1385
10880TIP3    H254132   2.080   0.206   2.254  0.7883  0.1532 -1.0695
10881TIP3   OH254133   6.403   5.891  15.028 -0.3183  0.2152 -0.1237
10881TIP3    H154134   6.474   5.954  15.025 -0.3576  0.2553 -0.2207
10881TIP3    H254135   6.407   5.854  15.116  0.3481 -0.3913 -0.4021
10882TIP3   OH254136   6.268   0.493  15.248  0.2193  0.0088  0.7254
10882TIP3    H154137   6.336   0.523  15.309 -0.0127  2.2334 -0.0066
10882TIP3    H254138   6.220   0.426  15.296  1.8564 -0.4003  1.8773
10883TIP3   OH254139   2.753   6.480  14.507  0.3034 -0.1398 -0.1417
10883TIP3    H154140   2.805   6.535  14.566  0.7283  0.3744 -0.9828
10883TIP3    H254141   2.794   6.394  14.513  1.2047  0.2306 -0.7058
10884TIP3   OH254142   6.434   3.482  11.363 -0.4537  0.4025 -0.4138
10884TIP3    H154143   6.516   3.462  11.318 -0.6545 -0.2347 -0.5042
10884TIP3    H254144   6.382   3.529  11.297 -1.2294 -1.5982 -1.3037
10885TIP3   OH254145   4.047   0.047   2.475 -0.2496  0.1307  0.1567
10885TIP3    H154146   4.036   0.079   2.565 -2.1362  0.6441 -0.2128
10885TIP3    H254147   4.005  -0.039   2.475 -1.9446  0.9265 -0.6537
10886TIP3   OH254148   3.922   2.201   4.991  0.6658 -0.3163 -0.2088
10886TIP3    H154149   3.843   2.244   4.957  0.1157 -2.5638 -1.9772
10886TIP3    H254150   3.987   2.272   4.997 -0.6653  1.0791 -1.4303
10887TIP3   OH254151   5.062   5.536   3.659 -0.1107  0.2080  0.4413
10887TIP3    H154152   5.078   5.565   3.569 -0.1796  0.8477  0.6289
10887TIP3    H254153   4.995   5.596   3.692  0.1813  0.2122  1.0388
10888TIP3   OH254154   3.075   6.431   3.021 -0.8711  0.7017  0.3319
10888TIP3    H154155   3.075   6.340   3.051 -2.4757  1.1160  1.7433
10888TIP3    H254156   3.003   6.434   2.958 -1.3575  1.1609  0.8998
10889TIP3   OH254157   4.286   1.505   2.390  0.4094  0.1712 -0.2425
10889TIP3    H154158   4.344   1.483   2.463  2.6792  1.7848 -1.4411
10889TIP3    H254159   4.254   1.421   2.358  0.2425 -0.6294  1.8706
10890TIP3   OH254160   3.256   4.085  11.856 -0.1151  0.0075 -0.1288
10890TIP3    H154161   3.224   4.175  11.861  3.2160  1.3480 -0.5420
10890TIP3    H254162   3.246   4.061  11.764  0.3424  0.5192 -0.3140
10891TIP3   OH254163   6.259   4.238   5.756 -0.3542  0.0391 -0.0744
10891TIP3    H154164   6.292   4.299   5.822 -4.6517  3.2384 -0.4593
10891TIP3    H254165   6.294   4.271   5.673 -0.2646  0.1085 -0.0092
10892TIP3   OH254166   4.309   1.804  10.726  0.1882  1.0810 -0.1675
10892TIP3    H154167   4.229   1.795  10.674  0.7977 -1.6453 -0.7546
10892TIP3    H254168   4.378   1.821  10.661  0.5421  0.3539  0.0114
10893TIP3   OH254169   3.641   0.867  14.625  0.1774  0.3620 -0.3930
10893TIP3    H154170   3.574   0.831  14.567  0.2646  2.5475 -1.9822
10893TIP3    H254171   3.722   0.825  14.596 -0.2625 -1.3253  0.6835
10894TIP3   OH254172   5.752   3.364  11.737 -0.1033 -0.3371 -0.5490
10894TIP3    H154173   5.846   3.351  11.731 -0.1141 -0.1377 -1.3270
10894TIP3    H254174   5.733   3.430  11.670 -0.8789 -0.8255 -0.8176
10895TIP3   OH254175   5.215   5.980  12.162  0.4311 -0.6115 -0.1451
10895TIP3    H154176   5.241   5.925  12.089  0.4957 -0.5986 -0.1322
10895TIP3    H254177   5.273   6.057  12.156 -0.1483 -0.2072 -0.5866
10896TIP3   OH254178   6.203   5.300   3.884 -0.2311 -0.2313  0.8731
10896TIP3    H154179   6.220   5.282   3.977 -1.1447  0.0897  1.1128
10896TIP3    H254180   6.253   5.380   3.866  0.0101 -0.3376  1.0743
10897TIP3   OH254181   6.700   5.809  15.116 -0.0281 -0.5823 -0.4711
10897TIP3    H154182   6.731   5.840  15.031  1.0130  0.8210  0.3840
10897TIP3    H254183   6.760   5.848  15.179 -2.6060  1.0804  1.1646
10898TIP3   OH254184   2.323   2.878  16.515  0.3718 -0.4814 -0.0417
10898TIP3    H154185   2.351   2.791  16.547  0.6481 -1.1284 -1.9438
10898TIP3    H254186   2.233   2.886  16.546  0.1141 -1.7430 -0.3841
10899TIP3   OH254187   3.106   0.056  15.899 -0.4998 -0.9894  0.6110
10899TIP3    H154188   3.141   0.070  15.987  1.7984  1.7685 -0.5833
10899TIP3    H254189   3.011   0.045  15.912 -0.3792  0.3784  3.3199
10900TIP3   OH254190   3.881   2.046   4.565  0.4147 -0.1564 -0.5053
10900TIP3    H154191   3.932   2.011   4.638 -1.5351  2.4972  2.3629
10900TIP3    H254192   3.936   2.114   4.527  1.3882 -1.4657 -1.5138
10901TIP3   OH254193   3.146   2.052  15.678  0.0824  0.3389  0.0684
10901TIP3    H154194   3.177   1.986  15.616 -0.9264 -0.8885  0.8204
10901TIP3    H254195   3.218   2.062  15.741 -0.7553 -2.2401  1.6149
10902TIP3   OH254196   3.118   1.464   2.471  0.0835 -0.0646 -0.8061
10902TIP3    H154197   3.035   1.439   2.432 -0.1391  0.4141 -0.6511
10902TIP3    H254198   3.184   1.434   2.408 -0.1305 -1.4453 -0.4034
10903TIP3   OH254199   3.345   0.356   4.756 -0.3156  0.0661  0.2228
10903TIP3    H154200   3.308   0.389   4.838 -1.1622 -0.2048 -0.0336
10903TIP3    H254201   3.437   0.379   4.760  0.0004 -1.2774  1.9484
10904TIP3   OH254202   5.098   2.955  15.691 -0.0060  0.1964 -0.2512
10904TIP3    H154203   5.193   2.960  15.691  0.0705  0.6517  2.9169
10904TIP3    H254204   5.078   2.871  15.732 -0.9796  0.1915 -0.7084
10905TIP3   OH254205   6.638   5.464  16.896  0.2035 -0.1846  0.7330
10905TIP3    H154206   6.701   5.392  16.901  1.2532  0.7955  2.9407
10905TIP3    H254207   6.583   5.453  16.974  0.0475  1.0700  0.8288
10906TIP3   OH254208   0.298   4.262  11.019  0.4852  0.3961  0.3271
10906TIP3    H154209   0.325   4.310  10.941  0.3209 -1.1078 -0.6878
10906TIP3    H254210   0.204   4.250  11.009  0.2533  1.1479  1.3341
10907TIP3   OH254211   1.208   1.723  16.887  0.4236  0.2373  0.1875
10907TIP3    H154212   1.283   1.697  16.833 -0.2918 -0.0963 -0.6751
10907TIP3    H254213   1.138   1.662  16.862  0.1017 -0.0097  1.5954
10908TIP3   OH254214   3.809   0.532  13.678 -0.2905  0.0659  0.2831
10908TIP3    H154215   3.778   0.451  13.719 -1.8320  0.1794 -0.5847
10908TIP3    H254216   3.781   0.601  13.737  0.7865  0.0116  0.8852
10909TIP3   OH254217   0.556   5.064  12.071 -0.3604  0.2362 -0.6858
10909TIP3    H154218   0.613   4.988  12.088 -0.3671  0.5752  1.0023
10909TIP3    H254219   0.572   5.085  11.979  0.7293 -0.9231 -0.7976
10910TIP3   OH254220   2.363   2.624  12.267 -0.0348 -0.3200  0.8904
10910TIP3    H154221   2.382   2.571  12.190  0.5491 -0.4585  1.1210
10910TIP3    H254222   2.292   2.577  12.312 -0.4987 -0.1430  0.3480
10911TIP3   OH254223   5.651   6.093  16.578  0.0082 -0.4934  0.2667
10911TIP3    H154224   5.598   6.068  16.503  1.4154 -0.0610 -0.9128
10911TIP3    H254225   5.688   6.010  16.610 -0.8410 -0.7177  0.7248
10912TIP3   OH254226   0.106   1.356  12.663  0.6670 -0.1334  0.1155
10912TIP3    H154227   0.118   1.270  12.624 -2.3282 -0.7279  0.2540
10912TIP3    H254228   0.145   1.417  12.599  1.3114 -1.4545 -0.7975
10913TIP3   OH254229   0.060   4.601   0.450 -0.2651 -0.2328 -1.0743
10913TIP3    H154230   0.145   4.558   0.442  0.8004  1.9269 -2.1180
10913TIP3    H254231   0.022   4.596   0.362 -0.6622 -0.0764 -0.9156
10914TIP3   OH254232   6.549   4.092  16.554  0.2760 -0.0566 -0.3823
10914TIP3    H154233   6.560   4.187  16.542 -1.0229 -0.0692 -2.0169
10914TIP3    H254234   6.587   4.053  16.476 -1.0354 -0.7340 -0.7237
10915TIP3   OH254235   2.423   3.251  14.544  0.4614 -0.4412 -0.4973
10915TIP3    H154236   2.388   3.164  14.563  1.1175 -0.3294  1.4693
10915TIP3    H254237   2.346   3.303  14.522 -0.0122 -1.3390 -1.0590
10916TIP3   OH254238   1.273   5.140   4.480  0.7878 -0.2977 -0.7471
10916TIP3    H154239   1.191   5.105   4.515  0.9061  0.0556 -0.1146
10916TIP3    H254240   1.340   5.079   4.511  0.6257 -1.4420 -2.4945
10917TIP3   OH254241   2.138   0.051  14.944 -0.3219  0.0717  0.1636
10917TIP3    H154242   2.196  -0.024  14.933  1.1408  1.3041 -1.0188
10917TIP3    H254243   2.121   0.056  15.038  0.1514 -1.2956  0.3312
10918TIP3   OH254244   2.433   5.149   1.766 -0.6899 -0.1272 -0.3463
10918TIP3    H154245   2.420   5.057   1.741  0.1245 -0.8639  1.7212
10918TIP3    H254246   2.461   5.145   1.857  1.7134  2.0424 -0.8903
10919TIP3   OH254247   6.632   0.070  16.131 -0.1870  0.4556 -0.6381
10919TIP3    H154248   6.563   0.072  16.065 -0.2967  0.3794 -0.5255
10919TIP3    H254249   6.711   0.049  16.082 -0.3710 -0.2218 -0.6644
10920TIP3   OH254250   4.986   5.924  10.504 -0.2825 -0.5343  0.1094
10920TIP3    H154251   5.008   5.833  10.485  0.7321 -1.0643  3.3603
10920TIP3    H254252   5.066   5.972  10.487 -0.4560 -0.4057 -0.3829
10921TIP3   OH254253   2.054   6.202   0.895 -0.6862 -0.2411  0.0618
10921TIP3    H154254   1.968   6.187   0.856 -0.6024  0.8320 -0.5854
10921TIP3    H254255   2.043   6.280   0.950 -1.0849 -2.3073  3.1781
10922TIP3   OH254256   4.582   2.472   3.412 -0.2989 -0.3363 -0.5265
10922TIP3    H154257   4.646   2.442   3.476 -0.5521 -0.1721 -0.1912
10922TIP3    H254258   4.580   2.568   3.422 -1.4814 -0.4326  0.3256
10923TIP3   OH254259   0.533   0.068  16.246 -0.0608  0.0770 -1.0221
10923TIP3    H154260   0.556   0.054  16.338 -0.4535 -1.3256 -1.1176
10923TIP3    H254261   0.509   0.161  16.242 -2.2493 -0.3015  0.8109
10924TIP3   OH254262   0.449   1.030  10.743 -0.4082 -0.1801 -0.6451
10924TIP3    H154263   0.501   1.108  10.720 -0.3137  0.3518  1.1696
10924TIP3    H254264   0.512   0.958  10.743  0.2229  0.3320  0.8043
10925TIP3   OH254265   4.220   1.498   0.784 -0.2422 -0.6533  0.1824
10925TIP3    H154266   4.244   1.535   0.699  1.7421  3.1794  2.1448
10925TIP3    H254267   4.249   1.407   0.780  4.1107  0.5872 -1.7745
10926TIP3   OH254268   0.035   3.176   2.926 -0.6285  0.3483  0.2796
10926TIP3    H154269  -0.009   3.209   3.004 -0.7920  0.5339  0.1076
10926TIP3    H254270   0.056   3.085   2.948 -0.6479  0.4078  0.5508
10927TIP3   OH254271   6.095   0.220  12.505 -0.0564  0.5799  0.3409
10927TIP3    H154272   6.123   0.177  12.425  0.0756  0.3033  0.5357
10927TIP3    H254273   6.118   0.312  12.492 -1.5827  0.8572 -0.6429
10928TIP3   OH254274   2.605   6.048   4.843 -0.0307  0.3823 -0.1521
10928TIP3    H154275   2.544   5.978   4.865 -0.3705  0.2819 -1.3123
10928TIP3    H254276   2.678   6.036   4.903 -0.7145 -0.0972  0.6065
10929TIP3   OH254277   2.175   3.456  10.818 -0.3517  0.1133 -0.1333
10929TIP3    H154278   2.104   3.518  10.804 -3.8570 -3.6580 -0.7742
10929TIP3    H254279   2.213   3.444  10.731 -1.7205 -0.8185 -0.6337
10930TIP3   OH254280   1.369   5.270   1.355 -0.0767 -0.2821 -0.2714
10930TIP3    H154281   1.304   5.261   1.425  1.3053 -0.2711  1.0648
10930TIP3    H254282   1.453   5.259   1.399  0.8271 -0.6899 -2.0235
10931TIP3   OH254283   5.531   6.185   5.599  0.3493  0.8794 -0.2136
10931TIP3    H154284   5.548   6.178   5.506 -0.1217  0.6862 -0.2869
10931TIP3    H254285   5.616   6.170   5.640  1.1196  3.4840 -0.6790
10932TIP3   OH254286   3.324   3.564   2.704  0.1093 -0.0767  0.2588
10932TIP3    H154287   3.236   3.528   2.690  0.3308 -0.1023 -1.1429
10932TIP3    H254288   3.339   3.621   2.629  1.1859  0.1606  0.6360
10933TIP3   OH254289   5.406   6.343  12.906  0.2996 -0.1635  0.8972
10933TIP3    H154290   5.329   6.398  12.922 -1.7071 -2.1395 -1.2109
10933TIP3    H254291   5.427   6.359  12.814 -0.1968 -2.6066  0.2910
10934TIP3   OH254292   3.771   4.422  13.601  0.2267 -0.9197 -0.9112
10934TIP3    H154293   3.715   4.465  13.536 -0.7981 -0.2924  0.3411
10934TIP3    H254294   3.859   4.454  13.583 -0.4661  1.6012 -0.1450
10935TIP3   OH254295   2.217   1.907   1.832 -0.6875 -0.1476  0.0901
10935TIP3    H154296   2.168   1.986   1.854 -1.2798 -0.5838  0.3562
10935TIP3    H254297   2.233   1.914   1.738  1.6432  1.6041  0.5149
10936TIP3   OH254298   3.376   0.552  12.110  0.2936 -0.5205  0.2398
10936TIP3    H154299   3.452   0.521  12.062  0.3843 -2.0845  1.2886
10936TIP3    H254300   3.383   0.508  12.195 -1.0727  0.3382  0.8235
10937TIP3   OH254301   2.074   0.520  10.888 -0.4306  0.7207  0.4202
10937TIP3    H154302   2.016   0.489  10.958 -1.4337  1.8830  0.1368
10937TIP3    H254303   2.133   0.581  10.931  0.1482  0.0668  0.5750
10938TIP3   OH254304   1.418   4.859   0.516  0.2789 -0.0313  0.3861
10938TIP3    H154305   1.448   4.865   0.425 -0.8721 -0.4976 -0.0466
10938TIP3    H254306   1.408   4.765   0.531  0.1160  0.0652  0.8776
10939TIP3   OH254307   3.061   3.952   4.933  0.9587 -0.1573  0.0829
10939TIP3    H154308   3.043   4.033   4.981  1.7920 -1.3876  2.6590
10939TIP3    H254309   3.147   3.968   4.893  1.7529 -0.1709  1.6838
10940TIP3   OH254310   0.186   2.533   1.118  0.0345 -0.3766  0.3430
10940TIP3    H154311   0.156   2.495   1.200 -1.4187  0.5524  0.2796
10940TIP3    H254312   0.164   2.626   1.125  0.8925 -0.0827 -0.6469
10941TIP3   OH254313   2.612   4.904  12.231 -0.4611  0.5371  0.4842
10941TIP3    H154314   2.617   4.994  12.263  0.0752  0.4058  0.7921
10941TIP3    H254315   2.548   4.862  12.287  1.6184 -0.1297  2.5495
10942TIP3   OH254316   5.346   4.169   4.512 -0.3469 -0.2128 -0.2689
10942TIP3    H154317   5.300   4.237   4.561  3.1391  2.3748 -0.1959
10942TIP3    H254318   5.354   4.205   4.424  0.4467 -1.0838 -0.5676
10943TIP3   OH254319   4.072   1.921   4.264  0.2975  0.4889  0.9654
10943TIP3    H154320   4.119   1.997   4.300 -1.7136  1.0234  2.6606
10943TIP3    H254321   3.980   1.943   4.275 -0.3534 -2.0231  1.0750
10944TIP3   OH254322   3.287   2.016  13.424 -0.8467 -0.1979  0.0173
10944TIP3    H154323   3.300   2.110  13.432 -0.8239 -0.1935 -0.0623
10944TIP3    H254324   3.197   2.007  13.391 -0.7142 -0.1868 -0.3516
10945TIP3   OH254325   1.292   2.450   2.584 -0.2605  0.0381  0.5089
10945TIP3    H154326   1.369   2.495   2.548  0.2168 -1.1027  0.0585
10945TIP3    H254327   1.258   2.510   2.650  1.3517  0.3435  1.1097
10946TIP3   OH254328   3.335   6.511   6.531  0.3383  0.8255  0.4992
10946TIP3    H154329   3.359   6.421   6.508 -1.0657  0.5201  0.1440
10946TIP3    H254330   3.381   6.566   6.468  0.4050  0.2886  0.0766
10947TIP3   OH254331   2.884   0.471   4.737 -0.3633 -0.7590 -0.2749
10947TIP3    H154332   2.809   0.500   4.684 -1.4694 -1.6662  0.7281
10947TIP3    H254333   2.946   0.544   4.732 -1.8082  0.5330 -0.1969
10948TIP3   OH254334   4.941   1.943   3.109  0.4879 -0.0723  0.0639
10948TIP3    H154335   5.020   1.891   3.095  1.3574  0.9482  1.0068
10948TIP3    H254336   4.870   1.889   3.073  1.4891 -1.4205  0.0322
10949TIP3   OH254337   4.802   5.353  14.390  0.1296  0.6978  0.3499
10949TIP3    H154338   4.788   5.260  14.371 -0.8184  0.5904  1.4668
10949TIP3    H254339   4.741   5.372  14.461 -0.7064  2.5115 -0.7635
10950TIP3   OH254340   0.560   4.291   5.636 -0.2564  0.0104 -0.1336
10950TIP3    H154341   0.649   4.296   5.670 -0.1824  1.7975 -0.4846
10950TIP3    H254342   0.552   4.368   5.579 -1.5896 -0.8591 -1.1874
10951TIP3   OH254343   5.661   3.385   3.987 -0.4520 -0.6527 -1.4351
10951TIP3    H154344   5.570   3.394   3.958 -0.4065 -1.2779 -1.7673
10951TIP3    H254345   5.678   3.466   4.036 -1.4113 -0.8406 -0.7556
10952TIP3   OH254346   4.903   3.542  15.700  0.6489  0.3332  0.1531
10952TIP3    H154347   4.982   3.543  15.646 -0.2384 -1.1222 -1.2854
10952TIP3    H254348   4.875   3.450  15.700 -2.3996  1.1171 -1.5492
10953TIP3   OH254349   3.369   2.821  14.217  0.9239  0.1731 -0.4147
10953TIP3    H154350   3.434   2.852  14.154 -0.0061  0.9527 -1.0221
10953TIP3    H254351   3.285   2.832  14.172  0.4924 -4.6416 -1.3331
10954TIP3   OH254352   0.151   4.613   2.075 -0.3492  0.1245  0.3400
10954TIP3    H154353   0.236   4.579   2.102  0.6491  1.0919 -1.4167
10954TIP3    H254354   0.089   4.543   2.094  1.3063 -1.8675 -1.2758
10955TIP3   OH254355   3.791   5.876   5.964  0.1779  0.3622  0.4800
10955TIP3    H154356   3.834   5.882   5.878  1.4859 -0.3788  1.0525
10955TIP3    H254357   3.706   5.919   5.951 -0.5939 -1.6049 -1.7812
10956TIP3   OH254358   3.004   5.967  14.748 -0.0989 -0.4035 -0.3650
10956TIP3    H154359   3.020   5.996  14.837  3.0311  1.1131 -1.2633
10956TIP3    H254360   3.009   5.872  14.752  0.0685 -0.3510  1.0797
10957TIP3   OH254361   4.435   4.020  16.729  0.0691 -0.0865 -0.1552
10957TIP3    H154362   4.435   4.085  16.799 -0.4341 -1.4153  1.1253
10957TIP3    H254363   4.433   4.072  16.648 -0.8197  1.4888  0.8220
10958TIP3   OH254364   3.636   4.101  16.441  0.5963 -0.6369  0.3187
10958TIP3    H154365   3.561   4.065  16.396  0.7790 -0.2016 -0.3544
10958TIP3    H254366   3.626   4.196  16.433  1.3196 -0.5745  0.0380
10959TIP3   OH254367   5.071   4.456   0.265  0.3616 -0.0124  0.0681
10959TIP3    H154368   5.046   4.378   0.314  0.8077 -0.4963 -0.4581
10959TIP3    H254369   5.022   4.527   0.306  0.2496 -0.5047  0.8084
10960TIP3   OH254370   2.229   5.904  12.228  0.0435  0.1117 -0.0146
10960TIP3    H154371   2.210   5.979  12.171 -1.3732 -0.6054 -0.5276
10960TIP3    H254372   2.156   5.903  12.290 -0.2711 -1.1807 -0.3844
10961TIP3   OH254373   1.634   5.817   2.349  0.9256 -0.1845  0.2178
10961TIP3    H154374   1.680   5.878   2.406  0.1261  0.6583 -0.0198
10961TIP3    H254375   1.590   5.873   2.285  2.3915 -1.1261 -1.6902
10962TIP3   OH254376   3.844   4.583   5.654 -0.4744 -0.8865  0.4102
10962TIP3    H154377   3.789   4.534   5.592 -0.5290 -0.1202 -0.1695
10962TIP3    H254378   3.791   4.660   5.676  1.2684  1.2429 -2.1559
10963TIP3   OH254379   2.802   6.076  12.508 -0.3408 -0.1701  0.4396
10963TIP3    H154380   2.895   6.090  12.529 -0.6653  1.9165  0.6434
10963TIP3    H254381   2.800   6.078  12.412 -0.4208  1.9522  0.4416
10964TIP3   OH254382   2.372   0.938  10.306  0.4377  0.1396 -0.3173
10964TIP3    H154383   2.400   0.849  10.287  3.4755  1.3435 -2.1981
10964TIP3    H254384   2.450   0.981  10.339 -1.0699  2.0336  0.9855
10965TIP3   OH254385   6.287   0.787  11.560  0.2154 -0.2769  0.2937
10965TIP3    H154386   6.334   0.709  11.531  0.3575 -0.5075  1.1424
10965TIP3    H254387   6.209   0.753  11.605  0.2432  0.0708  0.6056
10966TIP3   OH254388   0.376   2.709   1.255 -1.0587  0.1478 -0.3418
10966TIP3    H154389   0.333   2.769   1.194 -0.1195  1.5815  0.3439
10966TIP3    H254390   0.327   2.717   1.336 -0.8311  0.1146 -0.1988
10967TIP3   OH254391   6.205   3.338  11.495 -0.2931 -0.2875 -0.1340
10967TIP3    H154392   6.297   3.361  11.481 -0.3886  0.7738  0.8329
10967TIP3    H254393   6.161   3.360  11.413  0.5226 -2.1626 -1.1445
10968TIP3   OH254394   3.313   5.198   2.676  0.1374  0.0696 -0.7900
10968TIP3    H154395   3.409   5.196   2.685  0.0049 -0.2696  0.8315
10968TIP3    H254396   3.293   5.289   2.654  0.5390  1.4548  3.6915
10969TIP3   OH254397   3.878   1.446  11.971  0.2150  0.2118  0.0057
10969TIP3    H154398   3.861   1.538  11.951  0.2974  0.2820  0.2602
10969TIP3    H254399   3.912   1.446  12.061  1.3737  0.0581 -0.4109
10970TIP3   OH254400   4.612   2.426  14.334  0.2749 -0.2242  0.2076
10970TIP3    H154401   4.662   2.440  14.254  0.7047 -2.7026 -0.0247
10970TIP3    H254402   4.520   2.428  14.306  0.4367 -2.6279 -0.7246
10971TIP3   OH254403   0.737   0.543  16.094  0.1901 -0.0246 -0.1884
10971TIP3    H154404   0.663   0.567  16.150  0.2067  0.5482 -0.4033
10971TIP3    H254405   0.695   0.518  16.011  0.2532  0.6847 -0.4409
10972TIP3   OH254406   0.798   2.246   4.242  0.2249 -0.2026  0.2025
10972TIP3    H154407   0.718   2.194   4.249  1.0633 -1.5473  0.1095
10972TIP3    H254408   0.859   2.190   4.196  1.7461  0.1711  1.6598
10973TIP3   OH254409   5.412   0.848  13.175 -0.5156 -0.1687 -0.2596
10973TIP3    H154410   5.390   0.897  13.254  1.6725  1.3307 -0.4912
10973TIP3    H254411   5.359   0.889  13.106 -0.2147  0.5290 -0.0865
10974TIP3   OH254412   3.097   4.963  14.239  0.4922 -0.1819 -0.4280
10974TIP3    H154413   3.085   5.020  14.315  0.6838 -0.3682 -0.2555
10974TIP3    H254414   3.191   4.967  14.221  0.8777 -2.0513  0.8797
10975TIP3   OH254415   0.102   5.512   3.385 -0.4449  0.0297  0.3345
10975TIP3    H154416   0.120   5.451   3.457 -4.1979 -0.5209  1.0176
10975TIP3    H254417   0.080   5.594   3.429  0.9545  0.8623 -0.4380
10976TIP3   OH254418   4.818   5.353  15.380 -0.2199  0.0247 -0.5943
10976TIP3    H154419   4.895   5.375  15.433  1.1785  0.4293 -2.6408
10976TIP3    H254420   4.854   5.332  15.294 -2.4125  0.0558 -1.5868
10977TIP3   OH254421   6.554   2.726   4.274  0.4809 -0.0009 -0.3561
10977TIP3    H154422   6.479   2.758   4.324  2.3925  0.7450  2.3145
10977TIP3    H254423   6.578   2.800   4.218  0.6080  0.6657  0.5420
10978TIP3   OH254424   3.331   3.604  15.818  0.3069 -0.3843 -0.4435
10978TIP3    H154425   3.407   3.552  15.846  0.4293 -0.4528 -0.8893
10978TIP3    H254426   3.290   3.550  15.750 -1.0128 -1.0535  0.8154
10979TIP3   OH254427   0.212   1.032   0.078 -0.2027  0.2788 -0.3628
10979TIP3    H154428   0.238   0.949   0.038 -1.5276  0.4065 -1.5702
10979TIP3    H254429   0.285   1.055   0.135  1.0299 -0.7670 -1.4456
10980TIP3   OH254430   6.802   3.138  13.126  0.0661  0.5245 -0.4665
10980TIP3    H154431   6.813   3.108  13.216  2.8166  0.6786 -0.6715
10980TIP3    H254432   6.708   3.130  13.109 -0.6583  1.2704  2.6503
10981TIP3   OH254433   5.147   3.936   4.937 -0.6054 -0.1027  0.0067
10981TIP3    H154434   5.222   3.991   4.958 -0.6126  1.1649 -2.7985
10981TIP3    H254435   5.087   3.994   4.889 -3.0935 -1.2599  1.4747
10982TIP3   OH254436   2.491   2.165  13.757  0.1768  0.3186  0.4709
10982TIP3    H154437   2.422   2.111  13.719  0.8582  1.3374 -2.4407
10982TIP3    H254438   2.447   2.213  13.828 -1.8448  0.1251 -0.5619
10983TIP3   OH254439   4.711   0.008  11.200 -0.0482  0.1206 -0.2231
10983TIP3    H154440   4.740  -0.061  11.141  3.4134 -1.6988  3.1552
10983TIP3    H254441   4.757   0.087  11.171  0.8202 -0.4993 -0.5545
10984TIP3   OH254442   0.173   2.169  14.889  0.1852  0.2930  0.0105
10984TIP3    H154443   0.131   2.089  14.922  0.4842  0.8473  1.8741
10984TIP3    H254444   0.253   2.176  14.941  0.3235  1.6328 -0.3622
10985TIP3   OH254445   5.336   2.561   1.794 -0.1798 -0.2104 -0.1646
10985TIP3    H154446   5.341   2.514   1.877  3.3178 -1.7948 -1.1138
10985TIP3    H254447   5.427   2.581   1.771 -0.9804  0.1186 -3.6287
10986TIP3   OH254448   0.395   4.778   0.483  0.6514 -0.3656  0.1132
10986TIP3    H154449   0.412   4.745   0.395  0.5945  0.6482 -0.2900
10986TIP3    H254450   0.301   4.794   0.485  0.8921  1.2877 -0.2634
10987TIP3   OH254451   0.552   3.867  16.199 -0.6004  0.5813 -0.2881
10987TIP3    H154452   0.551   3.788  16.145  0.2290  1.3902 -1.5401
10987TIP3    H254453   0.548   3.835  16.289 -1.5380 -0.8241 -0.8016
10988TIP3   OH254454   6.661   1.867  12.785  0.2139  0.1764 -0.0144
10988TIP3    H154455   6.612   1.904  12.711 -2.0167 -2.5626 -0.0552
10988TIP3    H254456   6.705   1.791  12.748 -0.6086 -1.0079  1.3538
10989TIP3   OH254457   2.595   3.820  10.759 -0.0063 -0.0905  0.0479
10989TIP3    H154458   2.585   3.746  10.699  0.2886  0.2521 -0.4309
10989TIP3    H254459   2.560   3.895  10.710  0.3040  0.2057  0.2807
10990TIP3   OH254460   2.245   1.143  16.246 -0.3318  0.6366  0.8361
10990TIP3    H154461   2.317   1.162  16.186 -1.1672 -2.3452 -1.3125
10990TIP3    H254462   2.287   1.099  16.320  0.2845  1.1837  0.8271
10991TIP3   OH254463   3.175   0.974  17.033 -0.4408 -0.0303  0.2328
10991TIP3    H154464   3.174   1.068  17.048 -0.1931 -0.3513  2.7617
10991TIP3    H254465   3.268   0.950  17.037 -0.4808 -0.3607 -0.6418
10992TIP3   OH254466   0.218   2.715  14.228  0.1890 -0.3594 -0.0364
10992TIP3    H154467   0.131   2.689  14.257 -0.0179  1.6522  1.2783
10992TIP3    H254468   0.263   2.632  14.210 -1.8700 -1.4397 -0.4535
10993TIP3   OH254469   0.960   6.729   1.891 -0.3440 -0.4255  0.4184
10993TIP3    H154470   0.878   6.743   1.844 -0.5247 -0.2742  0.7712
10993TIP3    H254471   1.020   6.695   1.825 -0.6842 -0.5195  0.1517
10994TIP3   OH254472   5.143   0.318   4.014 -0.6262  0.2295 -0.1423
10994TIP3    H154473   5.151   0.315   4.110  0.1442  1.2275 -0.1624
10994TIP3    H254474   5.127   0.227   3.989 -1.3322  0.0197  0.9661
10995TIP3   OH254475   4.114   5.315  12.676  0.0056 -0.4505 -0.1133
10995TIP3    H154476   4.098   5.335  12.768  0.7531  0.2450 -0.1301
10995TIP3    H254477   4.163   5.233  12.677  0.5269 -0.1391  0.1387
10996TIP3   OH254478   5.263   5.216   3.088  0.6243  0.4216  1.0559
10996TIP3    H154479   5.328   5.153   3.119  0.7939 -0.1179 -0.2985
10996TIP3    H254480   5.313   5.296   3.070  1.0327 -0.1118 -0.3570
10997TIP3   OH254481   5.247   1.104   3.502 -0.3510  0.1311  0.7655
10997TIP3    H154482   5.180   1.084   3.436  1.1782 -0.1599 -0.7703
10997TIP3    H254483   5.231   1.041   3.572 -0.9644 -0.7041 -0.0992
10998TIP3   OH254484   3.011   0.705  11.040  0.2612 -0.0173 -0.0392
10998TIP3    H154485   3.096   0.695  10.997  0.4644 -2.5815  0.8015
10998TIP3    H254486   2.955   0.745  10.973  1.7705  0.5526 -1.0272
10999TIP3   OH254487   2.732   1.208  10.935  0.0943  0.2679  0.6734
10999TIP3    H154488   2.714   1.120  10.903  0.5973  1.0188 -1.9308
10999TIP3    H254489   2.727   1.201  11.030  0.2043 -2.5724  0.5450
11000TIP3   OH254490   3.699   0.692  14.875  0.7164 -0.1409 -0.8621
11000TIP3    H154491   3.668   0.783  14.870  0.7800 -0.0404  0.3027
11000TIP3    H254492   3.750   0.680  14.795 -0.6452  0.3195 -1.8488
11001TIP3   OH254493   1.711   1.582   4.673 -0.5090  0.0489  0.5154
11001TIP3    H154494   1.662   1.651   4.628  1.4028  0.8169 -0.4645
11001TIP3    H254495   1.785   1.627   4.714 -0.1401 -1.2000  1.2945
11002TIP3   OH254496   4.360   2.890  12.412  0.0294 -0.8868  0.0932
11002TIP3    H154497   4.342   2.817  12.471  1.2484 -2.1220 -1.0190
11002TIP3    H254498   4.359   2.967  12.469 -1.1881 -1.7415  1.3052
11003TIP3   OH254499   2.615   6.683  15.920 -0.7289 -0.4707 -0.2324
11003TIP3    H154500   2.584   6.768  15.888 -0.7836 -0.8773 -1.3030
11003TIP3    H254501   2.566   6.668  16.000 -1.0637  0.2948 -0.2874
11004TIP3   OH254502   1.944   2.825   4.563  0.1453 -0.2175 -0.4301
11004TIP3    H154503   1.934   2.889   4.633  0.4967 -2.5244  1.8743
11004TIP3    H254504   2.000   2.869   4.499  0.4350  1.7468  1.0675
11005TIP3   OH254505   3.813   3.402   3.997 -0.3014 -0.0142 -0.7275
11005TIP3    H154506   3.742   3.458   3.963 -1.2434 -0.9736 -0.3838
11005TIP3    H254507   3.787   3.383   4.087  0.3939 -0.3863 -0.6024
11006TIP3   OH254508   6.451   2.871  12.042  0.2414  0.4792  0.1822
11006TIP3    H154509   6.485   2.789  12.077  1.1540  0.1774 -1.3373
11006TIP3    H254510   6.396   2.906  12.112  0.8032 -0.8208  1.3130
11007TIP3   OH254511   1.671   3.618  10.345 -0.5961 -0.1410  0.0294
11007TIP3    H154512   1.631   3.644  10.428 -0.1863  0.6970 -0.0170
11007TIP3    H254513   1.750   3.571  10.371 -0.9160 -0.6374  0.1137
11008TIP3   OH254514   1.954   6.011  14.432  0.1795 -0.1552 -0.2434
11008TIP3    H154515   1.954   5.916  14.442 -0.9591 -0.4694 -2.4549
11008TIP3    H254516   1.924   6.025  14.342 -0.6615  2.3394  0.3574
11009TIP3   OH254517   2.717   2.071  16.863 -0.6937 -0.5284 -0.4449
11009TIP3    H154518   2.779   2.124  16.913 -0.3337 -1.9274  0.6239
11009TIP3    H254519   2.676   2.014  16.927 -1.4310 -1.2192 -1.5025
11010TIP3   OH254520   4.788   0.199   1.890  0.4799  0.1707 -0.6845
11010TIP3    H154521   4.759   0.154   1.810 -2.7394  1.0660 -0.1678
11010TIP3    H254522   4.729   0.168   1.958  1.3914  1.4451  0.7491
11011TIP3   OH254523   0.081   6.552  10.952  0.2583  0.4152  0.2660
11011TIP3    H154524   0.128   6.608  11.014 -0.0297  0.0475  0.8203
11011TIP3    H254525  -0.010   6.581  10.960  0.0325 -0.4428  0.9001
11012TIP3   OH254526   3.990   1.248   4.980  0.4708 -0.2039 -0.1324
11012TIP3    H154527   3.906   1.292   4.995  0.6234 -0.1126  0.4511
11012TIP3    H254528   4.002   1.191   5.055  1.6296  0.8812  0.5527
11013TIP3   OH254529   1.602   4.977  12.012  0.4302  0.4408  0.0413
11013TIP3    H154530   1.685   4.929  12.007 -0.0421 -0.2668 -1.6131
11013TIP3    H254531   1.586   5.006  11.922 -0.7859  1.1581  0.4676
11014TIP3   OH254532   3.019   1.184   2.802 -0.1648  0.6904 -0.6323
11014TIP3    H154533   3.081   1.124   2.761 -0.6488  0.3086 -0.8124
11014TIP3    H254534   2.935   1.137   2.801 -0.5436  1.3530 -0.7477
11015TIP3   OH254535   1.727   5.829   1.124 -0.1395 -0.0635  0.2834
11015TIP3    H154536   1.712   5.910   1.173 -3.0934  0.3711 -1.0931
11015TIP3    H254537   1.691   5.760   1.180 -2.5435  0.3095 -0.6735
11016TIP3   OH254538   1.600   5.812  16.611 -0.5514 -0.1478  0.2604
11016TIP3    H154539   1.544   5.890  16.616 -0.4520  0.0742 -1.3125
11016TIP3    H254540   1.541   5.743  16.580 -0.2590 -0.2502 -0.0685
11017TIP3   OH254541   6.733   5.948  13.292  0.6205 -0.2594 -0.2938
11017TIP3    H154542   6.757   5.936  13.200  1.0520  0.3273 -0.2627
11017TIP3    H254543   6.712   6.041  13.300  1.1264 -0.1862  0.3203
11018TIP3   OH254544   5.721   5.147   5.270  0.4366  0.6000 -0.5639
11018TIP3    H154545   5.686   5.073   5.320 -1.0841  1.6761  0.0436
11018TIP3    H254546   5.698   5.128   5.179 -2.9348  1.8003 -0.0814
11019TIP3   OH254547   2.561   5.933   3.668  0.3371  0.3126 -0.3317
11019TIP3    H154548   2.626   5.875   3.709 -0.7418 -0.6415  0.0843
11019TIP3    H254549   2.564   6.012   3.721  2.6182  1.1497 -1.5638
11020TIP3   OH254550   2.114   0.286   4.847  0.3365  0.0824  0.1439
11020TIP3    H154551   2.168   0.268   4.925 -1.0635 -0.6151  0.9940
11020TIP3    H254552   2.057   0.358   4.875  0.5565  0.5595 -0.6205
11021TIP3   OH254553   1.730   0.398   2.066  0.5567 -0.1020  0.4142
11021TIP3    H154554   1.760   0.449   2.142 -1.0088  0.6078  0.5931
11021TIP3    H254555   1.804   0.399   2.006  1.3352  0.5023  1.3523
11022TIP3   OH254556   1.235   5.635   3.452 -0.4035 -0.2465 -0.4314
11022TIP3    H154557   1.320   5.601   3.426  0.2227  0.9359  0.0011
11022TIP3    H254558   1.206   5.577   3.522  0.1904 -0.4846 -0.3779
11023TIP3   OH254559   5.163   4.251   2.101 -0.2006  0.7506 -0.3794
11023TIP3    H154560   5.126   4.191   2.036 -0.8387  1.3342 -0.5639
11023TIP3    H254561   5.173   4.333   2.054 -1.2473  1.3557  0.4120
11024TIP3   OH254562   0.819   6.221  14.529  0.2142  0.1652  0.2654
11024TIP3    H154563   0.750   6.287  14.532 -0.6546 -0.5804 -1.7177
11024TIP3    H254564   0.793   6.162  14.458  1.7874 -1.3931  0.9099
11025TIP3   OH254565   3.788   2.702   0.123  0.0483  0.0563  0.2406
11025TIP3    H154566   3.855   2.670   0.184  1.2956  1.2006 -0.4683
11025TIP3    H254567   3.737   2.764   0.174 -0.9766 -1.3310  0.9874
11026TIP3   OH254568   3.645   4.234   5.329  0.0544 -0.5020  0.6805
11026TIP3    H154569   3.721   4.291   5.317 -0.6109  0.1399 -0.7945
11026TIP3    H254570   3.618   4.211   5.240 -1.1620 -1.1323  1.1904
11027TIP3   OH254571   3.866   2.810  15.049  0.0967  0.0751  0.5885
11027TIP3    H154572   3.934   2.785  14.987  0.9503  1.0098  1.1197
11027TIP3    H254573   3.785   2.808  14.998  0.6248 -0.2768 -0.2567
11028TIP3   OH254574   6.686   6.544   0.855 -1.1065 -0.3662 -0.1693
11028TIP3    H154575   6.642   6.611   0.802  0.9454  0.6320 -0.7075
11028TIP3    H254576   6.714   6.478   0.792 -2.4167 -1.3787  0.2643
11029TIP3   OH254577   4.286   5.607  15.670  0.4217 -0.4399  0.4917
11029TIP3    H154578   4.314   5.574  15.584 -0.8073 -0.2851  0.0132
11029TIP3    H254579   4.307   5.536  15.731 -0.3829 -1.3249 -0.2296
11030TIP3   OH254580   2.827   2.881   4.442 -0.0297 -0.2470  0.2245
11030TIP3    H154581   2.874   2.862   4.361  1.5719 -0.6301  1.2024
11030TIP3    H254582   2.763   2.810   4.450 -1.2810  0.6368 -1.4536
11031TIP3   OH254583   4.174   4.903  13.186  0.3719 -0.2383  0.3634
11031TIP3    H154584   4.079   4.903  13.180  0.4676 -0.6376 -2.6945
11031TIP3    H254585   4.199   4.811  13.182  0.9320 -0.0617 -0.3701
11032TIP3   OH254586   4.634   1.808  16.091 -0.3558  0.2380  0.3835
11032TIP3    H154587   4.671   1.748  16.026  0.6756  0.5368  0.6809
11032TIP3    H254588   4.567   1.856  16.044  0.2533  0.3183 -0.4136
11033TIP3   OH254589   1.227   6.678   3.535 -0.2999  0.2964 -0.1080
11033TIP3    H154590   1.301   6.685   3.595  0.5225  1.7448 -1.2072
11033TIP3    H254591   1.267   6.684   3.448 -1.4384 -1.7733 -0.8360
11034TIP3   OH254592   0.064   0.969   1.231  0.3691  0.0632  0.1414
11034TIP3    H154593   0.088   1.029   1.161 -2.0860  1.4460  0.3572
11034TIP3    H254594   0.146   0.928   1.257  1.9335  2.2539 -1.0158
11035TIP3   OH254595   4.516   4.672   6.500  0.1059  0.1774 -0.3706
11035TIP3    H154596   4.444   4.652   6.560 -0.1839  0.5567 -0.5892
11035TIP3    H254597   4.474   4.683   6.415  0.5872 -1.0198 -0.7936
11036TIP3   OH254598   5.444   0.058   1.078  0.2637  0.0278  0.1938
11036TIP3    H154599   5.480   0.069   1.166 -0.9210  1.6205  0.5277
11036TIP3    H254600   5.350   0.066   1.090 -0.2088 -2.8553 -0.8188
11037TIP3   OH254601   4.099   5.624  16.934  0.5497 -0.0284 -0.4399
11037TIP3    H154602   4.036   5.691  16.907 -0.8369 -2.0028 -2.5549
11037TIP3    H254603   4.126   5.583  16.852 -0.2315 -3.3363  0.7814
11038TIP3   OH254604   2.062   2.024   4.148 -0.6936 -0.1033 -0.3962
11038TIP3    H154605   2.050   2.004   4.241 -1.1607  1.3715 -0.1128
11038TIP3    H254606   1.980   1.998   4.107 -2.3418  3.2784  0.3746
11039TIP3   OH254607   4.923   2.476  14.153 -0.3055 -0.0050 -0.3824
11039TIP3    H154608   4.984   2.411  14.188  1.6923  0.7524 -2.1946
11039TIP3    H254609   4.843   2.427  14.134  0.8287 -1.7729 -0.8693
11040TIP3   OH254610   3.434   6.306   3.032 -0.2560 -0.4723 -0.9673
11040TIP3    H154611   3.523   6.273   3.023  0.9959  2.0070  1.1612
11040TIP3    H254612   3.427   6.374   2.964  0.1257  0.4913 -0.0719
11041TIP3   OH254613   5.879   1.506   1.925  0.4991  0.6019  0.1274
11041TIP3    H154614   5.850   1.596   1.910 -3.8137 -0.3733  1.3871
11041TIP3    H254615   5.865   1.491   2.018 -1.1682 -2.0139 -0.4374
11042TIP3   OH254616   0.834   5.252  17.215  0.3632  0.1765 -0.0129
11042TIP3    H154617   0.929   5.261  17.211  0.2213  1.7829 -0.4821
11042TIP3    H254618   0.814   5.176  17.160  1.2383  0.9094 -1.3843
11043TIP3   OH254619   1.621   4.470  15.558  0.0834  0.0890  0.1668
11043TIP3    H154620   1.559   4.420  15.611  0.4052  0.0126  0.4710
11043TIP3    H254621   1.606   4.439  15.469 -0.5606  0.3216  0.1823
11044TIP3   OH254622   0.357   1.901  12.445  0.3804  0.1140 -0.5490
11044TIP3    H154623   0.271   1.938  12.425 -0.6344 -2.1778 -0.8039
11044TIP3    H254624   0.414   1.977  12.458 -2.0066  1.7482  1.1462
11045TIP3   OH254625   4.131   1.127  16.626 -0.7198  0.1196  0.3086
11045TIP3    H154626   4.066   1.059  16.609  0.8657 -1.2684 -0.4335
11045TIP3    H254627   4.150   1.164  16.540  0.1764 -0.1589  0.3790
11046TIP3   OH254628   6.062   3.184   4.284  0.0035  0.4808  0.1774
11046TIP3    H154629   6.103   3.243   4.347  1.3001  1.0266 -1.0968
11046TIP3    H254630   6.128   3.174   4.215 -1.2009 -0.4042 -0.8906
11047TIP3   OH254631   6.820   3.818  12.312 -0.8210  0.7692  0.0322
11047TIP3    H154632   6.877   3.880  12.357  0.7324  0.6421 -1.6425
11047TIP3    H254633   6.812   3.745  12.373  0.8055  0.8067  0.3509
11048TIP3   OH254634   3.429   2.718   6.079 -0.2208 -0.7226 -0.0638
11048TIP3    H154635   3.415   2.624   6.072 -1.1293 -0.6512  0.6794
11048TIP3    H254636   3.348   2.752   6.117  0.5425  0.2010  0.8012
11049TIP3   OH254637   1.858   2.028  14.241 -0.1371 -0.5697  0.1800
11049TIP3    H154638   1.815   1.990  14.164 -0.5870  0.2207  0.0228
11049TIP3    H254639   1.791   2.026  14.309 -0.7766  1.4850 -0.3149
11050TIP3   OH254640   5.567   3.492  16.280  0.2012 -0.0581 -0.0826
11050TIP3    H154641   5.653   3.489  16.322  0.8025  1.6236 -1.0817
11050TIP3    H254642   5.522   3.565  16.323  0.3900  0.9261 -1.4726
11051TIP3   OH254643   5.185   2.042   5.742 -0.0874 -0.4656 -0.8540
11051TIP3    H154644   5.218   2.051   5.831  1.4953  1.9013 -1.5802
11051TIP3    H254645   5.249   1.986   5.698  0.6967  0.6402 -1.1676
11052TIP3   OH254646   6.309   0.910  11.225 -0.4478  0.0828  0.4038
11052TIP3    H154647   6.304   0.936  11.133 -0.7467  1.7068  0.8559
11052TIP3    H254648   6.218   0.890  11.249 -0.1001 -2.7090 -0.2521
11053TIP3   OH254649   1.236   5.786   1.270 -0.2304 -0.2195  0.1973
11053TIP3    H154650   1.249   5.694   1.292  1.3624 -0.0297  0.1552
11053TIP3    H254651   1.304   5.832   1.319  1.7329  0.4946 -2.9720
11054TIP3   OH254652   3.077   0.450  16.996  0.9771  0.1142  0.0769
11054TIP3    H154653   3.051   0.510  16.926  0.5631  1.7551  1.5479
11054TIP3    H254654   3.172   0.453  16.998  0.9821  0.1698 -0.3146
11055TIP3   OH254655   0.606   6.187   5.404 -0.4275  0.1388 -0.1930
11055TIP3    H154656   0.641   6.165   5.318 -0.5612 -0.3694 -0.1229
11055TIP3    H254657   0.635   6.276   5.420  0.2445 -0.0282 -0.4390
11056TIP3   OH254658   0.315   1.813  11.872  0.2319  0.4696 -0.5149
11056TIP3    H154659   0.320   1.862  11.954 -0.3648  0.1090 -0.2603
11056TIP3    H254660   0.381   1.744  11.882 -0.7977 -0.4252  0.2420
11057TIP3   OH254661   3.433   4.892  16.345  0.0436 -0.3417 -0.0513
11057TIP3    H154662   3.526   4.916  16.347  0.1304 -0.7073  1.4915
11057TIP3    H254663   3.390   4.967  16.304  0.8750  0.3989  0.3784
11058TIP3   OH254664   5.720   1.031   5.279 -0.2825 -0.0394  0.3124
11058TIP3    H154665   5.717   0.938   5.260 -2.0224 -0.0718  0.6217
11058TIP3    H254666   5.781   1.067   5.214  1.1222 -1.4901  0.7626
11059TIP3   OH254667   1.122   1.860  14.163 -0.6534  0.6470  0.4030
11059TIP3    H154668   1.127   1.799  14.090  1.1981  1.1591  0.0433
11059TIP3    H254669   1.181   1.932  14.139  0.4661  0.5770  2.6058
11060TIP3   OH254670   0.423   2.787   2.240  0.1736  0.2120  0.6754
11060TIP3    H154671   0.441   2.696   2.262 -1.2532  0.0914  1.4710
11060TIP3    H254672   0.461   2.838   2.312 -0.7057  0.0971  1.2402
11061TIP3   OH254673   2.657   1.914   2.481  0.5688 -0.2075  0.5720
11061TIP3    H154674   2.586   1.865   2.440 -0.1786 -0.2958  1.9012
11061TIP3    H254675   2.620   1.944   2.564  1.2827  1.8872  0.1970
11062TIP3   OH254676   4.683   0.391  11.951 -0.3433  0.6365  0.1419
11062TIP3    H154677   4.738   0.457  11.993 -1.1331  1.6166 -0.3232
11062TIP3    H254678   4.619   0.441  11.901 -1.6205 -0.4709  0.6105
11063TIP3   OH254679   4.080   1.164   2.857 -0.2146 -0.1130 -0.5505
11063TIP3    H154680   4.104   1.154   2.765  0.9969  3.8613 -0.8801
11063TIP3    H254681   4.135   1.236   2.889 -1.7275 -0.2436  2.8479
11064TIP3   OH254682   3.253   4.642  11.911 -0.6885  0.1798  0.3739
11064TIP3    H154683   3.198   4.572  11.945 -1.7875  0.8515  0.0478
11064TIP3    H254684   3.216   4.661  11.825 -0.3246  1.0688  0.4047
11065TIP3   OH254685   2.689   2.891  12.192 -0.2772 -0.2020  0.0364
11065TIP3    H154686   2.762   2.952  12.191 -0.2900 -0.1689 -1.5199
11065TIP3    H254687   2.726   2.809  12.223 -0.0260  0.3005  1.1149
11066TIP3   OH254688   6.340   6.229  13.104  0.6431  0.2205 -0.3528
11066TIP3    H154689   6.257   6.230  13.057 -0.4451 -0.5682  1.4572
11066TIP3    H254690   6.367   6.321  13.105 -0.0451  0.4511 -1.1880
11067TIP3   OH254691   5.101   4.188   3.055  0.0236 -0.6140 -0.2163
11067TIP3    H154692   5.036   4.238   3.005  0.4622 -0.4244 -0.5995
11067TIP3    H254693   5.169   4.252   3.076  1.2866 -1.3189 -1.9203
11068TIP3   OH254694   2.686   5.147  16.292  0.3509 -0.4014  0.0329
11068TIP3    H154695   2.777   5.135  16.264 -0.2388  0.8154 -2.6915
11068TIP3    H254696   2.669   5.241  16.279 -1.9303 -0.9749 -1.7996
11069TIP3   OH254697   5.043   3.632  14.284  0.0859 -0.3037  0.4190
11069TIP3    H154698   5.017   3.682  14.362 -0.9601 -2.5540  1.6218
11069TIP3    H254699   5.059   3.544  14.317 -0.4368 -1.3544 -1.9302
11070TIP3   OH254700   1.835   0.687  14.194 -0.1947  0.3166 -0.6192
11070TIP3    H154701   1.874   0.616  14.244  0.5724 -0.5472 -2.3550
11070TIP3    H254702   1.740   0.671  14.200 -0.0671 -0.3298 -0.2600
11071TIP3   OH254703   2.743   1.254  13.558 -0.0760 -0.2406  0.3010
11071TIP3    H154704   2.665   1.309  13.562 -0.0222  0.1011 -1.9989
11071TIP3    H254705   2.753   1.220  13.647 -0.3849  3.0258  1.7001
11072TIP3   OH254706   0.145   6.755  11.142 -0.2758  0.3280  0.5568
11072TIP3    H154707   0.097   6.836  11.161 -0.6240  0.3206 -0.2625
11072TIP3    H254708   0.210   6.749  11.212  1.1558  2.4037 -0.4700
11073TIP3   OH254709   4.185   4.286  16.049 -0.0259  0.2561 -0.0059
11073TIP3    H154710   4.109   4.265  15.995 -0.6580  0.4612  0.7919
11073TIP3    H254711   4.172   4.236  16.129  0.7974  0.1285  0.0559
11074TIP3   OH254712   4.202   4.476   3.431  0.4800 -0.5632  0.6986
11074TIP3    H154713   4.233   4.534   3.500  1.4081 -1.3239  0.9507
11074TIP3    H254714   4.274   4.474   3.368 -0.9785  1.3920 -1.1445
11075TIP3   OH254715   3.960   0.573   6.454 -0.1797 -0.1725  0.5433
11075TIP3    H154716   3.885   0.549   6.508  0.5379 -2.3714  0.6303
11075TIP3    H254717   3.950   0.668   6.441 -2.6931 -0.3170  0.9279
11076TIP3   OH254718   2.438   3.653   5.988 -0.4199  0.1457 -0.0804
11076TIP3    H154719   2.464   3.745   5.992 -2.1920  0.8149 -1.9501
11076TIP3    H254720   2.518   3.604   6.010  0.0394  2.0823  3.0440
11077TIP3   OH254721   5.664   1.755  12.558  0.1740 -0.3033 -0.6540
11077TIP3    H154722   5.665   1.731  12.465 -2.4135 -0.5357 -0.7076
11077TIP3    H254723   5.588   1.812  12.566 -1.0896 -2.1301  1.6832
11078TIP3   OH254724   5.186   2.997  14.343 -0.0474  0.3607  0.3558
11078TIP3    H154725   5.132   2.931  14.387  2.3859 -1.0834  1.3616
11078TIP3    H254726   5.240   3.034  14.413  0.6340  1.3784 -0.6769
11079TIP3   OH254727   4.390   4.587   2.761  0.3386 -0.0482  0.2409
11079TIP3    H154728   4.425   4.667   2.722  1.8300 -0.4597  0.6709
11079TIP3    H254729   4.457   4.558   2.823 -1.3877 -0.1173  2.2017
11080TIP3   OH254730   3.408   4.437   2.568 -0.2521 -0.3021 -0.5930
11080TIP3    H154731   3.449   4.428   2.654 -0.1977 -0.1184 -0.5996
11080TIP3    H254732   3.481   4.451   2.508 -0.3649  0.8483 -0.4963
11081TIP3   OH254733   3.362   6.521   2.367  0.2659  0.2844 -0.5472
11081TIP3    H154734   3.412   6.560   2.296  0.9323  0.5327  0.0454
11081TIP3    H254735   3.270   6.540   2.346  0.5478  1.9576 -0.4119
11082TIP3   OH254736   5.219   2.950  13.728 -0.2391  0.3793 -0.1199
11082TIP3    H154737   5.177   2.869  13.699  2.1368 -1.7982  1.9452
11082TIP3    H254738   5.183   2.966  13.815  1.2213 -0.0835  0.6156
11083TIP3   OH254739   6.181   6.509  14.098 -0.0188  0.0333  0.1453
11083TIP3    H154740   6.207   6.514  14.006 -0.3185  0.5210  0.0846
11083TIP3    H254741   6.259   6.478  14.144 -0.3399 -1.7761 -0.4800
11084TIP3   OH254742   3.988   0.670  15.787  0.1999 -0.0301  0.4057
11084TIP3    H154743   3.913   0.722  15.818 -0.0079 -0.2545  0.2772
11084TIP3    H254744   3.980   0.670  15.692  0.9887  0.8815  0.3273
11085TIP3   OH254745   3.032   4.297   2.292 -0.2003  0.8643  0.0612
11085TIP3    H154746   3.033   4.373   2.235 -1.2658  0.8690  0.0218
11085TIP3    H254747   3.093   4.318   2.362  0.1811  1.3752 -0.4199
11086TIP3   OH254748   3.416   5.218   3.272  0.0791  0.4418 -0.1884
11086TIP3    H154749   3.496   5.167   3.284 -0.9068 -1.2644 -0.5097
11086TIP3    H254750   3.345   5.153   3.275 -1.3721  1.9641  0.7985
11087TIP3   OH254751   3.986   6.544  14.615  0.0355  0.2740  0.1549
11087TIP3    H154752   3.973   6.638  14.625  2.2493  0.8102 -1.4142
11087TIP3    H254753   3.962   6.525  14.524  2.1900 -0.1286 -0.3755
11088TIP3   OH254754   0.143   3.487  15.023  0.1925 -0.3815  0.2632
11088TIP3    H154755   0.104   3.418  15.077  1.0934 -1.2508 -0.1674
11088TIP3    H254756   0.223   3.511  15.069 -0.9378  1.6453  1.3284
11089TIP3   OH254757   2.973   2.315  10.772 -0.1396  0.1551  0.4610
11089TIP3    H154758   3.038   2.262  10.818 -0.2197 -1.0853 -0.7980
11089TIP3    H254759   2.977   2.286  10.681 -0.6897  1.8489 -0.1470
11090TIP3   OH254760   6.598   2.998  12.298  0.1294 -0.0366  0.5888
11090TIP3    H154761   6.509   2.966  12.288  1.2349 -2.8455 -2.0341
11090TIP3    H254762   6.602   3.077  12.245 -0.6377 -0.3106  0.1158
11091TIP3   OH254763   6.658   0.206   5.690  0.0756 -0.2659 -0.6437
11091TIP3    H154764   6.635   0.115   5.709 -2.3989  0.3485 -0.3512
11091TIP3    H254765   6.626   0.255   5.766  0.3007  0.9893 -1.3373
11092TIP3   OH254766   6.589   0.450   4.866 -0.0538 -0.3727  0.1956
11092TIP3    H154767   6.648   0.437   4.792  0.4394  0.0149  0.5196
11092TIP3    H254768   6.540   0.367   4.872  1.4591 -1.2700  0.8140
11093TIP3   OH254769   2.052   2.927  13.511 -0.6339 -0.3794 -0.0105
11093TIP3    H154770   1.989   2.920  13.582 -2.6276 -0.2103 -1.6764
11093TIP3    H254771   2.115   2.992  13.542 -3.5910  2.6896  0.1923
11094TIP3   OH254772   1.484   3.530  14.182 -0.6259 -0.3913 -0.0555
11094TIP3    H154773   1.434   3.449  14.192 -0.7728 -0.2470  0.4168
11094TIP3    H254774   1.573   3.507  14.207 -0.8661 -0.1801  1.0391
11095TIP3   OH254775   1.730   2.875  15.593 -0.4034 -0.3411  0.8389
11095TIP3    H154776   1.663   2.825  15.546  0.2010 -0.8895  0.5483
11095TIP3    H254777   1.706   2.966  15.579 -0.1641 -0.4841 -0.6616
11096TIP3   OH254778   1.088   1.209   6.019 -0.0738 -0.0134  0.2381
11096TIP3    H154779   1.017   1.150   6.044  0.5608 -0.2583  1.5704
11096TIP3    H254780   1.163   1.180   6.071  0.9847  0.3223 -1.0431
11097TIP3   OH254781   5.756   3.037  16.550  0.4037  1.1551 -0.3063
11097TIP3    H154782   5.815   3.021  16.624  1.2650  1.3949 -0.9316
11097TIP3    H254783   5.714   2.952  16.535  0.5315  0.9962  0.1824
11098TIP3   OH254784   3.326   2.896  14.819 -0.2383 -0.5097  0.0622
11098TIP3    H154785   3.272   2.903  14.898 -0.3637 -0.6900 -0.0064
11098TIP3    H254786   3.312   2.979  14.773  1.1838  0.3370  1.0740
11099TIP3   OH254787   3.536   0.911  12.373  0.1378 -0.1326 -0.1738
11099TIP3    H154788   3.484   0.863  12.436  1.7433  0.0168  1.3304
11099TIP3    H254789   3.525   1.003  12.398 -0.0698  0.0187 -0.7993
11100TIP3   OH254790   5.304   3.679   0.343  0.1973  0.0081 -0.5739
11100TIP3    H154791   5.218   3.700   0.305 -0.0243 -0.9902 -0.6555
11100TIP3    H254792   5.301   3.584   0.357 -0.0939  0.4243  2.8859
11101TIP3   OH254793   6.635   4.831   6.109 -0.1137 -0.4759  0.1171
11101TIP3    H154794   6.617   4.824   6.015  1.4675  0.5154 -0.2852
11101TIP3    H254795   6.679   4.749   6.131 -2.8080 -1.9215  0.6373
11102TIP3   OH254796   1.645   3.889   1.652 -0.6119 -0.3413 -0.0178
11102TIP3    H154797   1.591   3.839   1.591 -1.8262 -0.6086  1.2323
11102TIP3    H254798   1.703   3.825   1.692 -0.0103 -0.2108 -0.6558
11103TIP3   OH254799   0.800   3.086  14.143 -0.3170  0.4320 -0.2089
11103TIP3    H154800   0.792   3.176  14.175  1.6174  0.0833  1.4439
11103TIP3    H254801   0.727   3.039  14.185 -0.0710  0.8052  0.6570
11104TIP3   OH254802   5.120   4.318   1.794  0.1931 -0.2338  0.5563
11104TIP3    H154803   5.183   4.329   1.723 -0.9539 -0.7577 -0.5752
11104TIP3    H254804   5.041   4.286   1.752 -0.6004 -0.3475  2.0498
11105TIP3   OH254805   5.560   0.158  12.680  0.0743 -0.5465  0.1104
11105TIP3    H154806   5.487   0.101  12.660 -0.0142 -1.1473  1.9277
11105TIP3    H254807   5.536   0.243  12.644 -0.3242 -1.3559 -1.5804
11106TIP3   OH254808   6.158   4.872  13.788 -0.3580  0.3604 -0.1227
11106TIP3    H154809   6.182   4.784  13.759 -1.2958  0.5168 -1.4867
11106TIP3    H254810   6.229   4.899  13.846 -0.2278 -1.4301  0.6193
11107TIP3   OH254811   0.049   3.495   6.335  0.4238  0.4475  0.3946
11107TIP3    H154812   0.067   3.553   6.409 -0.2871  2.2536 -0.7828
11107TIP3    H254813   0.110   3.422   6.346  0.0418  0.4301  2.9647
11108TIP3   OH254814   4.631   5.048   3.868  0.3651  0.4590 -0.0715
11108TIP3    H154815   4.674   4.967   3.897  1.7233  1.2016  0.0570
11108TIP3    H254816   4.703   5.108   3.850 -0.6400  1.8788  0.4871
11109TIP3   OH254817   2.128   4.994  11.509  0.0990 -0.0757  0.1221
11109TIP3    H154818   2.117   4.899  11.521  0.0895 -0.0838  0.0509
11109TIP3    H254819   2.085   5.033  11.585  0.9643 -0.1645  0.6659
11110TIP3   OH254820   0.662   5.189   2.163  0.7775  0.3330  0.1510
11110TIP3    H154821   0.597   5.248   2.202  1.8241  1.6726 -0.0382
11110TIP3    H254822   0.740   5.244   2.153  2.3324 -1.5100  1.4529
11111TIP3   OH254823   0.431   1.950  14.722  0.4479  0.8598  0.3054
11111TIP3    H154824   0.462   1.950  14.813 -0.8117 -0.1955  0.7723
11111TIP3    H254825   0.499   1.904  14.673  0.2040 -0.3805  1.0981
11112TIP3   OH254826   6.637   3.481   5.497  0.2413  0.3540 -0.5007
11112TIP3    H154827   6.691   3.429   5.557 -0.3726  0.5494  0.2392
11112TIP3    H254828   6.693   3.495   5.421  1.1784  0.4141  0.1783
11113TIP3   OH254829   5.963   2.980   1.143 -0.4504 -0.0979 -0.0385
11113TIP3    H154830   6.041   2.927   1.124 -0.8026 -0.4565 -0.5308
11113TIP3    H254831   5.891   2.928   1.107 -0.6831  1.3317 -1.7304
11114TIP3   OH254832   6.016   6.412  12.440  0.0006  0.0800 -0.0897
11114TIP3    H154833   6.066   6.340  12.400 -0.4071 -0.4452  0.3271
11114TIP3    H254834   6.080   6.481  12.454  0.7873 -0.8473  1.1010
11115TIP3   OH254835   3.521   2.103  14.567  0.1816 -0.5333  0.5811
11115TIP3    H154836   3.596   2.053  14.536  1.5570  1.4913  0.4425
11115TIP3    H254837   3.503   2.166  14.497 -0.5524  0.1440  1.3461
11116TIP3   OH254838   4.762   2.667   5.703  0.0041  0.1268 -0.3602
11116TIP3    H154839   4.837   2.611   5.688 -0.0870 -0.1533  0.2090
11116TIP3    H254840   4.739   2.701   5.616 -1.3980 -2.5489 -1.1576
11117TIP3   OH254841   5.334   4.988   0.938  0.0379 -0.4728  0.1641
11117TIP3    H154842   5.304   4.901   0.964  1.5837 -0.9421  0.4975
11117TIP3    H254843   5.381   5.021   1.015 -1.8271  1.3444  0.6259
11118TIP3   OH254844   2.716   1.601  15.810 -0.0005 -0.1282 -0.2250
11118TIP3    H154845   2.636   1.552  15.789  0.1166 -0.3524 -0.1501
11118TIP3    H254846   2.707   1.622  15.903 -0.2823  0.4271 -0.3680
11119TIP3   OH254847   6.183   2.728  15.749 -0.0754  0.2320  0.1828
11119TIP3    H154848   6.259   2.670  15.744 -1.4159 -1.6623  0.2968
11119TIP3    H254849   6.170   2.744  15.842 -0.4099 -0.3295  0.2405
11120TIP3   OH254850   4.063   3.450   3.939  0.3740  0.2349  0.1679
11120TIP3    H154851   3.970   3.427   3.944  0.4505 -0.0156  0.4688
11120TIP3    H254852   4.096   3.401   3.864  0.3856 -0.1078  0.3966
11121TIP3   OH254853   4.923   6.323   1.871  0.0504 -0.5718 -0.1811
11121TIP3    H154854   4.850   6.378   1.899  0.6378  0.9247 -1.4129
11121TIP3    H254855   5.002   6.373   1.893  0.7117 -1.8415  0.4909
11122TIP3   OH254856   4.086   1.756   4.716 -0.4561 -0.4189 -0.3845
11122TIP3    H154857   4.056   1.843   4.743  0.0379 -0.7090  1.1990
11122TIP3    H254858   4.032   1.735   4.640 -0.5597  1.2834 -0.8234
11123TIP3   OH254859   3.266   2.111  15.929  0.5041 -0.2787 -0.1310
11123TIP3    H154860   3.263   2.206  15.929  0.6143 -0.2747 -0.0168
11123TIP3    H254861   3.223   2.085  16.010 -2.0812 -0.4247 -1.4350
11124TIP3   OH254862   0.121   3.624   4.656 -0.0174 -0.4463 -0.4742
11124TIP3    H154863   0.121   3.600   4.563 -3.0431  1.6710 -1.1527
11124TIP3    H254864   0.147   3.716   4.657 -0.3657 -0.3488  0.7472
11125TIP3   OH254865   4.106   5.000   5.321  0.7366  0.2912  0.0591
11125TIP3    H154866   4.014   5.011   5.346  1.0311  0.6615  1.0198
11125TIP3    H254867   4.108   4.917   5.272  0.1241 -0.4824  1.2904
11126TIP3   OH254868   2.526   6.599   4.388 -0.0817  0.4661 -0.5391
11126TIP3    H154869   2.603   6.633   4.343  0.4135 -1.0230 -0.8662
11126TIP3    H254870   2.557   6.575   4.475  0.4361 -2.2346 -1.3755
11127TIP3   OH254871   3.140   6.697  15.228 -0.1861 -0.1677  0.0489
11127TIP3    H154872   3.127   6.750  15.306 -1.6372  0.2136 -0.4252
11127TIP3    H254873   3.052   6.670  15.202  0.3783 -1.3498 -0.7308
11128TIP3   OH254874   5.785   0.028  12.744 -0.1205 -0.6637 -0.1884
11128TIP3    H154875   5.702   0.073  12.729  0.9333  1.2773 -0.4979
11128TIP3    H254876   5.810  -0.006  12.658 -1.5748 -3.1803  0.2824
11129TIP3   OH254877   5.248   0.790   2.827 -0.2393  0.3729  0.7175
11129TIP3    H154878   5.244   0.793   2.731  1.1786  0.4646  0.6461
11129TIP3    H254879   5.160   0.815   2.855 -0.9078 -0.4378 -0.5669
11130TIP3   OH254880   3.376   1.204   2.938  0.3000 -0.0901 -0.3126
11130TIP3    H154881   3.347   1.276   2.882 -0.0605  0.1718  0.2099
11130TIP3    H254882   3.460   1.234   2.974  0.5386 -0.2634 -0.7084
11131TIP3   OH254883   4.571   1.159  17.121 -0.1577 -0.2272  0.2902
11131TIP3    H154884   4.618   1.132  17.043 -0.9703  0.3805 -0.4282
11131TIP3    H254885   4.630   1.137  17.194 -0.6661 -3.7147 -0.2035
11132TIP3   OH254886   4.907   3.188   1.162  0.3409  0.0730 -0.8831
11132TIP3    H154887   4.945   3.136   1.233  0.5045 -0.8818 -1.6465
11132TIP3    H254888   4.918   3.279   1.190  0.1878 -0.2892  0.4179
11133TIP3   OH254889   2.378   1.156   0.715 -0.0277 -0.1429 -0.0644
11133TIP3    H154890   2.324   1.132   0.791 -0.0488  0.8434  0.2471
11133TIP3    H254891   2.325   1.131   0.639 -0.5492  0.0225  0.2401
11134TIP3   OH254892   4.275   0.535   1.472  0.2854  0.8435 -0.4403
11134TIP3    H154893   4.204   0.500   1.526  1.0191 -1.3390 -0.7788
11134TIP3    H254894   4.242   0.528   1.382  0.3412  1.3508 -0.5060
11135TIP3   OH254895   5.987   5.653  13.204  0.4127  0.4036 -0.0815
11135TIP3    H154896   6.077   5.625  13.219  0.4516  0.7033  0.2733
11135TIP3    H254897   5.945   5.579  13.162  1.3428  0.9298 -2.0870
11136TIP3   OH254898   3.880   2.004   3.412  0.2933  0.0777 -0.1631
11136TIP3    H154899   3.816   1.986   3.343  0.7489 -1.7398 -0.1806
11136TIP3    H254900   3.961   1.964   3.380  0.2186 -1.9266  1.9066
11137TIP3   OH254901   2.789   2.258   3.117 -0.0558 -0.2805 -0.2365
11137TIP3    H154902   2.824   2.177   3.080  1.3081 -0.3364  1.0777
11137TIP3    H254903   2.741   2.230   3.195 -0.1197  0.1147 -0.1317
11138TIP3   OH254904   2.153   2.235   6.310 -0.0781 -0.2500 -0.1949
11138TIP3    H154905   2.095   2.216   6.384 -0.2046  0.3518 -0.1358
11138TIP3    H254906   2.216   2.163   6.311 -1.9361 -2.0143 -1.4372
11139TIP3   OH254907   5.728   3.265  14.516 -0.4819  0.2664 -0.2508
11139TIP3    H154908   5.643   3.224  14.499 -0.7666  0.2854  1.0051
11139TIP3    H254909   5.789   3.219  14.458 -0.9547 -1.2968  0.4457
11140TIP3   OH254910   1.685   3.595   0.331 -0.3850 -0.2742  0.4983
11140TIP3    H154911   1.777   3.620   0.329 -0.2959 -0.5344 -1.9592
11140TIP3    H254912   1.679   3.529   0.401  1.3586 -0.4870  0.4793
11141TIP3   OH254913   4.513   4.583  16.490  0.0564 -0.1810  0.2451
11141TIP3    H154914   4.582   4.581  16.555  1.4453 -0.1758 -1.1834
11141TIP3    H254915   4.549   4.539  16.413 -1.7083 -0.6468 -0.3856
11142TIP3   OH254916   6.424   5.927   4.366  0.1535 -0.2828 -0.2329
11142TIP3    H154917   6.498   5.872   4.394  0.5864 -0.1524 -1.0855
11142TIP3    H254918   6.388   5.882   4.290 -0.1452  0.0730 -0.3056
11143TIP3   OH254919   5.175   2.175   3.538  0.3237 -0.0163 -0.2149
11143TIP3    H154920   5.193   2.265   3.511  0.4872 -0.2156 -0.7752
11143TIP3    H254921   5.118   2.140   3.470 -0.5101 -0.0477  0.4836
11144TIP3   OH254922   1.896   3.402   2.053 -0.3253  0.0772  0.2113
11144TIP3    H154923   1.857   3.384   1.968  0.9115 -2.0012  0.0334
11144TIP3    H254924   1.897   3.317   2.098  1.3618  0.6256  1.3086
11145TIP3   OH254925   2.870   2.729   3.856  0.1176 -0.5880  0.0340
11145TIP3    H154926   2.935   2.675   3.901  0.3262 -1.2322 -0.9995
11145TIP3    H254927   2.870   2.696   3.766 -1.6500 -0.6288  0.0086
11146TIP3   OH254928   2.262   6.183   1.510  0.3038  0.2094 -0.3449
11146TIP3    H154929   2.303   6.096   1.515 -1.4767 -0.7133 -0.9498
11146TIP3    H254930   2.211   6.180   1.429 -0.0496  1.7173 -0.1965
11147TIP3   OH254931   5.908   3.837   0.316 -0.4178  0.1942  0.2085
11147TIP3    H154932   5.904   3.924   0.356  0.7260  1.0120 -1.3424
11147TIP3    H254933   6.001   3.819   0.308 -0.6382 -1.3351  0.7615
11148TIP3   OH254934   0.946   6.570  17.233 -0.5077  0.4302 -0.1504
11148TIP3    H154935   0.864   6.547  17.277 -0.5894 -0.1521 -0.5947
11148TIP3    H254936   0.952   6.508  17.160  1.2305 -0.8028  0.9470
11149TIP3   OH254937   6.442   1.560   1.356 -0.2212  0.2774  0.0002
11149TIP3    H154938   6.401   1.620   1.418 -1.2708  0.1631 -0.5593
11149TIP3    H254939   6.487   1.496   1.410 -0.6700  0.4905  0.6371
11150TIP3   OH254940   4.172   6.504  16.733  0.1372 -0.2756  0.1530
11150TIP3    H154941   4.095   6.470  16.688 -0.1575  0.6339 -0.0514
11150TIP3    H254942   4.151   6.495  16.826 -0.5799  0.7065  0.1118
11151TIP3   OH254943   1.922   4.574   2.049 -0.0906  0.7203  0.3361
11151TIP3    H154944   1.889   4.485   2.065  1.2143  0.2975  0.8525
11151TIP3    H254945   1.857   4.614   1.992 -1.2850 -0.1816  1.0190
11152TIP3   OH254946   1.677   4.101   3.714  0.1886 -0.5026  0.0910
11152TIP3    H154947   1.692   4.076   3.623  3.3592  1.0808  0.0623
11152TIP3    H254948   1.698   4.194   3.717 -1.5213 -0.1020  2.1567
11153TIP3   OH254949   0.530   1.537  15.673 -0.1516  0.4191  0.8726
11153TIP3    H154950   0.527   1.493  15.758  2.8283  0.2122  0.9589
11153TIP3    H254951   0.536   1.630  15.695 -0.2879  0.4291  0.8666
11154TIP3   OH254952   0.998   4.903   1.075 -0.3772 -0.4489  0.7495
11154TIP3    H154953   0.992   4.850   0.996 -0.6174 -0.6323  0.8916
11154TIP3    H254954   0.991   4.993   1.044  0.0334 -0.4947  0.5070
11155TIP3   OH254955   3.692   1.975   0.952 -0.3106  0.3632 -0.1637
11155TIP3    H154956   3.692   1.904   1.016 -1.9036  0.5451  0.0822
11155TIP3    H254957   3.747   1.943   0.881  0.0444 -0.5746  0.5087
11156TIP3   OH254958   3.248   3.395  15.649 -0.0564 -0.1051  0.1664
11156TIP3    H154959   3.286   3.314  15.614 -0.3222 -0.6172  1.0495
11156TIP3    H254960   3.156   3.374  15.665 -0.2086  0.4781  0.0970
11157TIP3   OH254961   3.054   4.715   1.714 -0.7183 -0.1694  0.4135
11157TIP3    H154962   3.045   4.784   1.780 -0.8549  1.0431 -0.8315
11157TIP3    H254963   2.969   4.714   1.670  0.3066  1.2146 -1.7700
11158TIP3   OH254964   3.119   2.816   1.053 -0.3546 -0.2412  0.2668
11158TIP3    H154965   3.119   2.911   1.057 -1.1519 -0.1908 -0.6406
11158TIP3    H254966   3.164   2.795   0.971 -2.9259 -0.5125 -1.1798
11159TIP3   OH254967   1.733   3.638   1.417  0.2862 -0.1022 -0.4093
11159TIP3    H154968   1.751   3.702   1.485 -1.8763 -0.2617  0.3827
11159TIP3    H254969   1.648   3.664   1.382 -0.2853 -2.0793 -0.6005
11160TIP3   OH254970   3.694   3.732   5.536 -0.1794  0.7119  0.2325
11160TIP3    H154971   3.609   3.717   5.577 -0.1962  2.2888  0.8370
11160TIP3    H254972   3.675   3.789   5.462  0.4027  1.4288  0.6290
11161TIP3   OH254973   1.109   4.109  11.112 -0.1898 -0.8633 -0.0094
11161TIP3    H154974   1.166   4.035  11.135  0.0305 -0.1256  1.9319
11161TIP3    H254975   1.025   4.068  11.090 -0.5583 -1.6604  2.5711
11162TIP3   OH254976   6.366   5.517   5.303 -0.3323 -0.8856  0.3811
11162TIP3    H154977   6.289   5.487   5.352  1.4691 -2.8513  2.2489
11162TIP3    H254978   6.396   5.594   5.352 -1.3594  0.2569 -0.7009
11163TIP3   OH254979   4.209   5.224  14.092 -0.3246 -0.0583 -0.1433
11163TIP3    H154980   4.293   5.254  14.058 -0.0408 -0.1965  0.4461
11163TIP3    H254981   4.224   5.206  14.184 -1.2796  1.0732  0.2735
11164TIP3   OH254982   0.493   4.686   6.209 -0.3085  0.2466  0.5523
11164TIP3    H154983   0.448   4.626   6.269 -0.2932  2.4764  2.9797
11164TIP3    H254984   0.470   4.773   6.241  1.9807  1.5363 -1.0210
11165TIP3   OH254985   3.718   3.355  14.058  0.1965 -0.1727  0.0979
11165TIP3    H154986   3.640   3.380  14.010  0.1183  0.8041  0.6980
11165TIP3    H254987   3.757   3.284  14.007 -1.0657 -0.6590 -0.2171
11166TIP3   OH254988   3.588   6.182  17.027  0.4425  0.1377  0.2215
11166TIP3    H154989   3.630   6.195  17.112 -0.1516 -0.9367  0.7074
11166TIP3    H254990   3.576   6.270  16.992  0.5767  0.6056  1.3119
11167TIP3   OH254991   2.076   0.863  12.576  0.4187 -0.1859  0.0692
11167TIP3    H154992   1.986   0.854  12.608 -0.4387 -1.4904 -2.4698
11167TIP3    H254993   2.118   0.920  12.641 -1.6553 -1.0966  2.3996
11168TIP3   OH254994   1.323   3.902  14.576  0.5716  0.9800 -0.2923
11168TIP3    H154995   1.418   3.904  14.586  0.4651  0.9873  0.8450
11168TIP3    H254996   1.291   3.967  14.638 -0.2308  0.2086  0.1226
11169TIP3   OH254997   4.487   2.137   3.528 -0.0019  0.3732  0.0281
11169TIP3    H154998   4.497   2.064   3.588  0.6254  0.6755  0.2914
11169TIP3    H254999   4.392   2.142   3.512 -0.0031 -0.8888 -0.4940
11170TIP3   OH255000   6.507   0.731  10.561  0.3808  0.0662 -0.3093
11170TIP3    H155001   6.527   0.823  10.548 -0.9585  0.0193 -3.4962
11170TIP3    H255002   6.413   0.730  10.581  0.3723 -0.5981 -0.3555
11171TIP3   OH255003   5.509   5.647  15.746  0.0332 -0.2185  0.1655
11171TIP3    H155004   5.413   5.647  15.748  0.0355  0.3694  0.5345
11171TIP3    H255005   5.535   5.584  15.813 -0.0959 -1.4218 -0.8836
11172TIP3   OH255006   4.756   6.799  15.341 -0.3464  0.0902  0.0421
11172TIP3    H155007   4.668   6.765  15.357  0.3142 -1.5630  0.3796
11172TIP3    H255008   4.798   6.733  15.285  0.0852  1.7660 -1.7663
11173TIP3   OH255009   2.197   5.245  14.132 -0.0252 -0.0027 -0.5284
11173TIP3    H155010   2.231   5.232  14.044 -0.3584 -2.2878 -0.3689
11173TIP3    H255011   2.260   5.201  14.189 -0.9222 -0.4223  0.1660
11174TIP3   OH255012   0.911   6.484   5.973 -0.0295  0.3861  0.2099
11174TIP3    H155013   0.944   6.529   6.051  1.0228 -0.1789  0.1189
11174TIP3    H255014   0.948   6.534   5.900 -1.3709  1.1760  0.0470
11175TIP3   OH255015   3.755   1.643  12.312 -0.1783 -0.2328  0.2249
11175TIP3    H155016   3.695   1.612  12.380 -0.1202 -2.8362 -0.8046
11175TIP3    H255017   3.789   1.726  12.346 -3.1222  0.5640  1.5585
11176TIP3   OH255018   4.822   3.910  10.743 -0.4297  0.3219  0.2285
11176TIP3    H155019   4.845   3.986  10.690  1.4472  0.0910  0.6494
11176TIP3    H255020   4.789   3.846  10.680  0.6158  0.4861 -0.4979
11177TIP3   OH255021   0.570   6.070  13.832  0.5341  0.0337 -0.1001
11177TIP3    H155022   0.571   5.988  13.880 -2.7808  0.2275  0.5455
11177TIP3    H255023   0.561   6.045  13.740 -2.1472 -0.4182  0.2273
11178TIP3   OH255024   3.866   1.874  12.403 -0.2666 -0.3668 -0.2497
11178TIP3    H155025   3.900   1.912  12.484 -0.3705  1.5958 -1.0764
11178TIP3    H255026   3.940   1.874  12.342 -1.1110  1.8899 -1.3676
11179TIP3   OH255027   0.292   1.468  16.916 -0.2964  0.2039 -0.6118
11179TIP3    H155028   0.383   1.469  16.888 -0.2139  0.2252 -0.3442
11179TIP3    H255029   0.281   1.384  16.960 -1.0832 -0.9493 -2.8371
11180TIP3   OH255030   0.658   5.991   6.509 -0.4326 -0.1295 -0.0968
11180TIP3    H155031   0.715   5.981   6.585 -1.7996 -2.2120  0.7606
11180TIP3    H255032   0.627   6.081   6.513 -0.2810 -0.1275  1.6853
11181TIP3   OH255033   3.329   6.517  15.198 -0.5420  0.2127  0.2427
11181TIP3    H155034   3.261   6.580  15.221 -1.3534 -0.0851 -1.2450
11181TIP3    H255035   3.325   6.510  15.103  1.7113  0.3281  0.0933
11182TIP3   OH255036   6.249   4.515   2.360 -0.2394 -0.0345 -0.3139
11182TIP3    H155037   6.320   4.505   2.423  1.0034 -0.9715 -1.7935
11182TIP3    H255038   6.237   4.427   2.323  0.0169  0.7364 -2.3497
11183TIP3   OH255039   3.941   4.793   2.701 -0.2752 -0.0554 -0.4557
11183TIP3    H155040   3.994   4.798   2.622  1.3278  0.1518  0.5896
11183TIP3    H255041   3.998   4.752   2.766 -1.5555 -0.2261  0.6007
11184TIP3   OH255042   1.550   0.788  12.107  0.5556 -0.1091 -0.3373
11184TIP3    H155043   1.473   0.731  12.107  0.2988  0.2291  0.3418
11184TIP3    H255044   1.614   0.743  12.162  1.0920 -0.6974 -1.4043
11185TIP3   OH255045   5.052   2.882   0.793  0.5275 -0.1610  0.0118
11185TIP3    H155046   5.072   2.971   0.825  1.6103 -0.0278 -0.9317
11185TIP3    H255047   4.963   2.888   0.758  0.8462  0.7717 -0.6953
11186TIP3   OH255048   3.378   1.751  14.457  0.3100  0.2655  0.2055
11186TIP3    H155049   3.334   1.796  14.529  0.7911  2.5495 -0.8540
11186TIP3    H255050   3.313   1.688  14.426 -1.0920  1.4707  0.6004
11187TIP3   OH255051   2.603   6.066   1.407 -0.0565 -0.1783  0.0346
11187TIP3    H155052   2.552   6.060   1.488  1.1101 -1.9584  0.7077
11187TIP3    H255053   2.592   5.981   1.365  1.8210 -0.4016 -0.0986
11188TIP3   OH255054   4.565   6.388  14.963  0.3574  0.3500  0.0450
11188TIP3    H155055   4.625   6.462  14.955 -0.0336  0.9077  1.8307
11188TIP3    H255056   4.492   6.422  15.014 -0.7606 -0.7489 -0.7631
11189TIP3   OH255057   0.313   3.289  11.926  0.3975  0.3781  0.3187
11189TIP3    H155058   0.398   3.321  11.896  0.2970  1.4633  1.1173
11189TIP3    H255059   0.289   3.221  11.863  0.8708  1.5472 -1.1998
11190TIP3   OH255060   4.961   2.825  16.093  0.1316 -0.4253  0.6028
11190TIP3    H155061   4.967   2.733  16.122  0.9090 -0.9290 -1.0657
11190TIP3    H255062   4.971   2.821  15.998  0.6715  1.4452  0.5485
11191TIP3   OH255063   2.954   4.270   3.901 -0.6702 -0.0781  0.3753
11191TIP3    H155064   2.916   4.185   3.920 -1.9249  0.3991  0.0532
11191TIP3    H255065   2.887   4.317   3.853  0.6261  0.5088 -0.9400
11192TIP3   OH255066   6.139   5.953  14.180 -0.2955  0.0177  0.4060
11192TIP3    H155067   6.130   5.898  14.258 -1.4044  1.5508  1.3984
11192TIP3    H255068   6.123   5.893  14.107  2.7862 -1.9482  1.1422
11193TIP3   OH255069   6.078   1.716  17.215 -0.3138  0.3207  0.3859
11193TIP3    H155070   6.002   1.757  17.174 -0.3950 -1.0586 -0.9448
11193TIP3    H255071   6.153   1.749  17.166 -0.5360 -3.0392 -2.7321
11194TIP3   OH255072   3.817   2.765   1.347  0.4562 -0.7556  0.7907
11194TIP3    H155073   3.814   2.766   1.442  0.2432 -2.1605  0.8162
11194TIP3    H255074   3.899   2.721   1.325  0.1449 -1.1290  0.3392
11195TIP3   OH255075   2.692   6.398  11.349 -0.4473  0.1891 -0.0739
11195TIP3    H155076   2.761   6.438  11.402 -1.3739  0.2087  1.1578
11195TIP3    H255077   2.739   6.356  11.276  0.9123 -0.2486  1.0131
11196TIP3   OH255078   3.148   3.315  12.524 -0.6900  0.2907 -0.2206
11196TIP3    H155079   3.179   3.359  12.445  1.8201 -0.8431  0.0310
11196TIP3    H255080   3.153   3.381  12.593 -0.9397  0.7252 -0.6171
11197TIP3   OH255081   4.981   2.445  12.335 -0.2840  0.7038  0.5212
11197TIP3    H155082   5.040   2.372  12.313  1.8887  1.9006  2.0051
11197TIP3    H255083   4.909   2.436  12.274  1.9232 -0.2462 -2.1687
11198TIP3   OH255084   3.096   1.358  15.477  0.4542  0.2052 -0.0243
11198TIP3    H155085   3.165   1.360  15.411  0.7571 -1.7635  0.1958
11198TIP3    H255086   3.015   1.364  15.427  0.7202  0.3113 -0.4537
11199TIP3   OH255087   0.553   2.928   0.542  0.2880 -0.0015  0.0535
11199TIP3    H155088   0.568   2.939   0.636 -0.8306 -0.7197  0.3412
11199TIP3    H255089   0.610   2.992   0.501  0.4427  0.6572  1.2446
11200TIP3   OH255090   3.155   6.322   2.745  0.3020  0.2265  0.3607
11200TIP3    H155091   3.167   6.240   2.792 -0.1365  0.0834  0.2291
11200TIP3    H255092   3.201   6.387   2.798 -0.0944  0.0515  0.9281
11201TIP3   OH255093   5.154   4.295  15.263  0.2489 -0.5543 -0.1987
11201TIP3    H155094   5.214   4.287  15.189  0.6305  1.6217 -0.1754
11201TIP3    H255095   5.199   4.251  15.335 -0.4267 -3.3144 -1.3406
11202TIP3   OH255096   4.345   3.709  14.594  0.4327 -0.1242 -0.0738
11202TIP3    H155097   4.347   3.614  14.605  0.8943 -0.1918 -0.7033
11202TIP3    H255098   4.372   3.723  14.503 -1.3152  0.5230 -0.5150
11203TIP3   OH255099   6.290   2.932  16.596  0.4718  0.2651 -0.0558
11203TIP3    H155100   6.235   2.968  16.665 -0.9276 -0.3132 -0.8296
11203TIP3    H255101   6.326   3.009  16.552 -1.3176  0.7300 -0.7766
11204TIP3   OH255102   1.491   4.390   3.476 -0.1990  0.4572  0.3421
11204TIP3    H155103   1.551   4.464   3.479  0.5869 -0.1889  1.0269
11204TIP3    H255104   1.492   4.353   3.564  1.3411 -1.8279 -0.5322
11205TIP3   OH255105   4.161   3.269  15.207  0.0670 -0.2826  0.1196
11205TIP3    H155106   4.141   3.215  15.130 -1.5764  0.7419 -0.2354
11205TIP3    H255107   4.257   3.270  15.212  0.1829 -3.6471  0.5062
11206TIP3   OH255108   4.626   5.097  16.104 -0.0124  0.1547  0.0344
11206TIP3    H155109   4.559   5.153  16.064 -0.8303 -1.0128 -0.3059
11206TIP3    H255110   4.649   5.142  16.186  0.1594  1.5152 -0.7302
11207TIP3   OH255111   2.363   4.836   0.031 -0.2394 -0.2740 -0.2528
11207TIP3    H155112   2.316   4.877   0.104 -1.0679  0.2371 -1.0502
11207TIP3    H255113   2.403   4.758   0.069  1.3540  1.2212  1.3183
11208TIP3   OH255114   6.381   3.663   5.167 -0.1489  0.1081 -0.0524
11208TIP3    H155115   6.353   3.745   5.207 -0.1090  0.1909 -0.1916
11208TIP3    H255116   6.432   3.690   5.091 -0.0937 -0.0462 -0.0704
11209TIP3   OH255117   2.778   1.455   6.105 -0.0334  0.2075  1.2509
11209TIP3    H155118   2.814   1.531   6.060  0.0514 -0.4094  0.2602
11209TIP3    H255119   2.852   1.416   6.150  0.8239 -1.5186 -1.4222
11210TIP3   OH255120   0.182   4.575  14.862 -0.4875  0.6165 -0.2062
11210TIP3    H155121   0.091   4.602  14.850 -0.7119 -0.5073 -1.1956
11210TIP3    H255122   0.225   4.599  14.780 -0.2698 -0.3103 -0.3646
11211TIP3   OH255123   3.398   2.682   1.106  0.2774 -0.2156  0.1168
11211TIP3    H155124   3.320   2.667   1.159  0.8952 -0.5790  0.9434
11211TIP3    H255125   3.472   2.662   1.165  0.9960  0.2684 -0.5978
11212TIP3   OH255126   2.405   2.789  11.772  0.3981 -0.0966 -0.2537
11212TIP3    H155127   2.485   2.745  11.803  0.2046 -0.0763  0.2854
11212TIP3    H255128   2.334   2.738  11.810  0.1624  1.0961  1.0296
11213TIP3   OH255129   2.410   0.338   2.312 -0.1573  0.7270  0.6111
11213TIP3    H155130   2.449   0.287   2.383  0.2304 -1.9119 -1.3489
11213TIP3    H255131   2.324   0.299   2.299  0.7424 -0.6393 -1.9586
11214TIP3   OH255132   6.068   0.910   4.359  0.2347 -0.3451  0.1445
11214TIP3    H155133   6.021   0.921   4.441 -0.9363  1.5534 -0.7266
11214TIP3    H255134   6.014   0.849   4.309  0.5446 -0.8860  0.4517
11215TIP3   OH255135   4.085   4.101  10.700 -0.2094  0.7251  0.1183
11215TIP3    H155136   4.162   4.050  10.723 -0.0039  1.0404  0.1259
11215TIP3    H255137   4.117   4.167  10.639 -0.8548 -0.5446 -1.7033
11216TIP3   OH255138   4.183   5.563   3.397 -0.2351 -0.2570 -0.2741
11216TIP3    H155139   4.223   5.623   3.333 -1.6976  1.7138  0.5372
11216TIP3    H255140   4.091   5.560   3.371 -0.8345  0.5039  1.6433
11217TIP3   OH255141   4.011   2.276   4.440 -0.7748 -0.0368  0.4026
11217TIP3    H155142   3.979   2.356   4.482 -0.9052  0.2142 -0.1716
11217TIP3    H255143   4.017   2.298   4.347 -1.4095 -0.8900  0.1504
11218TIP3   OH255144   4.526   1.978   2.230  0.3135  0.0286 -0.4917
11218TIP3    H155145   4.606   1.987   2.177  0.8114  2.7838  0.5567
11218TIP3    H255146   4.538   1.895   2.277  0.2975 -2.0372 -3.7961
11219TIP3   OH255147   1.784   4.513  12.080  0.3323  0.3860  0.2411
11219TIP3    H155148   1.696   4.480  12.064  0.1445  0.7531  0.4783
11219TIP3    H255149   1.815   4.542  11.994 -0.2792  1.4318  0.3433
11220TIP3   OH255150   6.434   6.506   2.021  0.6725  0.4675 -0.3763
11220TIP3    H155151   6.506   6.492   2.082  0.7689 -1.2771 -0.8401
11220TIP3    H255152   6.476   6.542   1.942  1.0986 -0.6977 -0.7050
11221TIP3   OH255153   4.276   0.016   3.278 -0.5858  1.0931 -0.4934
11221TIP3    H155154   4.303  -0.066   3.237 -1.9137  1.5295 -2.4122
11221TIP3    H255155   4.354   0.047   3.324  0.5191 -0.2841 -1.3479
11222TIP3   OH255156   6.179   4.348  13.175  0.1122 -0.0257 -0.0977
11222TIP3    H155157   6.153   4.382  13.260 -1.1895 -0.5867 -0.2564
11222TIP3    H255158   6.152   4.415  13.112 -0.1752 -0.2299 -0.1917
11223TIP3   OH255159   3.134   6.437  15.396 -0.0091  0.3446  0.1448
11223TIP3    H155160   3.110   6.507  15.334  0.9023  1.0199  0.5295
11223TIP3    H255161   3.229   6.447  15.407 -0.1870  0.4172  1.8594
11224TIP3   OH255162   5.452   5.953   0.601 -0.0118  0.1366  0.0641
11224TIP3    H155163   5.406   6.018   0.548  1.1614  0.3618 -0.6954
11224TIP3    H255164   5.391   5.879   0.606 -1.7520  1.5789  1.7107
11225TIP3   OH255165   4.101   5.331  16.404  0.1670 -0.6080 -0.7953
11225TIP3    H155166   4.117   5.239  16.424  0.8574 -0.6341 -1.4084
11225TIP3    H255167   4.179   5.377  16.435 -0.1087 -0.2551 -0.6253
11226TIP3   OH255168   2.476   0.420  17.165  0.0997 -0.4288 -0.0961
11226TIP3    H155169   2.546   0.384  17.218 -1.2727 -0.8837  1.4916
11226TIP3    H255170   2.497   0.513  17.155  0.6839 -0.4626  0.7445
11227TIP3   OH255171   3.069   0.527  14.965 -0.1253  0.2848  0.7487
11227TIP3    H155172   3.026   0.611  14.947  1.3489  0.7460 -0.8445
11227TIP3    H255173   3.142   0.548  15.023  1.7650  0.5965 -1.5903
11228TIP3   OH255174   1.411   6.100  13.829  0.1386 -0.0222 -0.0810
11228TIP3    H155175   1.391   6.177  13.882 -1.6992 -0.5982  0.1197
11228TIP3    H255176   1.504   6.084  13.844  0.0082  0.7381  1.7482
11229TIP3   OH255177   0.984   6.461  14.061  0.1623  0.4536  0.3770
11229TIP3    H155178   0.987   6.495  13.971 -1.2010  0.8513  0.4700
11229TIP3    H255179   1.042   6.518  14.110  0.5005  0.5661 -0.1438
11230TIP3   OH255180   6.448   0.388  10.759  0.0314  0.4774  0.0246
11230TIP3    H155181   6.485   0.366  10.844 -0.9760 -1.9878 -0.0676
11230TIP3    H255182   6.402   0.470  10.773 -1.6046 -0.7233  2.3971
11231TIP3   OH255183   6.156   2.910   4.067  0.3514  0.6240 -0.1776
11231TIP3    H155184   6.074   2.890   4.112  1.3118 -1.7269  0.7014
11231TIP3    H255185   6.210   2.953   4.133  0.7240 -0.2017  0.0734
11232TIP3   OH255186   4.897   5.412  11.370  0.1860  0.2858  0.0413
11232TIP3    H155187   4.853   5.472  11.310 -0.4367  0.4427  0.6421
11232TIP3    H255188   4.904   5.330  11.322  2.5429  1.2498 -1.4336
11233TIP3   OH255189   0.197   2.685  13.194 -0.6861  1.0019  0.0307
11233TIP3    H155190   0.104   2.683  13.170 -0.3767 -0.4589 -1.1353
11233TIP3    H255191   0.234   2.755  13.139 -0.5229 -0.5049 -1.8903
11234TIP3   OH255192   4.503   1.594   5.574  0.0999  0.3949  0.1870
11234TIP3    H155193   4.460   1.519   5.534 -0.8524 -0.2490  2.2789
11234TIP3    H255194   4.553   1.557   5.647  0.4338  1.6913  0.6507
11235TIP3   OH255195   2.035   2.637  14.647  0.5540  0.2054 -0.0769
11235TIP3    H155196   1.950   2.661  14.684 -0.8641 -1.1883 -2.1794
11235TIP3    H255197   2.039   2.684  14.564  2.3953  1.1233  0.4944
11236TIP3   OH255198   2.986   3.436  15.985 -0.6452 -0.6338  0.0342
11236TIP3    H155199   2.908   3.465  16.032  1.4660  3.6256  1.5046
11236TIP3    H255200   3.018   3.360  16.033 -2.3852 -0.7459  1.0618
11237TIP3   OH255201   0.171   5.875   2.376 -0.4191  0.0819 -0.4698
11237TIP3    H155202   0.163   5.892   2.470 -1.1856  3.4382 -0.9873
11237TIP3    H255203   0.081   5.880   2.344 -0.1052 -0.4624 -1.4511
11238TIP3   OH255204   6.157   1.163  14.968  0.3405 -0.0448  0.2372
11238TIP3    H155205   6.101   1.224  14.921  0.5987  0.5418  0.6820
11238TIP3    H255206   6.147   1.186  15.060  0.5199 -0.6043  0.3996
11239TIP3   OH255207   1.877   3.351   2.470 -0.2968 -0.5432 -0.0665
11239TIP3    H155208   1.867   3.318   2.381  0.1439 -0.0263 -0.3104
11239TIP3    H255209   1.799   3.320   2.516 -0.3123 -1.1870 -0.5149
11240TIP3   OH255210   3.819   5.933  14.959  0.0364  0.4598 -0.8297
11240TIP3    H155211   3.739   5.943  14.908  0.7677  0.5171 -2.0164
11240TIP3    H255212   3.886   5.978  14.907  0.6093  1.5253  0.7504
11241TIP3   OH255213   0.094   6.320  17.043 -0.2094  0.1225 -0.6650
11241TIP3    H155214   0.000   6.299  17.041 -0.5133  1.3879 -0.5717
11241TIP3    H255215   0.135   6.242  17.080 -1.3138 -0.1597  0.0273
11242TIP3   OH255216   6.672   4.527  16.190  0.9186 -0.6614  0.4789
11242TIP3    H155217   6.744   4.584  16.161  1.3195 -1.4805 -0.1679
11242TIP3    H255218   6.594   4.581  16.182  1.3022 -0.1707 -0.0526
11243TIP3   OH255219   4.163   5.691  12.604 -0.3399  0.2130  0.1154
11243TIP3    H155220   4.077   5.662  12.634  0.0001  0.0106  0.9173
11243TIP3    H255221   4.144   5.753  12.533 -1.1325 -0.0630  0.0748
11244TIP3   OH255222   3.900   3.003   4.613  0.0183  0.5431  0.0625
11244TIP3    H155223   3.883   2.913   4.640  1.4024  1.0312  2.9468
11244TIP3    H255224   3.827   3.053   4.649 -0.7552  0.6356 -1.5461
11245TIP3   OH255225   2.539   1.338   2.329  0.2659  0.8590  0.0615
11245TIP3    H155226   2.555   1.419   2.378  0.7023  0.6828  0.2098
11245TIP3    H255227   2.541   1.365   2.237 -0.7856  1.2343  0.1319
11246TIP3   OH255228   1.851   1.698   2.544 -0.0165  0.7997  0.6849
11246TIP3    H155229   1.903   1.757   2.598 -0.5857  0.9165  1.1111
11246TIP3    H255230   1.770   1.746   2.527  0.6881  1.3583 -1.4558
11247TIP3   OH255231   3.696   4.969  14.088 -0.0567  0.2603  0.2366
11247TIP3    H155232   3.756   5.013  14.028  1.9600 -1.7075  0.6909
11247TIP3    H255233   3.624   4.939  14.032 -0.5096  2.3234 -0.3763
11248TIP3   OH255234   4.659   0.715  11.399  0.3761 -1.0393 -0.3116
11248TIP3    H155235   4.574   0.714  11.356  1.0018 -0.8322 -1.6097
11248TIP3    H255236   4.692   0.625  11.389 -0.5661 -1.7187  2.0865
11249TIP3   OH255237   6.536   2.693   5.012  0.0653  0.5993  0.3990
11249TIP3    H155238   6.515   2.781   4.982  0.4169  0.7761  0.6604
11249TIP3    H255239   6.624   2.676   4.976  0.2104  0.5579  0.7679
11250TIP3   OH255240   1.729   1.312   4.346  0.5399  0.0457 -0.0906
11250TIP3    H155241   1.797   1.252   4.317  1.6943  1.7149 -0.9533
11250TIP3    H255242   1.692   1.270   4.424  1.7351 -1.4491 -0.2849
11251TIP3   OH255243   6.658   4.730  15.387 -0.2271 -0.5147  0.0982
11251TIP3    H155244   6.728   4.714  15.451 -0.3293  0.6734  0.5167
11251TIP3    H255245   6.577   4.711  15.435 -0.2196 -2.3009 -0.5067
11252TIP3   OH255246   1.908   0.658  14.611  0.6021  0.0581 -0.5420
11252TIP3    H155247   1.833   0.699  14.568 -0.5907 -0.6700  0.7626
11252TIP3    H255248   1.971   0.729  14.624 -0.7643  1.1631  0.2787
11253TIP3   OH255249   1.402   3.708   4.595  0.5292  0.1593  0.0524
11253TIP3    H155250   1.326   3.669   4.553  0.3854  0.3253  0.1554
11253TIP3    H255251   1.448   3.755   4.525 -0.5925  1.8191  0.3706
11254TIP3   OH255252   2.357   5.935   1.499 -0.4018  0.0199  0.3853
11254TIP3    H155253   2.285   5.873   1.482  0.3640 -0.5899 -0.7786
11254TIP3    H255254   2.397   5.904   1.580 -2.0651  0.9855  1.6523
11255TIP3   OH255255   3.225   4.082  15.825  0.1424  0.3981  0.5543
11255TIP3    H155256   3.266   4.157  15.781 -1.7549  0.9162 -0.4269
11255TIP3    H255257   3.289   4.056  15.891  1.2907  2.2492  0.2658
11256TIP3   OH255258   4.665   2.024   1.685  0.1430 -0.0792  0.3518
11256TIP3    H155259   4.711   2.066   1.612  2.2929 -1.1123  1.0303
11256TIP3    H255260   4.639   1.938   1.651  1.7983 -0.8610  0.9478
11257TIP3   OH255261   2.906   2.531   0.705  0.6910 -0.2818 -0.3127
11257TIP3    H155262   2.845   2.592   0.663 -0.1557  0.0893  1.3623
11257TIP3    H255263   2.985   2.584   0.722  0.0038  0.3812  1.0239
11258TIP3   OH255264   4.018   4.504   4.665  0.5834 -0.2777  0.4158
11258TIP3    H155265   4.089   4.469   4.612  2.1648  2.9415  0.1780
11258TIP3    H255266   3.955   4.538   4.602  0.2425 -0.5364  0.6157
11259TIP3   OH255267   0.460   6.164  12.204 -0.1095  0.4655 -0.1930
11259TIP3    H155268   0.512   6.203  12.134 -0.4302  0.2626 -0.5444
11259TIP3    H255269   0.369   6.175  12.176 -0.2050 -0.4943 -0.2798
11260TIP3   OH255270   3.264   0.276   0.868 -0.9113  0.4920  0.0197
11260TIP3    H155271   3.257   0.342   0.798 -1.5268  0.9072  0.4636
11260TIP3    H255272   3.199   0.303   0.932 -1.7680 -1.0285 -0.1768
11261TIP3   OH255273   1.036   2.759   5.721  0.7912 -0.0313 -0.4594
11261TIP3    H155274   1.055   2.831   5.661  2.2112 -0.6685 -0.8155
11261TIP3    H255275   1.035   2.681   5.666 -0.9389 -0.3023 -0.1097
11262TIP3   OH255276   1.611   3.756  13.140 -0.0731  0.0089 -0.0311
11262TIP3    H155277   1.674   3.686  13.125 -0.0968 -0.0799  0.2781
11262TIP3    H255278   1.564   3.765  13.057 -0.2487 -0.5187  0.0108
11263TIP3   OH255279   5.583   0.622  16.344 -0.0547  0.2032 -0.3290
11263TIP3    H155280   5.488   0.614  16.348  0.0623 -1.3893 -0.1520
11263TIP3    H255281   5.602   0.638  16.252 -0.4461 -0.3909 -0.5151
11264TIP3   OH255282   1.981   3.924   3.240  0.0857 -0.0856 -0.0549
11264TIP3    H155283   1.937   3.850   3.283 -0.1499  0.0044 -0.1407
11264TIP3    H255284   2.038   3.961   3.308 -3.2940  2.6657  1.5906
11265TIP3   OH255285   3.424   0.933   5.236  0.5738 -0.2700  0.2162
11265TIP3    H155286   3.447   1.021   5.267 -1.3775  0.5701 -0.5866
11265TIP3    H255287   3.344   0.911   5.283 -1.4307  0.2581 -2.7008
11266TIP3   OH255288   6.637   2.881   2.835 -0.2901 -0.0033  0.2456
11266TIP3    H155289   6.588   2.834   2.768  0.5492  0.6589 -0.8722
11266TIP3    H255290   6.665   2.813   2.896  1.3911 -1.1220 -1.6338
11267TIP3   OH255291   1.160   0.969  14.615  0.9264  0.2360  0.9650
11267TIP3    H155292   1.183   0.877  14.606  1.7076  0.3538  1.6328
11267TIP3    H255293   1.207   1.013  14.544 -0.9506 -0.0868 -0.5643
11268TIP3   OH255294   5.996   3.888   3.385 -0.2683  0.2995 -0.1441
11268TIP3    H155295   6.011   3.907   3.477  0.2396  2.0897 -0.5571
11268TIP3    H255296   5.918   3.939   3.362  1.0161  1.9212 -1.2455
11269TIP3   OH255297   0.287   0.285   3.662  0.0340  0.3229 -0.1095
11269TIP3    H155298   0.375   0.258   3.689 -0.5585 -0.8084  0.7340
11269TIP3    H255299   0.299   0.321   3.573  1.2474 -0.3624 -0.2372
11270TIP3   OH255300   1.579   0.951  14.366  0.2295  0.5049  0.3156
11270TIP3    H155301   1.625   0.870  14.345 -1.3887  0.0169 -1.7688
11270TIP3    H255302   1.641   1.020  14.345  1.2143 -0.1533  0.9815
11271TIP3   OH255303   3.776   6.803   4.194  0.3637 -0.1812 -0.4024
11271TIP3    H155304   3.684   6.820   4.210  0.3081 -0.6939 -0.1691
11271TIP3    H255305   3.811   6.887   4.165 -0.0397  0.1654  0.1130
11272TIP3   OH255306   2.197   3.919  10.991  0.1994  0.0636  0.1748
11272TIP3    H155307   2.262   3.857  10.959 -0.1295 -0.5241  0.6180
11272TIP3    H255308   2.175   3.973  10.915 -0.4712 -1.2131 -0.5724
11273TIP3   OH255309   1.959   0.015  13.713  0.8445  0.4043  0.2224
11273TIP3    H155310   2.034   0.069  13.686  1.2999 -0.5010 -0.3811
11273TIP3    H255311   1.892   0.033  13.648  1.7114 -1.2742 -1.2177
11274TIP3   OH255312   5.301   5.302   5.163  0.1228 -0.5455 -0.3432
11274TIP3    H155313   5.335   5.254   5.087  1.7546 -3.7397  2.1802
11274TIP3    H255314   5.369   5.366   5.183 -0.7565  1.0272 -1.9906
11275TIP3   OH255315   2.839   0.150  11.860  0.2330  0.7803 -0.3752
11275TIP3    H155316   2.858   0.114  11.774  0.6008  0.3413 -0.1171
11275TIP3    H255317   2.915   0.127  11.913 -0.8500 -0.7504  0.6149
11276TIP3   OH255318   3.183   4.462   5.628  0.1453  0.2612 -0.2786
11276TIP3    H155319   3.221   4.417   5.552 -0.3475 -1.2267  0.3198
11276TIP3    H255320   3.127   4.397   5.669 -0.9006  1.5539  0.4415
11277TIP3   OH255321   5.207   0.027  16.822  0.2173 -0.0540  0.7032
11277TIP3    H155322   5.288   0.076  16.830 -0.4428  0.9144  1.8361
11277TIP3    H255323   5.148   0.068  16.885 -1.4098 -0.2408 -0.6240
11278TIP3   OH255324   4.120   4.318  14.918 -0.0543  0.0555  0.3334
11278TIP3    H155325   4.189   4.356  14.972  0.2457  0.9988 -0.6788
11278TIP3    H255326   4.162   4.244  14.873  0.6990  1.3993 -1.2614
11279TIP3   OH255327   2.299   1.426   5.476 -0.0415  0.0270 -0.8602
11279TIP3    H155328   2.347   1.348   5.447  1.8722  0.8687 -0.1116
11279TIP3    H255329   2.366   1.482   5.516 -1.5282  1.6493 -0.5297
11280TIP3   OH255330   5.092   6.399   3.695  0.0940  0.3607  0.0937
11280TIP3    H155331   5.176   6.360   3.717 -1.5535 -2.0848  2.7455
11280TIP3    H255332   5.080   6.379   3.602  2.4439  0.9461 -0.3992
11281TIP3   OH255333   2.012   6.489   5.906  0.2099  0.3238  0.2025
11281TIP3    H155334   1.993   6.575   5.868 -0.1791 -0.0137 -0.3864
11281TIP3    H255335   1.944   6.431   5.870  2.1942 -0.9018 -1.8404
11282TIP3   OH255336   5.668   2.654   3.941 -0.3654 -0.2712  0.0853
11282TIP3    H155337   5.715   2.574   3.964 -1.4945 -1.2279 -0.7661
11282TIP3    H255338   5.592   2.623   3.891 -2.5244  1.0692  2.3087
11283TIP3   OH255339   0.811   1.099  11.643  0.4750 -0.1112 -0.3492
11283TIP3    H155340   0.854   1.182  11.663 -0.7928  0.7509 -1.0576
11283TIP3    H255341   0.799   1.100  11.548 -0.0485 -0.8500 -0.3022
11284TIP3   OH255342   5.479   2.504   6.363  0.9475 -0.1016  0.4235
11284TIP3    H155343   5.496   2.489   6.270 -0.2349 -1.4352  0.3915
11284TIP3    H255344   5.430   2.586   6.365  0.1691 -0.5346 -0.2289
11285TIP3   OH255345   0.992   5.834   2.024 -0.2329 -0.6045 -0.1151
11285TIP3    H155346   0.941   5.886   2.085 -0.9286  0.5171 -1.5848
11285TIP3    H255347   1.079   5.876   2.023 -0.3406 -0.3818 -0.1739
11286TIP3   OH255348   2.550   3.403   6.356  0.5024  0.1911 -0.5920
11286TIP3    H155349   2.476   3.462   6.344 -0.6036 -0.8807  0.5728
11286TIP3    H255350   2.605   3.447   6.421  0.5971  0.7336 -1.0343
11287TIP3   OH255351   0.435   1.803   6.202 -0.4941  0.3988 -0.2058
11287TIP3    H155352   0.439   1.887   6.248 -0.3459 -0.3019  1.1249
11287TIP3    H255353   0.488   1.743   6.255 -1.3780 -0.7708 -0.5821
11288TIP3   OH255354   5.575   4.261  12.192  0.0660 -0.0669 -0.2242
11288TIP3    H155355   5.526   4.324  12.246  1.3710  2.7816 -2.0877
11288TIP3    H255356   5.642   4.227  12.251  1.4242  2.9121  0.1622
11289TIP3   OH255357   4.475   3.207   1.270 -0.2658  0.1931 -0.1185
11289TIP3    H155358   4.542   3.183   1.206  1.2839  2.5595  0.4951
11289TIP3    H255359   4.504   3.165   1.351 -1.1689 -1.1764 -0.4644
11290TIP3   OH255360   3.757   0.458   0.443  0.2383  0.3007 -0.2655
11290TIP3    H155361   3.850   0.479   0.438  0.6337 -0.8888  1.0516
11290TIP3    H255362   3.717   0.532   0.489  0.5125  0.8766 -0.9599
11291TIP3   OH255363   1.550   1.694   5.094  0.1098 -0.3459 -0.1853
11291TIP3    H155364   1.595   1.755   5.035  0.5955 -0.1341  0.3875
11291TIP3    H255365   1.563   1.732   5.181  2.9867 -2.7096  0.5830
11292TIP3   OH255366   0.745   4.624   0.505  0.6980 -0.1262  0.6569
11292TIP3    H155367   0.743   4.719   0.494  2.4790 -0.1804 -0.6247
11292TIP3    H255368   0.834   4.605   0.533  0.1339 -1.3786  1.7254
11293TIP3   OH255369   0.066   2.360  11.590 -0.2735  0.0325 -0.5815
11293TIP3    H155370   0.125   2.424  11.631 -3.5203  2.8893  0.1579
11293TIP3    H255371   0.021   2.319  11.663  0.2126 -1.5536 -1.1413
11294TIP3   OH255372   5.530   5.611   4.845 -0.3976  0.4290  0.0520
11294TIP3    H155373   5.566   5.571   4.766  0.6323 -0.3767  0.8958
11294TIP3    H255374   5.448   5.652   4.816 -0.2602 -0.2136 -1.3353
11295TIP3   OH255375   6.017   0.946  16.053  0.5299 -0.5278  0.2268
11295TIP3    H155376   5.992   0.926  16.143 -3.6237 -0.6220 -0.7530
11295TIP3    H255377   5.934   0.965  16.009  2.6041  2.4744 -2.9159
11296TIP3   OH255378   0.461   5.282  14.985  0.3271 -0.1059 -0.2997
11296TIP3    H155379   0.444   5.226  15.060 -0.0985 -0.1544 -0.4320
11296TIP3    H255380   0.557   5.279  14.974  0.3245 -0.6629 -0.1986
11297TIP3   OH255381   1.478   1.253  12.864 -0.6241  0.5394  0.5297
11297TIP3    H155382   1.511   1.231  12.777 -0.7648  0.6860  0.4375
11297TIP3    H255383   1.508   1.343  12.879 -1.5949  0.9356  0.1401
11298TIP3   OH255384   2.385   6.462   5.263 -0.3600 -0.2729 -0.0895
11298TIP3    H155385   2.434   6.524   5.318  0.8884 -1.4583  0.1866
11298TIP3    H255386   2.297   6.463   5.298 -0.8730  2.6332 -1.1656
11299TIP3   OH255387   2.947   0.166  13.234  0.1519  0.5113  0.5196
11299TIP3    H155388   2.929   0.257  13.258 -1.7744  0.0421  1.0395
11299TIP3    H255389   2.935   0.118  13.316 -1.4302 -0.5123 -0.2814
11300TIP3   OH255390   4.498   6.042   0.711 -0.3920 -0.2718  0.1673
11300TIP3    H155391   4.437   5.993   0.656 -1.9362 -1.0808  2.4395
11300TIP3    H255392   4.446   6.116   0.742  0.1373 -0.3450  1.2560
11301TIP3   OH255393   3.651   5.505   3.749 -0.1682 -0.4065 -0.2194
11301TIP3    H155394   3.568   5.532   3.788 -0.5254 -0.1233 -1.1536
11301TIP3    H255395   3.629   5.429   3.696  0.4740 -1.3311  0.8025
11302TIP3   OH255396   5.938   3.640  16.486 -0.4415  0.8687  0.2874
11302TIP3    H155397   5.948   3.673  16.575 -2.9199 -0.2884  1.0725
11302TIP3    H255398   5.902   3.713  16.436  3.2884  2.3715 -0.5456
11303TIP3   OH255399   0.012   4.262   5.225  0.1748 -0.5122  0.1611
11303TIP3    H155400  -0.080   4.276   5.202  0.3187 -0.5773 -0.4978
11303TIP3    H255401   0.061   4.299   5.150  0.6603 -1.1443  0.1566
11304TIP3   OH255402   5.417   2.237  13.885 -1.1411  0.0755 -0.3689
11304TIP3    H155403   5.417   2.322  13.930  0.0046 -0.4841  0.7566
11304TIP3    H255404   5.384   2.175  13.950  0.6844 -0.7774 -0.1730
11305TIP3   OH255405   5.791   4.955   5.811  0.3700  0.3250 -0.3232
11305TIP3    H155406   5.735   4.975   5.736  0.8740  2.8607 -0.0947
11305TIP3    H255407   5.821   5.040   5.843  0.5650 -0.6878  2.4899
11306TIP3   OH255408   1.765   2.428   4.187 -0.2081  0.1206  0.3303
11306TIP3    H155409   1.705   2.379   4.131 -0.1184 -1.7764  1.8002
11306TIP3    H255410   1.852   2.403   4.156 -0.1259  1.6474 -0.7748
11307TIP3   OH255411   5.964   6.728   1.456 -0.2500  0.0363  0.2959
11307TIP3    H155412   5.951   6.775   1.539 -0.0203 -0.6685  0.7387
11307TIP3    H255413   6.059   6.724   1.446 -0.1205 -2.7592  1.7069
11308TIP3   OH255414   1.386   4.611  12.114 -0.4886 -0.5426  0.0255
11308TIP3    H155415   1.322   4.681  12.126 -0.0492  0.3255 -2.1729
11308TIP3    H255416   1.409   4.584  12.203 -1.4195  1.4122  0.9294
11309TIP3   OH255417   0.316   5.013  12.216  0.3635 -0.7842 -0.3580
11309TIP3    H155418   0.401   5.027  12.174 -0.5880 -0.0918 -2.1883
11309TIP3    H255419   0.324   4.929  12.260  2.1170 -0.5436 -0.1516
11310TIP3   OH255420   1.138   5.051   4.875 -0.4052  0.1354  0.4728
11310TIP3    H155421   1.085   4.972   4.862  1.1779 -1.1152  1.0928
11310TIP3    H255422   1.134   5.067   4.969  1.8404 -1.2260  0.8896
11311TIP3   OH255423   0.744   0.212  13.662  0.2464  1.1315  0.4569
11311TIP3    H155424   0.713   0.303  13.663 -2.3900  0.2972  0.8435
11311TIP3    H255425   0.677   0.163  13.709  1.2293 -1.1540 -0.4006
11312TIP3   OH255426   6.481   4.882  16.360 -0.2235  0.1739  0.0031
11312TIP3    H155427   6.432   4.802  16.343  0.2214  0.2691 -1.9783
11312TIP3    H255428   6.503   4.916  16.274 -1.2582  3.0041  0.7486
11313TIP3   OH255429   1.780   4.046   1.007  0.1851 -0.2376  0.4792
11313TIP3    H155430   1.708   4.037   0.944  0.9213  0.9045 -0.5604
11313TIP3    H255431   1.736   4.050   1.092 -1.2785  3.1731 -0.2711
11314TIP3   OH255432   4.866   5.576  16.187 -0.2380  0.1793 -0.1151
11314TIP3    H155433   4.911   5.533  16.260  0.3938  1.6404  0.3951
11314TIP3    H255434   4.796   5.627  16.229  0.0411  0.9219 -0.5260
11315TIP3   OH255435   4.049   1.973   2.392  0.1909  0.3436  0.2034
11315TIP3    H155436   4.097   1.950   2.471 -0.7471  0.4584  0.8116
11315TIP3    H255437   4.104   1.940   2.320  0.4246 -0.8962  0.9375
11316TIP3   OH255438   3.911   4.430  12.008  0.8960  0.6794 -0.1448
11316TIP3    H155439   3.944   4.429  12.097 -0.5941  0.0975  0.4381
11316TIP3    H255440   3.848   4.358  12.005 -0.3799  1.7811 -1.1385
11317TIP3   OH255441   1.475   2.245  15.228 -0.0586  0.0230  0.2593
11317TIP3    H155442   1.406   2.239  15.163  1.4527  1.4059 -1.5850
11317TIP3    H255443   1.429   2.253  15.312 -2.1670  1.7473 -0.9539
11318TIP3   OH255444   0.849   4.035  13.334  0.1854 -0.7408  0.6908
11318TIP3    H155445   0.924   3.980  13.357  0.4056 -0.2655  1.1225
11318TIP3    H255446   0.773   3.977  13.345  0.5081 -1.3358 -0.1242
11319TIP3   OH255447   4.099   2.015  16.024  0.2431 -0.0118 -0.1373
11319TIP3    H155448   4.009   2.047  16.013  0.5136  0.3725 -1.3863
11319TIP3    H255449   4.098   1.971  16.109 -1.0945  0.0912 -0.0697
11320TIP3   OH255450   1.771   4.030   5.716 -0.1544 -0.2728  0.5859
11320TIP3    H155451   1.731   4.054   5.800  1.8695 -0.9898  1.8103
11320TIP3    H255452   1.815   3.947   5.733  0.9437 -0.0503 -0.9786
11321TIP3   OH255453   0.914   4.498  14.264  0.5655  0.1009  0.8513
11321TIP3    H155454   0.866   4.565  14.214  0.7413  0.8584  1.6722
11321TIP3    H255455   0.856   4.422  14.264  0.8919 -0.1936 -1.1604
11322TIP3   OH255456   4.375   2.548   0.846  0.3254  0.2505  0.2500
11322TIP3    H155457   4.300   2.512   0.799  1.5383  0.9179 -2.3443
11322TIP3    H255458   4.438   2.476   0.848  1.4485  1.0703 -1.9813
11323TIP3   OH255459   0.992   0.507   6.055  0.1171 -0.4411  0.4096
11323TIP3    H155460   0.941   0.477   6.131 -0.0455  0.1006  0.5208
11323TIP3    H255461   1.074   0.540   6.093 -0.9777  2.2323  0.6688
11324TIP3   OH255462   4.284   3.419  13.807  0.3571  0.3081  0.6240
11324TIP3    H155463   4.299   3.328  13.783 -0.8161  0.1638  0.3763
11324TIP3    H255464   4.202   3.418  13.857 -0.6520  1.4272 -0.8962
11325TIP3   OH255465   1.174   1.644  15.656 -0.0317 -0.5198 -0.3129
11325TIP3    H155466   1.113   1.633  15.729 -0.2765  1.3563 -0.1682
11325TIP3    H255467   1.261   1.630  15.695 -0.1738  0.2334  0.3025
11326TIP3   OH255468   1.201   0.645  11.277 -0.2784 -0.0067  0.0368
11326TIP3    H155469   1.170   0.556  11.258  3.1136 -1.2976 -0.0321
11326TIP3    H255470   1.152   0.700  11.216 -1.5796 -1.9410 -0.7887
11327TIP3   OH255471   1.197   0.226   4.437  0.2037 -0.5176 -0.2437
11327TIP3    H155472   1.144   0.255   4.363 -0.7955  0.8054  0.9484
11327TIP3    H255473   1.278   0.277   4.429  0.6842 -1.3885 -1.1734
11328TIP3   OH255474   4.148   5.529  13.889 -0.6789 -0.3145  0.0189
11328TIP3    H155475   4.062   5.554  13.855 -0.9750  0.5326  1.3279
11328TIP3    H255476   4.132   5.504  13.980  0.2664 -1.4530 -0.0882
11329TIP3   OH255477   5.724   6.236   0.600  0.3836  0.0673  0.0570
11329TIP3    H155478   5.743   6.265   0.511  0.5365  0.3569  0.1829
11329TIP3    H255479   5.723   6.140   0.595  2.2313  0.0199  0.1121
11330TIP3   OH255480   1.966   5.909   3.759 -0.9630  0.3824  0.4810
11330TIP3    H155481   1.923   5.994   3.752 -0.5212  0.4962 -1.1666
11330TIP3    H255482   1.898   5.845   3.737 -0.9991  0.3827  0.5909
11331TIP3   OH255483   5.498   1.884  14.997  0.8362 -0.0820  0.6929
11331TIP3    H155484   5.421   1.849  14.952  0.4640  0.2296  1.0802
11331TIP3    H255485   5.570   1.830  14.966  0.4788 -0.3012  0.2342
11332TIP3   OH255486   2.643   2.057  11.490  0.1714  0.2001 -0.3609
11332TIP3    H155487   2.663   2.106  11.569 -0.7782  1.2362 -0.7306
11332TIP3    H255488   2.549   2.037  11.497  0.2581 -0.4111 -0.8386
11333TIP3   OH255489   5.690   6.677  14.129  0.2705  0.3799  0.2404
11333TIP3    H155490   5.748   6.753  14.120  0.4225 -0.0221 -3.7116
11333TIP3    H255491   5.748   6.608  14.162  0.8622  1.1822  0.9417
11334TIP3   OH255492   4.934   3.304  14.924 -0.1269 -0.2682 -0.1017
11334TIP3    H155493   4.935   3.337  14.834  3.3552 -0.3345 -0.2246
11334TIP3    H255494   4.940   3.209  14.914 -2.2863 -0.4950  0.2800
11335TIP3   OH255495   4.826   2.094   2.344 -0.1890 -0.3518  0.6050
11335TIP3    H155496   4.762   2.077   2.414 -0.3208  0.5683  0.7257
11335TIP3    H255497   4.782   2.066   2.264 -0.3568 -0.6603  0.8039
11336TIP3   OH255498   4.426   3.834  10.568  0.3438  0.3087 -0.3331
11336TIP3    H155499   4.474   3.913  10.542  1.7185 -1.2638 -3.0374
11336TIP3    H255500   4.338   3.846  10.534  0.3577  0.9125 -0.1677
11337TIP3   OH255501   4.688   2.106   0.163  0.2425 -0.0857 -0.2442
11337TIP3    H155502   4.611   2.098   0.107 -0.3320 -0.9955  0.6356
11337TIP3    H255503   4.716   2.197   0.153 -0.0258 -0.1504 -1.7422
11338TIP3   OH255504   5.108   5.648   3.977 -0.0963 -0.4018 -0.1345
11338TIP3    H155505   5.162   5.583   3.932 -2.4839 -2.7133  0.1248
11338TIP3    H255506   5.121   5.728   3.926  0.4985 -1.8781 -2.4516
11339TIP3   OH255507   4.866   0.009   0.943  0.3136  0.3841  0.2650
11339TIP3    H155508   4.785  -0.042   0.932  0.7468 -0.8490  2.3536
11339TIP3    H255509   4.888  -0.000   1.035  2.0286  1.9874  0.0673
11340TIP3   OH255510   4.125   6.011   0.516  0.2172  0.3745  0.1029
11340TIP3    H155511   4.055   5.947   0.502 -0.2125  0.4749  1.6303
11340TIP3    H255512   4.205   5.958   0.524 -0.3419 -0.1733  2.8843
11341TIP3   OH255513   5.819   2.239  14.302  0.1110 -0.4627 -0.2607
11341TIP3    H155514   5.740   2.199  14.339  0.3363 -1.7815 -1.1543
11341TIP3    H255515   5.814   2.331  14.329 -0.5922 -0.9976  1.5834
11342TIP3   OH255516   5.748   5.011  14.953  0.2163 -0.0358  0.1823
11342TIP3    H155517   5.744   5.097  14.912  2.7920  0.2480  0.3282
11342TIP3    H255518   5.754   4.950  14.880 -3.0196 -0.3151  0.0280
11343TIP3   OH255519   5.391   4.428   5.128  0.4657 -0.4232  0.1677
11343TIP3    H155520   5.387   4.483   5.206 -0.5818  0.4842 -0.4941
11343TIP3    H255521   5.416   4.487   5.057 -2.0966 -0.4030 -0.8333
11344TIP3   OH255522   5.031   1.854   2.287  0.2992  0.0135  0.0192
11344TIP3    H155523   5.093   1.885   2.354  0.7761 -1.9340  0.5538
11344TIP3    H255524   4.983   1.932   2.261  1.4119  1.1747  1.2719
11345TIP3   OH255525   3.269   3.121   2.235 -0.0577 -0.3809 -0.5338
11345TIP3    H155526   3.237   3.067   2.162 -0.6720 -1.6742  0.6513
11345TIP3    H255527   3.226   3.206   2.222 -1.4942 -1.1052 -0.7663
11346TIP3   OH255528   4.201   2.615  13.481  0.1188  0.4750  0.1286
11346TIP3    H155529   4.147   2.536  13.478 -2.2404  1.9655  0.6568
11346TIP3    H255530   4.208   2.644  13.390 -0.0792  0.3428  0.0710
11347TIP3   OH255531   1.751   2.136  16.676 -0.3178 -0.4302 -0.1327
11347TIP3    H155532   1.811   2.071  16.715 -1.5310 -0.2126  2.2824
11347TIP3    H255533   1.664   2.097  16.686 -0.9534  1.0312  0.2453
11348TIP3   OH255534   0.974   1.845  16.238  0.4260 -0.1015 -0.0115
11348TIP3    H155535   0.900   1.850  16.178  0.4961  0.1907 -0.0729
11348TIP3    H255536   1.051   1.844  16.182  0.5111  0.5937  0.0813
11349TIP3   OH255537   5.111   1.382  14.460 -0.0495  0.2088 -0.4954
11349TIP3    H155538   5.015   1.383  14.461 -0.1153  0.0768 -2.3345
11349TIP3    H255539   5.133   1.347  14.373  1.6701 -0.2786  0.1107
11350TIP3   OH255540   6.774   0.212  13.045 -0.5529 -0.3429  0.5180
11350TIP3    H155541   6.797   0.134  13.096  0.5544 -1.2797 -1.3015
11350TIP3    H255542   6.858   0.242  13.009 -1.0390  1.4233  0.7902
11351TIP3   OH255543   0.235   3.281  16.714 -0.0352 -0.0646  0.1754
11351TIP3    H155544   0.149   3.309  16.746 -0.5288 -0.8850 -0.4040
11351TIP3    H255545   0.294   3.299  16.787 -1.0241 -1.2649  1.3356
11352TIP3   OH255546   2.005   1.804  16.182  0.1702  0.2903  0.1950
11352TIP3    H155547   1.977   1.732  16.126 -1.2141  1.1195 -0.2260
11352TIP3    H255548   1.951   1.797  16.261  0.9811  0.0864  0.7510
11353TIP3   OH255549   5.594   4.646  14.427  0.0319 -0.3183  0.8162
11353TIP3    H155550   5.545   4.718  14.467 -1.7945 -1.2681  0.3987
11353TIP3    H255551   5.547   4.627  14.346  0.9644 -1.4417  0.5139
11354TIP3   OH255552   5.278   4.102   1.201 -0.3450 -0.1615  0.1179
11354TIP3    H155553   5.221   4.036   1.241  0.8826 -0.8253  0.8379
11354TIP3    H255554   5.319   4.057   1.128  0.4856 -0.1979  0.6010
11355TIP3   OH255555   5.995   3.427  12.854  0.4267 -0.0825  0.4424
11355TIP3    H155556   5.960   3.463  12.935 -0.4583  1.0501 -0.4096
11355TIP3    H255557   6.011   3.504  12.799  0.7571 -0.8446 -0.5521
11356TIP3   OH255558   4.532   5.321   3.524 -0.2371 -0.0392 -0.7463
11356TIP3    H155559   4.596   5.392   3.524 -1.0118  0.6827 -1.5184
11356TIP3    H255560   4.585   5.241   3.524  0.6449  0.5241  0.0091
11357TIP3   OH255561   1.292   3.398   4.300 -0.1190 -0.3994 -0.0173
11357TIP3    H155562   1.318   3.438   4.217  0.1701  0.2170  0.3624
11357TIP3    H255563   1.304   3.304   4.286  0.0486 -0.2932 -0.6272
11358TIP3   OH255564   0.085   5.984  10.568  0.7071 -0.1017  0.0505
11358TIP3    H155565   0.120   6.072  10.581 -1.4668  1.1123 -1.5152
11358TIP3    H255566   0.027   5.970  10.642 -2.4502  1.8086 -1.8377
11359TIP3   OH255567   5.916   2.915  15.534 -1.1373  0.1077 -0.2261
11359TIP3    H155568   6.008   2.895  15.554 -0.7514  3.8024  3.0967
11359TIP3    H255569   5.866   2.854  15.587 -0.2760  1.6206  2.5711
11360TIP3   OH255570   4.932   5.865   5.096 -0.3589 -0.5103  0.0900
11360TIP3    H155571   4.931   5.946   5.147  1.5444  0.9602 -1.9911
11360TIP3    H255572   4.989   5.806   5.146  0.3856  0.4062  0.3564
11361TIP3   OH255573   2.347   4.798  16.426  0.0773 -0.4973 -0.4298
11361TIP3    H155574   2.435   4.828  16.401 -0.6005  0.4382 -1.8448
11361TIP3    H255575   2.353   4.703  16.426  1.1687 -0.4425 -0.2227
11362TIP3   OH255576   5.515   6.039   2.276  0.3407  0.2425 -0.2190
11362TIP3    H155577   5.587   6.009   2.221 -0.2822  0.8812 -1.4160
11362TIP3    H255578   5.448   5.972   2.267 -0.6842  1.4419 -2.1545
11363TIP3   OH255579   0.768   1.221   1.458 -0.2424 -0.0623  0.6194
11363TIP3    H155580   0.819   1.198   1.380 -1.5931 -0.4927 -0.1624
11363TIP3    H255581   0.771   1.142   1.512 -2.0919 -1.0142 -0.5573
11364TIP3   OH255582   5.756   0.493  16.511 -0.0487 -0.2252 -0.7474
11364TIP3    H155583   5.697   0.423  16.540  0.6679 -0.7172 -0.4402
11364TIP3    H255584   5.706   0.542  16.446 -0.3158 -1.4612 -1.5061
11365TIP3   OH255585   3.255   0.667   1.701  0.0811 -0.3444  1.1469
11365TIP3    H155586   3.272   0.633   1.613 -0.6726 -0.0865  0.8966
11365TIP3    H255587   3.299   0.606   1.760 -0.0606 -0.9475  0.6274
11366TIP3   OH255588   1.562   0.591   5.707 -0.2353  0.2369 -0.2590
11366TIP3    H155589   1.590   0.681   5.698 -0.2366  0.1541 -1.1481
11366TIP3    H255590   1.466   0.595   5.705 -0.2433  0.0368 -2.4454
11367TIP3   OH255591   4.909   4.607  12.457  0.5958 -0.2317 -0.4651
11367TIP3    H155592   4.876   4.521  12.433 -0.8747 -0.3392  1.6394
11367TIP3    H255593   4.999   4.608  12.427  0.9801 -2.8936  0.3574
11368TIP3   OH255594   2.825   3.832  14.614  0.3301  0.3384  0.1935
11368TIP3    H155595   2.836   3.870  14.701 -1.4118  0.1629  0.5322
11368TIP3    H255596   2.815   3.907  14.556  0.5962  0.4450  0.2855
11369TIP3   OH255597   3.929   5.438   2.193  0.3121  0.1696 -0.4752
11369TIP3    H155598   3.885   5.395   2.120 -1.7240  1.1618  0.0718
11369TIP3    H255599   3.904   5.530   2.185  0.1152  0.3151  1.3856
11370TIP3   OH255600   5.102   5.605  14.509 -0.0550  0.1713 -0.6703
11370TIP3    H155601   5.046   5.620  14.433  0.5571  0.7464 -1.0144
11370TIP3    H255602   5.050   5.636  14.584 -0.1623  0.7629 -0.9906
11371TIP3   OH255603   5.296   3.461   1.405 -0.5549  0.4389 -0.0736
11371TIP3    H155604   5.278   3.550   1.375 -0.7951 -0.1113 -1.6532
11371TIP3    H255605   5.390   3.460   1.423 -0.3960  0.7884 -0.8649
11372TIP3   OH255606   6.294   2.764   4.369  0.1730 -0.2700  0.2793
11372TIP3    H155607   6.212   2.801   4.402  0.6755  1.2891 -0.1053
11372TIP3    H255608   6.271   2.677   4.338 -1.1432 -0.2036  1.0120
11373TIP3   OH255609   2.524   3.786  13.643 -0.0471 -0.2499  0.3562
11373TIP3    H155610   2.491   3.768  13.731 -0.1268 -1.8171  0.0427
11373TIP3    H255611   2.446   3.810  13.593  0.0646  1.1203  0.7973
11374TIP3   OH255612   4.194   0.502  12.641  0.6916  0.2632 -0.1532
11374TIP3    H155613   4.271   0.519  12.694  0.0394  1.3801  0.4705
11374TIP3    H255614   4.164   0.588  12.613 -1.2020 -0.0029  0.8765
11375TIP3   OH255615   3.212   2.316  14.152  0.2557 -0.5261 -0.0024
11375TIP3    H155616   3.217   2.244  14.089  1.1457 -0.3298 -0.1738
11375TIP3    H255617   3.272   2.382  14.117  1.1359 -0.6072  1.2862
11376TIP3   OH255618   2.120   4.129   4.600  0.0181  0.3903  0.5468
11376TIP3    H155619   2.050   4.076   4.562 -0.7744  0.3640  1.9661
11376TIP3    H255620   2.165   4.167   4.525  0.0702 -1.5713 -0.4923
11377TIP3   OH255621   3.117   3.339  14.890  0.2734  0.4176  0.6281
11377TIP3    H155622   3.052   3.335  14.960 -0.1246 -0.5243  0.2281
11377TIP3    H255623   3.161   3.422  14.902 -1.3666  1.3293  0.6068
11378TIP3   OH255624   3.735   2.797   4.716  0.5639 -0.9014  0.3544
11378TIP3    H155625   3.684   2.780   4.637  0.3403 -3.3547  0.9405
11378TIP3    H255626   3.677   2.849   4.772  0.1982 -0.3554 -0.5254
11379TIP3   OH255627   2.570   2.077  10.192 -0.2030  0.2004  0.6592
11379TIP3    H155628   2.651   2.118  10.164  0.2654  0.0330  1.7302
11379TIP3    H255629   2.506   2.148  10.192 -0.0583  0.3455 -0.1211
11380TIP3   OH255630   1.439   5.309   4.843 -0.5628  0.3876 -0.0547
11380TIP3    H155631   1.517   5.364   4.846 -0.1213 -0.2231 -0.2412
11380TIP3    H255632   1.470   5.224   4.810 -0.8618 -0.5971  2.0139
11381TIP3   OH255633   6.482   4.295   2.184  0.1978 -0.2691  0.5743
11381TIP3    H155634   6.556   4.258   2.234  0.4262 -0.7033 -0.0640
11381TIP3    H255635   6.522   4.360   2.127  0.4282 -1.8581 -1.1868
11382TIP3   OH255636   3.075   6.350  13.809  0.0107  0.4087  0.0143
11382TIP3    H155637   2.991   6.385  13.838 -0.3417  1.0269 -1.6190
11382TIP3    H255638   3.124   6.333  13.890 -1.1049  1.4754  0.9484
11383TIP3   OH255639   3.575   0.665   5.199 -0.5793 -0.4543  0.6709
11383TIP3    H155640   3.570   0.630   5.288  0.1428  0.4006  1.0613
11383TIP3    H255641   3.536   0.752   5.205 -0.0597 -0.1888  0.2649
11384TIP3   OH255642   4.282   4.562  12.081  0.1833 -0.6619  0.4252
11384TIP3    H155643   4.246   4.568  11.992  0.3883  3.0568  0.4413
11384TIP3    H255644   4.355   4.501  12.073 -1.7571 -2.9834 -1.1358
11385TIP3   OH255645   3.501   6.555  14.287 -0.6062 -0.4550  0.1195
11385TIP3    H155646   3.591   6.588  14.296 -0.6704 -0.8444  2.8888
11385TIP3    H255647   3.510   6.460  14.297 -1.4970 -0.3271  2.9492
11386TIP3   OH255648   2.803   6.318   4.728  0.3172  0.1397 -0.1777
11386TIP3    H155649   2.834   6.302   4.817 -1.1520 -1.1961  0.1306
11386TIP3    H255650   2.815   6.234   4.682  1.6929  0.9851 -1.4741
11387TIP3   OH255651   3.313   0.746  11.853 -0.1119  0.6258  0.1301
11387TIP3    H155652   3.312   0.652  11.833 -0.1170 -0.2408  3.4647
11387TIP3    H255653   3.366   0.752  11.933 -2.0505  3.0994  1.3596
11388TIP3   OH255654   2.881   0.562  14.023  0.0993  0.2940 -0.3160
11388TIP3    H155655   2.920   0.533  13.941 -0.7658 -0.2517 -0.5471
11388TIP3    H255656   2.826   0.636  13.999 -0.2090  0.0904 -0.2405
11389TIP3   OH255657   4.572   2.555  15.894  0.5195  0.3464 -0.7715
11389TIP3    H155658   4.607   2.543  15.805  0.4965  1.5539 -0.9604
11389TIP3    H255659   4.477   2.554  15.883  0.4280 -2.2843 -0.3457
11390TIP3   OH255660   4.483   0.568  14.525  0.3556 -0.1513 -0.2139
11390TIP3    H155661   4.575   0.560  14.501 -0.2833 -1.2820 -2.5811
11390TIP3    H255662   4.447   0.634  14.466 -0.5010 -0.1943  0.2357
11391TIP3   OH255663   4.482   0.060   3.885 -0.1697 -0.2664 -0.0910
11391TIP3    H155664   4.503  -0.030   3.863  0.1893 -0.2912  0.3468
11391TIP3    H255665   4.476   0.061   3.980 -0.3744  0.1268 -0.1065
11392TIP3   OH255666   0.407   2.994   4.565 -0.2251  0.7014 -0.0565
11392TIP3    H155667   0.493   3.034   4.565 -0.0291  0.2956 -0.7577
11392TIP3    H255668   0.423   2.903   4.589 -0.3790  0.4741 -0.7953
11393TIP3   OH255669   5.216   3.174  13.416 -0.0924  0.0153  0.4362
11393TIP3    H155670   5.221   3.229  13.337 -2.8402 -0.4544 -0.1593
11393TIP3    H255671   5.124   3.150  13.422  0.2139 -0.7424  3.3086
11394TIP3   OH255672   4.679   4.473   3.080 -0.0601  0.0142  0.5017
11394TIP3    H155673   4.619   4.547   3.098 -0.2289  0.1634 -0.6307
11394TIP3    H255674   4.697   4.437   3.167  0.3547  1.6393  1.1358
11395TIP3   OH255675   5.553   2.743  11.630  0.6291  0.2204 -0.5953
11395TIP3    H155676   5.538   2.657  11.591  1.8462 -0.1417 -0.3250
11395TIP3    H255677   5.537   2.805  11.559 -0.4570 -0.2116 -0.7337
11396TIP3   OH255678   6.194   3.430   5.074 -0.1468 -0.5392  0.4284
11396TIP3    H155679   6.249   3.415   4.996  0.6131  2.2954  0.3097
11396TIP3    H255680   6.248   3.486   5.130 -1.6822 -0.4111  1.8326
11397TIP3   OH255681   5.510   5.639  13.066  0.4693 -0.1504 -0.5774
11397TIP3    H155682   5.589   5.691  13.055 -0.1137  0.7714 -0.5836
11397TIP3    H255683   5.514   5.608  13.156  0.2273  0.9970 -0.1409
11398TIP3   OH255684   0.393   3.593  12.482  0.1562  0.3816  0.3233
11398TIP3    H155685   0.369   3.665  12.423 -0.3011 -0.4623 -0.5552
11398TIP3    H255686   0.403   3.634  12.568  0.7743  1.6369 -0.3162
11399TIP3   OH255687   0.032   6.413  13.148  0.2953 -0.1009 -0.1865
11399TIP3    H155688   0.084   6.361  13.087  0.7369 -0.8345  0.8027
11399TIP3    H255689  -0.056   6.378  13.141  0.8344 -1.9639  1.4550
11400TIP3   OH255690   3.828   2.107   0.586  0.6407  0.0705 -0.4240
11400TIP3    H155691   3.887   2.150   0.524 -0.4897  1.0089 -0.8808
11400TIP3    H255692   3.773   2.178   0.620 -1.1756 -0.9564 -1.0840
11401TIP3   OH255693   6.082   3.463   6.734  0.3239  0.4354 -0.3687
11401TIP3    H155694   6.107   3.486   6.645  1.6229  1.1486  0.1598
11401TIP3    H255695   6.035   3.540   6.767 -0.8764 -0.1363 -0.6841
11402TIP3   OH255696   0.200   2.726   4.532  0.0533 -0.0636 -0.3402
11402TIP3    H155697   0.179   2.816   4.558 -1.0286 -0.2925 -0.4087
11402TIP3    H255698   0.168   2.718   4.442 -0.6477 -0.7792 -0.0371
11403TIP3   OH255699   2.291   2.167  11.858 -0.1819  0.5388  0.1289
11403TIP3    H155700   2.382   2.153  11.885 -0.1528 -2.2585 -1.0689
11403TIP3    H255701   2.293   2.246  11.805  1.6652  0.2453 -0.2906
11404TIP3   OH255702   5.906   2.107  12.825  0.1922  0.2338  0.5230
11404TIP3    H155703   5.860   2.089  12.743  0.1648 -0.3759  0.6685
11404TIP3    H255704   5.957   2.187  12.808 -0.6156  0.6991  0.2404
11405TIP3   OH255705   3.410   0.946   6.524 -0.6533  0.1838  0.3836
11405TIP3    H155706   3.441   1.037   6.523  1.8210 -0.5885 -0.9281
11405TIP3    H255707   3.487   0.894   6.502 -1.5324 -2.4204  2.8503
11406TIP3   OH255708   3.123   0.881   2.917  0.7856  0.3341 -0.0293
11406TIP3    H155709   3.046   0.835   2.886 -0.2637  0.4598  2.1871
11406TIP3    H255710   3.116   0.877   3.013  2.2122  2.4955  0.2259
11407TIP3   OH255711   4.633   5.865  13.249 -0.1437  0.4772  0.0225
11407TIP3    H155712   4.638   5.871  13.153  0.2956  1.0469  0.0759
11407TIP3    H255713   4.664   5.777  13.269  0.4627  0.6048 -0.3169
11408TIP3   OH255714   3.004   3.609  11.094  0.3423  0.8176  0.0864
11408TIP3    H155715   3.029   3.634  11.183 -0.5236  0.1119  0.5446
11408TIP3    H255716   2.909   3.616  11.094  0.1897 -0.9275 -0.2256
11409TIP3   OH255717   2.853   0.500  12.163 -0.5433  0.2239 -0.2441
11409TIP3    H155718   2.856   0.543  12.077 -0.5866 -1.2531 -1.0255
11409TIP3    H255719   2.923   0.542  12.213  1.9980 -1.2683 -2.2295
11410TIP3   OH255720   0.573   4.156  10.417 -0.1794  0.5089  0.0077
11410TIP3    H155721   0.624   4.159  10.498 -0.3744  2.7728  0.1155
11410TIP3    H255722   0.624   4.208  10.355 -2.3442  3.0345  0.1705
11411TIP3   OH255723   1.479   1.536  10.668  0.2023 -0.1873  0.1293
11411TIP3    H155724   1.570   1.517  10.644  0.3210 -1.7982  1.6440
11411TIP3    H255725   1.428   1.470  10.622  0.1515 -1.3641  1.7907
11412TIP3   OH255726   0.960   0.529  14.330  0.5254 -0.1387  0.1534
11412TIP3    H155727   0.921   0.452  14.370  0.3926 -0.0939  0.1110
11412TIP3    H255728   1.024   0.494  14.268 -0.7635 -0.2833 -1.1708
11413TIP3   OH255729   1.493   4.247  16.961 -0.3916 -1.0773 -0.6499
11413TIP3    H155730   1.424   4.181  16.962 -1.8937  0.4358  0.3323
11413TIP3    H255731   1.546   4.227  17.038 -0.3664 -1.6131 -0.8041
11414TIP3   OH255732   2.847   5.440  13.329  0.3375  0.6531 -0.3440
11414TIP3    H155733   2.873   5.362  13.378  2.0917  1.3989 -0.0173
11414TIP3    H255734   2.763   5.416  13.289  0.8812 -1.4448 -0.3618
11415TIP3   OH255735   1.617   3.914   4.611  0.3339  0.1308  0.5679
11415TIP3    H155736   1.641   3.826   4.640 -0.6289  0.1056  1.3139
11415TIP3    H255737   1.544   3.939   4.667  1.5650  2.0208  1.4149
11416TIP3   OH255738   2.442   5.578   1.885 -0.4890  0.2043 -0.0607
11416TIP3    H155739   2.415   5.508   1.945 -0.6641 -0.9070 -1.3818
11416TIP3    H255740   2.459   5.653   1.942  1.3733 -1.3711  1.5961
11417TIP3   OH255741   5.918   1.412   5.682 -0.1442  0.2635  0.1215
11417TIP3    H155742   5.836   1.364   5.691 -0.0041  0.3123  2.1341
11417TIP3    H255743   5.942   1.435   5.772  0.9385  2.1680 -0.5973
11418TIP3   OH255744   3.599   3.610  15.548  0.3361  0.0675 -0.2146
11418TIP3    H155745   3.597   3.564  15.464  1.2817  0.6427 -0.5697
11418TIP3    H255746   3.508   3.631  15.566  0.1368  0.1484 -1.2243
11419TIP3   OH255747   5.122   4.058  14.571  0.3578 -0.1604  0.4546
11419TIP3    H155748   5.132   3.965  14.550 -0.8497 -0.3358  0.6169
11419TIP3    H255749   5.136   4.104  14.488  0.2310 -0.5353  0.2255
11420TIP3   OH255750   5.509   2.017  15.663  0.2199 -0.2824 -1.3253
11420TIP3    H155751   5.508   2.006  15.568  0.1843  0.1979 -1.3783
11420TIP3    H255752   5.551   2.101  15.677 -0.9411  0.2666 -0.9766
11421TIP3   OH255753   4.580   5.347  12.504 -0.1142  0.3756 -0.0447
11421TIP3    H155754   4.554   5.432  12.540  1.3573  0.4542  0.8932
11421TIP3    H255755   4.515   5.330  12.436 -3.8026 -0.3439  3.3107
11422TIP3   OH255756   1.216   1.919  14.432 -0.1895  0.0044  0.1779
11422TIP3    H155757   1.300   1.963  14.417  0.4889  0.0401  3.3626
11422TIP3    H255758   1.180   1.905  14.344  1.6337  2.8541 -1.1680
11423TIP3   OH255759   4.953   1.156  12.292  0.1809 -0.1326 -0.5197
11423TIP3    H155760   4.967   1.170  12.198  3.0025  1.2593  0.0035
11423TIP3    H255761   4.958   1.061  12.303  0.9989 -0.2477 -1.6577
11424TIP3   OH255762   0.875   2.006   4.702 -0.6898 -0.1856 -0.1920
11424TIP3    H155763   0.968   1.996   4.678 -0.3026  1.0616  0.6531
11424TIP3    H255764   0.873   1.989   4.796 -1.3170 -0.1848 -0.2032
11425TIP3   OH255765   3.379   1.727  16.133  0.2875 -0.2298 -0.1583
11425TIP3    H155766   3.298   1.745  16.182  0.1564 -1.2271 -0.0018
11425TIP3    H255767   3.412   1.814  16.111  0.0276  0.2410  1.1769
11426TIP3   OH255768   6.295   6.153   0.922 -0.4875 -0.2043  0.0919
11426TIP3    H155769   6.267   6.074   0.970  0.6389  0.3213  1.6774
11426TIP3    H255770   6.232   6.220   0.948  0.3403  0.1774  1.2001
11427TIP3   OH255771   4.777   6.750  16.391 -0.1295 -0.4591 -0.3142
11427TIP3    H155772   4.727   6.677  16.353 -0.2794 -0.0110 -0.9991
11427TIP3    H255773   4.714   6.794  16.448 -0.0461 -0.8434  0.0827
11428TIP3   OH255774   1.066   1.808   4.544  0.0149  0.5425  0.2879
11428TIP3    H155775   0.975   1.777   4.547  0.2228 -0.0242  1.3099
11428TIP3    H255776   1.108   1.765   4.618  1.6452 -0.8309 -1.3369
11429TIP3   OH255777   4.335   0.386  15.007 -0.0940  0.1908  0.5395
11429TIP3    H155778   4.343   0.413  14.916  0.1587  0.3628  0.6121
11429TIP3    H255779   4.252   0.425  15.037  1.1186  2.4414  1.1663
11430TIP3   OH255780   4.154   4.546   1.027  0.1078 -0.4154 -0.7216
11430TIP3    H155781   4.180   4.465   1.071 -2.3320 -0.5283  0.6930
11430TIP3    H255782   4.223   4.562   0.963  1.9827 -2.2149  0.7155
11431TIP3   OH255783   6.406   1.576   2.116 -0.4543  0.1993  0.2161
11431TIP3    H155784   6.332   1.590   2.175  0.0081  0.4569  0.7377
11431TIP3    H255785   6.386   1.631   2.040 -2.9449 -2.8780 -1.6546
11432TIP3   OH255786   4.929   2.881  14.442 -0.3129  0.2608  0.2092
11432TIP3    H155787   4.843   2.893  14.402 -0.3961  0.6399  0.4962
11432TIP3    H255788   4.929   2.941  14.517 -0.9801 -2.0082  2.1120
11433TIP3   OH255789   4.440   6.796  11.189  0.4161  0.1101  0.7506
11433TIP3    H155790   4.531   6.824  11.195  0.3523  1.5343 -2.7597
11433TIP3    H255791   4.444   6.711  11.144  0.0386  0.9235 -0.9189
11434TIP3   OH255792   0.402   5.702   2.282 -0.1933  0.3842 -0.1325
11434TIP3    H155793   0.482   5.690   2.229  0.0614 -0.2357  0.3740
11434TIP3    H255794   0.344   5.752   2.225  0.2679  0.1797 -0.8107
11435TIP3   OH255795   3.438   3.479   3.498 -0.1272 -0.9202 -0.3582
11435TIP3    H155796   3.520   3.439   3.469  0.9720  0.4636  0.6946
11435TIP3    H255797   3.440   3.567   3.462 -0.9107 -0.6994  0.1134
11436TIP3   OH255798   6.338   2.856  11.368  0.6441 -0.3067  0.1483
11436TIP3    H155799   6.347   2.872  11.462  1.1326 -0.1762  0.0837
11436TIP3    H255800   6.266   2.912  11.340  1.5637  0.9085  0.1384
11437TIP3   OH255801   5.163   2.609  15.034 -0.2819 -0.3077 -0.5037
11437TIP3    H155802   5.227   2.554  14.989  0.7659  0.6258 -0.1630
11437TIP3    H255803   5.085   2.553  15.041  0.2988 -1.2559 -1.4159
11438TIP3   OH255804   5.947   3.783  13.615 -0.2828  0.1652  0.1552
11438TIP3    H155805   5.938   3.753  13.706  0.5940 -3.0710 -0.7039
11438TIP3    H255806   5.874   3.742  13.569  1.6439 -1.8397 -1.3175
11439TIP3   OH255807   0.802   5.921   0.696 -0.2713  0.3739  0.0211
11439TIP3    H155808   0.734   5.872   0.650 -0.4363  0.6092  0.0113
11439TIP3    H255809   0.884   5.893   0.656 -0.4789  1.3280 -1.1297
11440TIP3   OH255810   4.652   0.476  16.744 -0.3028 -1.3835  0.0831
11440TIP3    H155811   4.613   0.466  16.657  1.2887  0.4117 -0.9312
11440TIP3    H255812   4.688   0.565  16.743  0.6173 -1.6893  2.2276
11441TIP3   OH255813   0.892   5.317   2.148 -0.2003  0.1031 -0.0932
11441TIP3    H155814   0.911   5.385   2.213 -1.6063 -0.3265  0.8014
11441TIP3    H255815   0.979   5.288   2.118  0.4561  0.9646  0.9036
11442TIP3   OH255816   0.098   0.529  12.749 -0.0605  0.1574 -0.3620
11442TIP3    H155817   0.123   0.464  12.683 -0.4863  0.8273 -1.2020
11442TIP3    H255818   0.175   0.585  12.757  0.2181 -0.2892  0.1840
11443TIP3   OH255819   6.363   0.460  14.378 -0.0140  0.0052 -0.0116
11443TIP3    H155820   6.405   0.450  14.463 -0.8163 -0.0975  0.3828
11443TIP3    H255821   6.307   0.383  14.370  0.6048 -0.3720 -0.9706
11444TIP3   OH255822   4.161   5.682  12.158 -0.1881 -0.0499  0.6914
11444TIP3    H155823   4.254   5.701  12.145 -0.0913 -1.1503 -0.4221
11444TIP3    H255824   4.116   5.757  12.119  0.2179  0.6636  1.5637
11445TIP3   OH255825   1.109   5.583  16.438 -0.0621  0.3082  0.4169
11445TIP3    H155826   1.160   5.522  16.491  0.7380  1.3311  0.8582
11445TIP3    H255827   1.019   5.550  16.444  0.3712 -0.9360  0.4667
11446TIP3   OH255828   2.455   0.806   5.149 -0.1718 -0.3248 -0.2857
11446TIP3    H155829   2.537   0.824   5.104 -0.2470  1.9057  0.3797
11446TIP3    H255830   2.462   0.713   5.173  2.3217 -0.1385  0.0595
11447TIP3   OH255831   3.681   4.975  15.338 -0.2377 -0.0505 -0.4186
11447TIP3    H155832   3.598   4.928  15.332 -1.1048  1.5912 -2.5845
11447TIP3    H255833   3.657   5.062  15.370  0.8214  0.1101 -0.0261
11448TIP3   OH255834   4.358   3.986  16.254 -0.7688 -0.8756  0.0175
11448TIP3    H155835   4.333   3.895  16.273 -2.7761 -0.4084 -0.1291
11448TIP3    H255836   4.285   4.038  16.289  0.0497  0.6346 -0.4676
11449TIP3   OH255837   3.392   3.348  13.492  0.0246  0.0235 -0.4019
11449TIP3    H155838   3.481   3.338  13.457 -0.4405  0.4849 -1.7813
11449TIP3    H255839   3.371   3.440  13.477 -0.9025 -0.2169 -0.6570
11450TIP3   OH255840   2.406   1.340   1.504 -0.0748 -0.6498 -0.4787
11450TIP3    H155841   2.448   1.298   1.429  0.7455  1.4386 -1.2654
11450TIP3    H255842   2.465   1.324   1.577  1.4843  1.1064 -1.2884
11451TIP3   OH255843   5.247   5.627   4.756 -0.7918  0.4178 -0.0361
11451TIP3    H155844   5.207   5.619   4.670  0.3671 -0.8743 -0.4896
11451TIP3    H255845   5.176   5.606   4.817 -0.9657 -1.4585 -0.8034
11452TIP3   OH255846   5.486   4.683  11.894 -0.6656  0.6324  0.3068
11452TIP3    H155847   5.420   4.621  11.863 -1.0624  0.2403  1.8777
11452TIP3    H255848   5.447   4.769  11.881  0.6726  0.8575 -3.8437
11453TIP3   OH255849   5.825   6.510  12.238 -0.2059  0.1186  0.3386
11453TIP3    H155850   5.869   6.582  12.193  0.6670 -1.1290 -0.9212
11453TIP3    H255851   5.875   6.496  12.318  1.0765 -0.5432 -0.5334
11454TIP3   OH255852   1.524   1.458  16.454 -0.2026  0.5902  0.1663
11454TIP3    H155853   1.570   1.512  16.519 -2.4060  0.4275  1.9889
11454TIP3    H255854   1.476   1.394  16.507  1.0241 -2.1866 -1.8533
11455TIP3   OH255855   6.799   3.909  14.714  0.0072  0.3925  1.0748
11455TIP3    H155856   6.773   3.883  14.802  0.8772 -0.1986  1.1734
11455TIP3    H255857   6.874   3.967  14.727  0.9376 -0.6898  0.7009
11456TIP3   OH255858   3.618   3.284  14.952  0.8813 -0.2922  0.1605
11456TIP3    H155859   3.645   3.373  14.929  0.4066 -0.1642  0.0850
11456TIP3    H255860   3.589   3.246  14.869  1.7344 -0.7593  0.0642
11457TIP3   OH255861   2.679   0.243   6.337  0.0898  0.5415 -0.4065
11457TIP3    H155862   2.716   0.287   6.260  0.4516 -0.0090 -0.5512
11457TIP3    H255863   2.586   0.261   6.332  0.2514  1.4679 -0.3511
11458TIP3   OH255864   4.413   2.814   1.568  0.0771 -0.0580 -0.3644
11458TIP3    H155865   4.460   2.897   1.565 -0.4587  0.2834  0.4234
11458TIP3    H255866   4.451   2.768   1.643 -0.2481 -0.1403 -0.2479
11459TIP3   OH255867   6.015   6.638  16.755  0.3758 -0.1664  0.4748
11459TIP3    H155868   5.940   6.690  16.729  0.9548  0.5586  0.2359
11459TIP3    H255869   5.992   6.606  16.843 -0.5771 -0.6988  0.0545
11460TIP3   OH255870   6.543   3.586  13.489  0.9103  0.0806 -0.6044
11460TIP3    H155871   6.547   3.539  13.572  1.9468  0.9811 -0.1157
11460TIP3    H255872   6.510   3.673  13.512  2.9539  0.9697 -0.7919
11461TIP3   OH255873   5.827   3.748   1.447 -0.2061  0.2668 -0.0529
11461TIP3    H155874   5.841   3.671   1.502 -2.4586 -1.3461 -1.5487
11461TIP3    H255875   5.779   3.809   1.503 -0.3943 -0.3646  0.4868
11462TIP3   OH255876   1.257   6.230  16.053 -0.0133 -0.5571 -0.4280
11462TIP3    H155877   1.350   6.242  16.073 -0.2195 -1.0763  1.0004
11462TIP3    H255878   1.255   6.210  15.960  1.0921  1.5609 -0.9595
11463TIP3   OH255879   5.592   3.682   4.065  0.9057 -0.0079  0.5562
11463TIP3    H155880   5.541   3.732   4.128  1.1595  0.3541  0.4798
11463TIP3    H255881   5.543   3.691   3.983  1.1417  0.4315  0.4574
11464TIP3   OH255882   1.796   3.196  12.055  0.1488  0.3001 -0.4993
11464TIP3    H155883   1.809   3.102  12.064 -1.4062  0.0689 -0.4667
11464TIP3    H255884   1.702   3.209  12.069  0.5161  1.9950  0.5928
11465TIP3   OH255885   0.883   1.947   2.951 -0.3386  0.2431 -0.4431
11465TIP3    H155886   0.855   1.917   2.865 -0.7788 -0.4213 -0.0783
11465TIP3    H255887   0.823   1.905   3.012  0.5833 -0.0991  0.2579
11466TIP3   OH255888   2.557   1.157   3.770  0.1732  0.1235  0.3327
11466TIP3    H155889   2.611   1.224   3.811  0.3462  1.0055 -1.2266
11466TIP3    H255890   2.477   1.154   3.823  1.1244 -0.1404  1.7903
11467TIP3   OH255891   1.784   0.662  15.057  0.3185 -0.2494 -0.8797
11467TIP3    H155892   1.785   0.699  15.146  2.0349  0.0269 -0.9931
11467TIP3    H255893   1.839   0.584  15.063  0.8884  0.0790 -1.8316
11468TIP3   OH255894   2.258   3.188   2.650 -0.1735 -0.3213  0.3312
11468TIP3    H155895   2.201   3.255   2.689  0.1734 -0.4097  1.0107
11468TIP3    H255896   2.283   3.132   2.723  0.4000 -0.5660 -0.0403
11469TIP3   OH255897   2.895   6.032  12.256 -0.0295 -0.4019 -0.2753
11469TIP3    H155898   2.908   5.978  12.178 -1.1817 -2.0378  0.6077
11469TIP3    H255899   2.981   6.033  12.299  0.8480  1.2446 -1.9419
11470TIP3   OH255900   3.197   0.997  16.362  0.0334  0.1284 -0.0138
11470TIP3    H155901   3.203   0.994  16.267  0.3840  0.2162  0.0035
11470TIP3    H255902   3.282   1.029  16.390 -0.5614  1.5310  0.2645
11471TIP3   OH255903   5.211   2.182  13.165 -0.2165 -0.4414  0.4886
11471TIP3    H155904   5.186   2.090  13.169 -0.2254 -0.5669 -1.5055
11471TIP3    H255905   5.298   2.182  13.126 -0.6190  0.4099 -0.4856
11472TIP3   OH255906   4.334   5.832   5.709 -0.3863  0.0598 -0.0555
11472TIP3    H155907   4.255   5.865   5.750 -0.9480 -2.1806  0.7986
11472TIP3    H255908   4.406   5.867   5.762 -1.0252 -1.2798  1.7680
11473TIP3   OH255909   0.282   0.822   3.103  0.2585 -0.4997  0.3807
11473TIP3    H155910   0.303   0.729   3.111 -1.0671 -1.0584 -1.7383
11473TIP3    H255911   0.188   0.826   3.119  0.1001  0.2744 -0.6207
11474TIP3   OH255912   1.154   5.104  15.549 -0.0133  0.0841  0.0161
11474TIP3    H155913   1.189   5.083  15.635  0.8244  0.2946 -0.2655
11474TIP3    H255914   1.142   5.199  15.550 -0.5103  0.0241  0.0812
11475TIP3   OH255915   5.663   2.953  11.227 -0.1677  0.0983 -0.4411
11475TIP3    H155916   5.674   2.975  11.319 -4.2440 -1.7820  0.7151
11475TIP3    H255917   5.667   2.858  11.224 -2.3395 -0.0291 -1.6878
11476TIP3   OH255918   5.693   4.865   4.314  0.3831  0.1400  0.0710
11476TIP3    H155919   5.773   4.820   4.340  0.5382  0.1413 -0.3940
11476TIP3    H255920   5.658   4.813   4.242  1.4199  1.6036 -1.5662
11477TIP3   OH255921   4.943   6.161   6.349 -0.7270  0.1506 -0.4229
11477TIP3    H155922   4.975   6.072   6.339  0.0003  0.3072  0.4203
11477TIP3    H255923   4.851   6.156   6.324 -0.4851 -0.6592 -1.1980
11478TIP3   OH255924   5.245   2.840   5.275  0.0151 -0.0224 -0.6205
11478TIP3    H155925   5.265   2.773   5.341  0.4519  0.0303 -0.6936
11478TIP3    H255926   5.189   2.795   5.211 -1.4778  0.2722  0.4399
11479TIP3   OH255927   0.690   0.816   6.194 -0.4040 -0.5783  0.6151
11479TIP3    H155928   0.633   0.886   6.227 -1.5184 -0.8320 -0.6429
11479TIP3    H255929   0.742   0.789   6.269 -1.2914  0.3223  1.5894
11480TIP3   OH255930   2.235   6.662  16.983 -0.1175  0.0794 -0.0157
11480TIP3    H155931   2.272   6.626  16.902 -2.3493  0.2451 -1.1751
11480TIP3    H255932   2.227   6.756  16.965  1.3975  0.4991  1.2735
11481TIP3   OH255933   4.763   6.657  12.700 -0.5984 -0.1020  0.7036
11481TIP3    H155934   4.709   6.669  12.622  0.0255  1.7473  0.5130
11481TIP3    H255935   4.701   6.632  12.768 -1.6314  1.3556  0.3522
11482TIP3   OH255936   6.569   4.126   0.742  0.9973 -0.0125 -0.2129
11482TIP3    H155937   6.589   4.079   0.823  0.6332  0.9514  0.4531
11482TIP3    H255938   6.654   4.159   0.712  1.1829 -0.6580 -0.4195
11483TIP3   OH255939   3.883   5.272  11.653 -0.5515 -0.5219 -0.5578
11483TIP3    H155940   3.897   5.182  11.683 -0.3005 -0.8240 -1.5495
11483TIP3    H255941   3.895   5.268  11.558  0.9799  0.8556 -0.4699
11484TIP3   OH255942   6.025   5.105   0.885  0.3282 -0.2633  0.1653
11484TIP3    H155943   5.944   5.080   0.931  0.8641 -0.5716  0.9662
11484TIP3    H255944   6.016   5.199   0.869  0.2547 -0.0953  1.1659
11485TIP3   OH255945   3.669   4.597  16.133  0.2919 -0.0333  0.4995
11485TIP3    H155946   3.723   4.549  16.070  1.8724 -0.0913  1.8345
11485TIP3    H255947   3.625   4.664  16.081  1.9106  0.2217 -0.5973
11486TIP3   OH255948   6.658   4.425   1.122 -0.0876  0.1266 -0.1601
11486TIP3    H155949   6.594   4.355   1.121  0.7175 -0.6791  1.3261
11486TIP3    H255950   6.709   4.412   1.041  0.0306 -0.9861  0.0778
11487TIP3   OH255951   6.072   0.862  15.591 -0.0751 -0.1369  0.3424
11487TIP3    H155952   6.094   0.770  15.581 -1.1179 -0.3394 -0.1622
11487TIP3    H255953   6.032   0.887  15.508 -0.2504  0.6455  0.6497
11488TIP3   OH255954   5.227   0.149  12.198 -0.0327  0.1999  0.2519
11488TIP3    H155955   5.171   0.213  12.241  0.3462 -0.9531  2.6087
11488TIP3    H255956   5.213   0.068  12.247  2.2303 -0.5995 -0.3208
11489TIP3   OH255957   2.525   1.412  14.688 -0.3298  0.0066  0.0714
11489TIP3    H155958   2.527   1.332  14.741 -1.3562  0.6056  1.0298
11489TIP3    H255959   2.523   1.380  14.597 -2.7536 -1.1315  0.4569
11490TIP3   OH255960   0.123   6.055  15.879 -0.3242 -0.1065 -0.0597
11490TIP3    H155961   0.073   6.009  15.947  1.5090  0.7916  2.0241
11490TIP3    H255962   0.153   6.135  15.922  0.2752  0.8748 -2.2147
11491TIP3   OH255963   0.611   6.069   2.863 -0.5370  0.1845 -0.1765
11491TIP3    H155964   0.591   5.990   2.814 -1.0731  0.7217 -0.8558
11491TIP3    H255965   0.654   6.126   2.799  0.3210  0.2411  0.4450
11492TIP3   OH255966   6.804   1.582  17.007  0.1132  0.3916  0.1986
11492TIP3    H155967   6.757   1.507  17.043  1.2356 -0.0682  0.7505
11492TIP3    H255968   6.761   1.659  17.045  0.7907 -0.0538  1.9636
11493TIP3   OH255969   1.144   1.433  15.045  0.2943  0.5067  0.6858
11493TIP3    H155970   1.101   1.391  14.970  0.9418  0.2977  0.4245
11493TIP3    H255971   1.215   1.373  15.069  1.2672  1.4615  0.2723
11494TIP3   OH255972   2.686   2.690   0.569  0.5507  0.2264  0.3840
11494TIP3    H155973   2.612   2.646   0.611  0.8686 -0.7734 -0.0730
11494TIP3    H255974   2.690   2.776   0.611 -0.8546  0.2906  0.4248
11495TIP3   OH255975   5.627   4.300   2.858 -0.0539  0.0986 -0.1079
11495TIP3    H155976   5.636   4.231   2.793  1.0672  0.2685 -0.1580
11495TIP3    H255977   5.630   4.381   2.807  2.1142  0.2837  0.2074
11496TIP3   OH255978   3.012   3.368  13.044  0.2092 -0.3808 -0.1928
11496TIP3    H155979   2.929   3.399  13.007  0.0705 -0.2255  0.2422
11496TIP3    H255980   3.015   3.406  13.131  0.3721 -1.0214  0.0864
11497TIP3   OH255981   3.146   4.277  15.558 -0.3688 -0.3464  0.0137
11497TIP3    H155982   3.122   4.256  15.648 -0.6807 -1.0720 -0.2366
11497TIP3    H255983   3.083   4.230  15.504  0.1325 -0.3321 -0.5972
11498TIP3   OH255984   4.059   4.349  13.743 -0.1364 -0.0837  0.5748
11498TIP3    H155985   4.102   4.268  13.770  0.5913  1.1734  3.5666
11498TIP3    H255986   3.977   4.321  13.703  0.8743 -2.3194 -0.0814
11499TIP3   OH255987   2.792   4.020  17.191 -0.2899  0.5262 -0.2113
11499TIP3    H155988   2.838   3.990  17.112 -2.9303 -1.6272 -1.0676
11499TIP3    H255989   2.853   4.001  17.262  0.4875 -1.5817 -1.3512
11500TIP3   OH255990   6.236   4.793  15.569  0.2299 -0.2481  0.0858
11500TIP3    H155991   6.145   4.808  15.594  0.1139 -1.8532  0.7468
11500TIP3    H255992   6.248   4.699  15.581  0.8959 -0.7516 -3.5127
11501TIP3   OH255993   0.302   3.149   3.587  0.4751 -0.4415 -0.4060
11501TIP3    H155994   0.334   3.190   3.668 -1.5138 -1.1185  0.8120
11501TIP3    H255995   0.351   3.192   3.517  2.8745 -0.4016  1.1677
11502TIP3   OH255996   4.922   3.061   4.925  0.2322  0.2371 -0.1111
11502TIP3    H155997   4.874   3.066   4.843  0.0184  2.8008  0.0800
11502TIP3    H255998   4.915   3.149   4.962 -1.1786 -1.2105  3.5388
11503TIP3   OH255999   6.469   0.734   0.242 -0.2804  0.4903  0.1970
11503TIP3    H156000   6.519   0.754   0.321  2.5561  0.1936 -1.3771
11503TIP3    H256001   6.393   0.684   0.273  0.6382  0.5395  2.7256
11504TIP3   OH256002   6.071   4.627   5.174 -0.1429  0.1711 -0.0733
11504TIP3    H156003   6.006   4.578   5.225  1.3679 -0.4018  1.3854
11504TIP3    H256004   6.071   4.714   5.214 -0.6265  0.4419 -0.6511
11505TIP3   OH256005   2.575   3.234   5.424 -0.0919 -0.1695  0.5180
11505TIP3    H156006   2.631   3.296   5.471  1.9095 -0.8419 -0.8734
11505TIP3    H256007   2.630   3.200   5.354 -1.7197 -2.1812  0.1326
11506TIP3   OH256008   3.202   5.618  15.630  0.4999  0.0397  0.2647
11506TIP3    H156009   3.153   5.625  15.712 -0.1657  0.0868 -0.1235
11506TIP3    H256010   3.185   5.701  15.585  0.4281 -0.1895 -0.1442
11507TIP3   OH256011   4.265   1.959   1.208  0.2774  0.2439 -0.1224
11507TIP3    H156012   4.188   2.006   1.175  0.3878  0.8519  0.4488
11507TIP3    H256013   4.256   1.870   1.174 -0.4312  0.4329 -0.4510
11508TIP3   OH256014   3.820   5.985  12.895  0.0460 -0.1008 -0.3464
11508TIP3    H156015   3.836   5.908  12.949 -1.0241  1.3469  2.2717
11508TIP3    H256016   3.775   5.952  12.817  1.7224 -2.3092 -0.4673
11509TIP3   OH256017   6.038   3.174   2.505  0.4779 -0.1287  0.1293
11509TIP3    H156018   6.096   3.215   2.442  1.2169 -1.7538 -0.2929
11509TIP3    H256019   6.069   3.206   2.590  0.3065  1.0393 -0.2265
11510TIP3   OH256020   3.855   1.290  17.104  0.1125  0.2729 -0.2726
11510TIP3    H156021   3.869   1.208  17.151  0.8549  0.6550  0.1993
11510TIP3    H256022   3.794   1.268  17.034  0.9914 -0.9004 -0.7075
11511TIP3   OH256023   1.400   3.507   4.086 -0.2714 -0.0512  0.3079
11511TIP3    H156024   1.482   3.529   4.129  1.0430 -2.0691 -0.9793
11511TIP3    H256025   1.394   3.568   4.012  1.2303 -1.2070 -0.8405
11512TIP3   OH256026   1.208   4.488   0.471 -0.3340  0.0584  0.2014
11512TIP3    H156027   1.126   4.446   0.445 -1.8898  2.8784  0.1365
11512TIP3    H256028   1.275   4.448   0.416 -2.0534 -0.6944 -1.4214
11513TIP3   OH256029   5.253   2.725  13.186  0.0904  0.1482  0.2851
11513TIP3    H156030   5.325   2.713  13.248 -0.7442  0.3824  1.3170
11513TIP3    H256031   5.207   2.803  13.217 -1.2260 -0.5937  0.2454
11514TIP3   OH256032   3.147   1.286   6.088 -0.0519  0.2897 -0.7806
11514TIP3    H156033   3.117   1.205   6.130  1.3965 -0.8696 -1.8714
11514TIP3    H256034   3.075   1.310   6.030 -0.4634 -0.2728 -0.5181
11515TIP3   OH256035   4.859   4.724  15.113 -0.0538  0.6116 -0.2726
11515TIP3    H156036   4.779   4.672  15.115 -0.1535  0.7486 -0.6895
11515TIP3    H256037   4.917   4.675  15.054  0.5062  0.0213  0.7509
11516TIP3   OH256038   5.058   5.926   6.273  0.2481 -0.0071  0.2234
11516TIP3    H156039   4.995   5.935   6.202  0.2147  1.1074  0.3750
11516TIP3    H256040   5.134   5.884   6.233 -0.2244 -0.5024 -0.1771
11517TIP3   OH256041   4.887   2.800  14.151 -0.1062  0.2501  0.1735
11517TIP3    H156042   4.952   2.820  14.218  0.6411  0.5266 -0.6142
11517TIP3    H256043   4.803   2.807  14.196  0.3369  1.3400  0.8707
11518TIP3   OH256044   0.663   0.663  11.536  0.2611  0.0482  0.2111
11518TIP3    H156045   0.582   0.714  11.541  0.2543  0.1671 -0.7701
11518TIP3    H256046   0.722   0.704  11.599 -0.8225 -0.7794  1.8302
11519TIP3   OH256047   1.930   6.667  14.290  0.6487  0.5703 -0.1541
11519TIP3    H156048   1.876   6.648  14.213  0.5432  3.7037 -0.9545
11519TIP3    H256049   1.896   6.608  14.358  1.5788 -3.2389 -2.6982
11520TIP3   OH256050   0.964   0.341  17.171 -0.3335  0.6261 -0.1911
11520TIP3    H156051   0.985   0.251  17.146  1.2229  1.1913 -1.0858
11520TIP3    H256052   0.874   0.355  17.141  0.1806  0.0664 -2.1180
11521TIP3   OH256053   6.751   0.309   4.670  0.2328 -0.0259 -0.0337
11521TIP3    H156054   6.798   0.225   4.672  0.3806  0.0568  0.0436
11521TIP3    H256055   6.783   0.352   4.590 -0.3541 -0.3293 -0.4412
11522TIP3   OH256056   3.614   3.531  14.663 -0.1302 -0.5303 -0.5105
11522TIP3    H156057   3.543   3.479  14.700  0.8721 -1.8755 -0.4478
11522TIP3    H256058   3.576   3.569  14.583 -0.8938 -1.2909 -0.5236
11523TIP3   OH256059   2.982   0.643   1.686  0.2789 -0.9927 -0.1362
11523TIP3    H156060   3.063   0.694   1.692 -0.8602  0.8801 -0.1959
11523TIP3    H256061   3.008   0.555   1.714  2.1153 -0.1851  0.8951
11524TIP3   OH256062   1.070   2.831   4.833  0.1977  0.1375  0.6475
11524TIP3    H156063   1.051   2.814   4.925  0.1047 -1.1311  0.4182
11524TIP3    H256064   1.002   2.783   4.785  0.6885  0.1449 -0.0805
11525TIP3   OH256065   3.802   2.264  11.123 -0.5271 -0.0698 -0.1600
11525TIP3    H156066   3.816   2.335  11.185  1.0797  1.0444 -1.7080
11525TIP3    H256067   3.814   2.184  11.174  2.2214  0.7988  0.7116
11526TIP3   OH256068   0.229   0.068  12.995  0.6157 -0.0102  0.1057
11526TIP3    H156069   0.305   0.125  12.987  0.6457  0.0113  0.5301
11526TIP3    H256070   0.206   0.070  13.088  0.9138 -1.0758  0.2230
11527TIP3   OH256071   6.754   1.414   2.638 -0.4818  0.3662  0.2153
11527TIP3    H156072   6.712   1.495   2.610 -1.2411 -0.4216 -1.0181
11527TIP3    H256073   6.686   1.347   2.630  0.0885 -0.3939  1.3282
11528TIP3   OH256074   4.190   5.949   1.723  0.1654 -0.4216 -0.0738
11528TIP3    H156075   4.239   5.876   1.684  0.0936 -0.7972  0.5335
11528TIP3    H256076   4.258   6.010   1.752  0.2268 -0.2558 -0.5612
11529TIP3   OH256077   3.654   4.737  15.713  0.5757 -0.5900 -0.2039
11529TIP3    H156078   3.724   4.753  15.649  0.9017 -1.2748 -0.0306
11529TIP3    H256079   3.627   4.647  15.696 -1.3736  0.1591 -1.3112
11530TIP3   OH256080   6.702   3.545   3.624  0.0114 -0.0188 -0.0801
11530TIP3    H156081   6.669   3.630   3.593  0.1772 -0.4470 -1.5300
11530TIP3    H256082   6.630   3.508   3.675  0.0994  1.1745  0.9409
11531TIP3   OH256083   4.201   6.741   0.885  0.4251 -0.0145 -0.4135
11531TIP3    H156084   4.162   6.676   0.943  3.4396 -0.5199  1.2298
11531TIP3    H256085   4.197   6.702   0.798  0.0958 -1.3624  0.1856
11532TIP3   OH256086   5.407   4.114   2.077  0.2129  0.3522 -0.2307
11532TIP3    H156087   5.490   4.161   2.084 -0.1899  0.9009  1.1507
11532TIP3    H256088   5.343   4.171   2.120 -0.8572 -0.1571 -1.0777
11533TIP3   OH256089   4.986   3.532   0.728 -0.4023 -0.1215 -0.1915
11533TIP3    H156090   4.923   3.602   0.747 -0.5503 -0.5940  1.1560
11533TIP3    H256091   4.968   3.508   0.637 -1.0410  0.8795 -0.3476
11534TIP3   OH256092   6.538   4.387  14.118 -0.3165  0.3845  0.0582
11534TIP3    H156093   6.502   4.473  14.100 -0.4202  0.3837  0.2627
11534TIP3    H256094   6.468   4.340  14.163 -0.0042  0.4424  0.6138
11535TIP3   OH256095   2.951   3.641  11.651  0.0849 -0.4182 -0.4889
11535TIP3    H156096   2.875   3.599  11.611  1.3414 -1.8357 -1.5061
11535TIP3    H256097   2.979   3.579  11.719 -1.1482  1.2866  1.7048
11536TIP3   OH256098   2.152   6.668  15.211 -0.8457 -0.3629 -0.2110
11536TIP3    H156099   2.186   6.595  15.263  1.9389  0.2824 -0.9688
11536TIP3    H256100   2.133   6.629  15.125 -0.1536 -0.3594 -0.3674
11537TIP3   OH256101   2.018   0.686  15.525 -0.3336 -0.0548 -0.3151
11537TIP3    H156102   1.951   0.704  15.592 -0.8370  0.2434 -0.8862
11537TIP3    H256103   2.065   0.610  15.558 -1.4074 -0.6989 -0.2071
11538TIP3   OH256104   5.857   5.014  16.117 -0.3235  0.0801  0.3579
11538TIP3    H156105   5.843   5.094  16.067  0.3641 -0.7692 -1.2398
11538TIP3    H256106   5.834   4.943  16.057 -2.6234 -0.9586  2.2796
11539TIP3   OH256107   4.108   2.938  15.971 -0.5874  0.1125 -0.2909
11539TIP3    H156108   4.189   2.962  15.925 -0.2732 -1.0786 -0.3840
11539TIP3    H256109   4.057   3.019  15.973 -0.1014  0.4746 -1.6951
11540TIP3   OH256110   3.655   0.210   5.649 -0.0327  0.6544 -0.2313
11540TIP3    H156111   3.570   0.203   5.607 -0.0957  1.5936 -0.2843
11540TIP3    H256112   3.637   0.194   5.742 -0.0637 -0.3499 -0.3995
11541TIP3   OH256113   4.823   3.913  16.820 -0.2060 -0.1330 -0.1863
11541TIP3    H156114   4.739   3.933  16.861  0.6565 -2.4506  3.1788
11541TIP3    H256115   4.871   3.996  16.819 -1.4408  0.6152  0.7578
11542TIP3   OH256116   1.289   0.382  14.540 -0.0009  0.2579 -0.2027
11542TIP3    H156117   1.308   0.347  14.453 -0.5783  0.0776 -0.2604
11542TIP3    H256118   1.219   0.326  14.574 -0.5002  0.9635 -0.0470
11543TIP3   OH256119   6.221   5.907   1.021  0.2241  0.4397 -0.1923
11543TIP3    H156120   6.227   5.896   1.116 -4.0821 -1.0321  0.1065
11543TIP3    H256121   6.249   5.822   0.986  1.5941  0.9092 -0.3100
11544TIP3   OH256122   5.963   6.620   1.948  0.6789  0.2238  0.4821
11544TIP3    H156123   6.047   6.629   1.992  1.2688  0.0148 -0.5873
11544TIP3    H256124   5.984   6.597   1.858 -0.3923  3.1653 -0.6612
11545TIP3   OH256125   4.238   6.636  15.322 -0.4115  0.2794  0.4991
11545TIP3    H156126   4.199   6.578  15.387 -1.3481  1.0412  0.6416
11545TIP3    H256127   4.163   6.679  15.280  0.2428  1.6210  0.6348
11546TIP3   OH256128   1.170   5.257  11.157 -0.5170  0.7051 -0.8103
11546TIP3    H156129   1.240   5.308  11.116  2.3950 -3.0228 -1.0212
11546TIP3    H256130   1.098   5.261  11.094  1.8572 -0.3903 -3.8536
11547TIP3   OH256131   1.643   3.937   2.055  0.1432  0.3281  0.3586
11547TIP3    H156132   1.722   3.901   2.095 -0.1400 -0.6106  0.1034
11547TIP3    H256133   1.631   4.022   2.098  0.1742 -0.3909  1.8680
11548TIP3   OH256134   3.036   2.259  11.605 -0.1581 -0.3377 -0.2281
11548TIP3    H156135   3.014   2.177  11.649  2.0153 -1.3716 -0.8794
11548TIP3    H256136   3.106   2.234  11.544  0.1895  1.9212 -0.8272
11549TIP3   OH256137   6.717   4.704   4.227  1.1684  0.6633 -0.0996
11549TIP3    H156138   6.747   4.691   4.317  1.3005 -1.4395 -0.3833
11549TIP3    H256139   6.783   4.759   4.187  1.2789  1.3573  0.9966
11550TIP3   OH256140   2.081   6.257  14.454  0.1939 -0.6661  0.0771
11550TIP3    H156141   2.026   6.185  14.425  0.6620 -0.8997 -0.2446
11550TIP3    H256142   2.171   6.228  14.436  0.3988 -0.0988  0.1477
11551TIP3   OH256143   4.166   3.933   4.324 -0.6265  0.4382  0.0671
11551TIP3    H156144   4.131   3.909   4.238  1.2126  1.2262 -0.9826
11551TIP3    H256145   4.208   3.853   4.355 -0.9762  0.2503  0.0620
11552TIP3   OH256146   4.429   0.574   2.809  0.4082 -0.1833  0.2540
11552TIP3    H156147   4.366   0.618   2.866  1.0296  0.5077  0.4089
11552TIP3    H256148   4.382   0.495   2.779 -1.2063  1.1781 -1.0444
11553TIP3   OH256149   3.902   0.354   5.622  0.0901  0.0314  0.3509
11553TIP3    H156150   3.898   0.444   5.655 -1.7651  1.1717 -2.5480
11553TIP3    H256151   3.825   0.311   5.660  0.5778 -0.1451  1.1648
11554TIP3   OH256152   2.814   6.811   0.144  0.0716  0.1396 -0.7668
11554TIP3    H156153   2.861   6.895   0.147  0.4739 -0.1033 -0.1751
11554TIP3    H256154   2.784   6.804   0.053 -0.9997  1.4846 -0.5511
11555TIP3   OH256155   3.519   2.150  12.967 -0.1492 -0.3549 -0.2303
11555TIP3    H156156   3.476   2.203  13.033 -1.1571 -0.6887 -0.5979
11555TIP3    H256157   3.583   2.208  12.927  1.8264 -0.6578  2.2644
11556TIP3   OH256158   4.825   1.235   3.103  0.5091  0.3129  0.8427
11556TIP3    H156159   4.918   1.220   3.120  0.3865  0.8355  2.0741
11556TIP3    H256160   4.810   1.327   3.126  0.0174  0.7450 -0.9675
11557TIP3   OH256161   5.500   2.866   3.281 -0.1778 -0.7585 -0.0718
11557TIP3    H156162   5.593   2.844   3.280 -0.3956 -1.8448  1.0161
11557TIP3    H256163   5.473   2.858   3.190  1.1583  1.3970 -0.7242
11558TIP3   OH256164   6.802   4.528  15.173  0.3501 -0.2105  0.0349
11558TIP3    H156165   6.894   4.544  15.194  0.1348  0.4384  0.5241
11558TIP3    H256166   6.756   4.541  15.256 -0.5143  2.2151 -0.7278
11559TIP3   OH256167   3.958   0.388   0.064 -0.5299 -1.1330  0.5347
11559TIP3    H156168   3.890   0.332   0.103  0.2827 -0.4488  3.1736
11559TIP3    H256169   4.037   0.365   0.112  0.4400  0.2421 -0.3463
11560TIP3   OH256170   4.929   4.252  17.092 -0.1211  0.2322  0.7701
11560TIP3    H156171   4.873   4.229  17.166 -0.6477  2.4757  1.1451
11560TIP3    H256172   5.009   4.286  17.132 -0.7447  2.2663  0.3936
11561TIP3   OH256173   0.281   2.766   3.104  0.7615 -0.3496  0.5040
11561TIP3    H156174   0.376   2.774   3.105  0.7863 -0.4047  2.6296
11561TIP3    H256175   0.265   2.673   3.088  1.0316 -0.2355 -0.4765
11562TIP3   OH256176   5.693   0.457   4.801 -0.3440 -0.2364  0.0667
11562TIP3    H156177   5.775   0.410   4.818 -0.9757 -1.6399 -0.5826
11562TIP3    H256178   5.630   0.418   4.862 -0.7495  0.1944 -0.0652
11563TIP3   OH256179   2.303   2.402  12.960  0.1197 -0.1573 -0.9544
11563TIP3    H156180   2.359   2.473  12.929  0.4369  0.6483  1.2695
11563TIP3    H256181   2.214   2.432  12.940  0.3300 -0.2879 -2.2092
11564TIP3   OH256182   0.394   3.762  17.094 -0.1221 -0.3124  0.1076
11564TIP3    H156183   0.343   3.844  17.101  2.0510  1.2731 -1.4181
11564TIP3    H256184   0.386   3.737  17.002  0.9101 -0.6540  0.1015
11565TIP3   OH256185   1.042   1.243  14.138 -0.2698  0.6844  0.5557
11565TIP3    H156186   1.083   1.225  14.223 -0.7267  0.2425  0.6836
11565TIP3    H256187   1.114   1.237  14.075 -0.1124  0.0304  0.7913
11566TIP3   OH256188   1.734   3.872  11.589 -0.5886 -0.0230 -0.3064
11566TIP3    H156189   1.754   3.939  11.523  2.7611 -0.0436  0.5333
11566TIP3    H256190   1.687   3.804  11.541  0.1979  0.7471 -2.2661
11567TIP3   OH256191   0.661   1.504   3.115  0.0522  0.3179 -0.2770
11567TIP3    H156192   0.643   1.498   3.021 -0.2038  1.5085 -0.3195
11567TIP3    H256193   0.615   1.429   3.153  0.4836 -0.3931 -1.1447
11568TIP3   OH256194   2.439   4.296  15.882 -0.1787  0.7514 -0.1188
11568TIP3    H156195   2.502   4.307  15.954 -0.8394  1.5097  0.3618
11568TIP3    H256196   2.434   4.201  15.869 -0.3668  0.5716  1.1417
11569TIP3   OH256197   2.128   4.157  13.002 -0.4550  1.1405  0.3920
11569TIP3    H156198   2.064   4.094  12.968 -0.9656  0.8003  1.9240
11569TIP3    H256199   2.195   4.103  13.043 -0.4163  1.5721  0.9018
11570TIP3   OH256200   6.061   5.968  15.746 -0.6367  0.0903  0.6472
11570TIP3    H156201   6.090   6.031  15.679 -1.0706 -2.1251 -1.8102
11570TIP3    H256202   5.985   5.925  15.706 -1.9520 -0.2471  3.3056
11571TIP3   OH256203   1.058   6.825  11.202 -0.4713  0.2253 -0.4840
11571TIP3    H156204   1.094   6.866  11.281 -3.1118  1.9573 -0.0577
11571TIP3    H256205   1.045   6.898  11.141  0.3972 -0.9186 -2.1048
11572TIP3   OH256206   3.215   3.218   5.698 -0.6608 -0.3476 -1.2510
11572TIP3    H156207   3.149   3.170   5.647 -1.2534  0.8840 -1.6873
11572TIP3    H256208   3.197   3.194   5.789 -4.1537  2.6246 -0.9231
11573TIP3   OH256209   5.168   5.060  13.577 -0.4477  0.1563 -0.2802
11573TIP3    H156210   5.190   4.976  13.536 -1.3918  0.8692 -2.3847
11573TIP3    H256211   5.245   5.115  13.563 -0.2249 -0.0368  0.1781
11574TIP3   OH256212   1.863   4.564  15.270  0.1734  0.4265  0.0943
11574TIP3    H156213   1.777   4.530  15.296 -1.2712  4.4181  1.4005
11574TIP3    H256214   1.916   4.559  15.350  0.4016  0.1067 -0.0728
11575TIP3   OH256215   2.447   4.414  17.029 -0.0498  0.6620  0.7872
11575TIP3    H156216   2.496   4.346  17.075 -0.1739 -0.8943 -1.2267
11575TIP3    H256217   2.509   4.487  17.021  0.8977 -0.1127  0.9247
11576TIP3   OH256218   2.840   2.825   5.995 -0.4972 -0.0474 -0.1860
11576TIP3    H156219   2.754   2.812   6.036 -0.1232  0.7776  0.9093
11576TIP3    H256220   2.883   2.889   6.051 -0.3942  2.0578 -2.5116
11577TIP3   OH256221   2.286   3.098  15.575 -0.0455  0.2761  0.4447
11577TIP3    H156222   2.274   3.024  15.515 -0.9140  0.1080  0.8105
11577TIP3    H256223   2.368   3.079  15.620  0.5906  0.3788 -0.6525
11578TIP3   OH256224   2.246   0.146  14.145  0.3160  0.4579 -0.2403
11578TIP3    H156225   2.257   0.151  14.240 -0.5882 -0.0717 -0.0985
11578TIP3    H256226   2.167   0.197  14.127  0.7170  0.9126 -0.7665
11579TIP3   OH256227   1.132   5.589  16.165 -0.3855  0.1752  0.1681
11579TIP3    H156228   1.209   5.646  16.171  1.3349 -1.9378 -0.5502
11579TIP3    H256229   1.118   5.558  16.255 -0.4550  0.6223  0.3138
11580TIP3   OH256230   3.563   2.952  14.680  0.4632  0.3675 -0.2364
11580TIP3    H156231   3.529   3.000  14.604  1.7435  1.5333 -0.1119
11580TIP3    H256232   3.489   2.950  14.742  0.3913  2.3302 -0.1969
11581TIP3   OH256233   0.474   0.413  14.101  0.1334  0.0597  1.0530
11581TIP3    H156234   0.567   0.434  14.102  0.5792 -1.1257 -2.4634
11581TIP3    H256235   0.457   0.371  14.185  2.4365  1.4631  2.2906
11582TIP3   OH256236   4.427   6.311  12.956 -0.1573 -0.6158 -0.6695
11582TIP3    H156237   4.483   6.336  12.882  0.2503  1.7909  0.3515
11582TIP3    H256238   4.488   6.276  13.020 -0.0803  0.0797 -0.3530
11583TIP3   OH256239   2.486   4.624   5.903  0.7303  0.4482  0.2043
11583TIP3    H156240   2.483   4.544   5.956  0.8903  0.1377 -0.2534
11583TIP3    H256241   2.399   4.663   5.913  0.5970  0.1294  0.2925
11584TIP3   OH256242   4.465   4.948   5.576  0.0898 -0.2491 -0.1692
11584TIP3    H156243   4.451   4.932   5.483 -1.0616 -1.1317  0.1199
11584TIP3    H256244   4.402   5.017   5.598  1.0008  0.6159 -0.2184
11585TIP3   OH256245   3.873   0.629   0.175 -0.0871  0.2798  0.2197
11585TIP3    H156246   3.870   0.585   0.261 -0.3482 -0.8376 -0.3349
11585TIP3    H256247   3.885   0.557   0.113  3.6435  1.2856 -0.4940
11586TIP3   OH256248   5.936   3.375   3.246  0.2890  0.2617  0.6165
11586TIP3    H156249   6.017   3.419   3.222 -0.4122  1.6502  0.6297
11586TIP3    H256250   5.896   3.433   3.311 -1.2071  0.1829 -0.1752
11587TIP3   OH256251   6.580   4.437   5.512  0.1333 -0.0939 -0.4350
11587TIP3    H156252   6.544   4.487   5.439 -1.9080 -0.9791 -0.1063
11587TIP3    H256253   6.667   4.473   5.526 -0.5009  1.9639 -1.5111
11588TIP3   OH256254   3.936   2.481   2.321 -0.0026  0.2462 -0.0073
11588TIP3    H156255   3.914   2.570   2.348 -0.4083  0.3165 -0.5423
11588TIP3    H256256   3.983   2.444   2.396  0.5443  1.0442  0.0519
11589TIP3   OH256257   2.128   5.314  15.821 -0.1846 -0.3410 -0.5667
11589TIP3    H156258   2.202   5.260  15.849  1.3987  0.8844 -2.1858
11589TIP3    H256259   2.126   5.305  15.726 -1.4209  0.5556 -0.6446
11590TIP3   OH256260   4.857   2.063   1.448  0.0299  0.0203 -0.4171
11590TIP3    H156261   4.875   2.113   1.368 -0.8696  0.7006 -0.2072
11590TIP3    H256262   4.938   2.067   1.498 -0.4883  2.7327  0.3655
11591TIP3   OH256263   1.733   2.683   1.271  0.3252  0.0536  0.0088
11591TIP3    H156264   1.714   2.776   1.282 -0.3496  0.1291 -1.4962
11591TIP3    H256265   1.820   2.681   1.231  1.4837 -0.1038  2.3754
11592TIP3   OH256266   3.764   0.247  13.199  0.2907 -0.3759 -0.6455
11592TIP3    H156267   3.813   0.247  13.281  0.9486  0.6403 -1.0230
11592TIP3    H256268   3.720   0.162  13.198  0.5571 -0.5532  0.5838
11593TIP3   OH256269   0.999   2.771  15.445 -0.3521 -0.4552  0.6978
11593TIP3    H156270   1.016   2.682  15.476 -0.2378 -1.8249 -2.8982
11593TIP3    H256271   0.904   2.774  15.432 -0.4017  0.1013  1.1626
11594TIP3   OH256272   2.261   0.914  11.914  0.5254  0.7813 -0.1239
11594TIP3    H156273   2.193   0.906  11.848  0.9153 -0.3482 -0.4232
11594TIP3    H256274   2.220   0.963  11.986 -1.5778 -2.1708  0.9077
11595TIP3   OH256275   4.237   2.411   5.402  0.0460  0.0528 -0.1232
11595TIP3    H156276   4.277   2.324   5.390 -0.0924  0.0511 -0.6033
11595TIP3    H256277   4.196   2.430   5.318  0.5889  0.8480 -0.2224
11596TIP3   OH256278   2.408   2.221  14.720 -0.5418 -0.5697 -0.3895
11596TIP3    H156279   2.463   2.157  14.675 -0.4339  0.8717 -2.5118
11596TIP3    H256280   2.337   2.169  14.758 -0.2308 -2.0053 -1.6401
11597TIP3   OH256281   2.451   3.131  13.173 -0.2829  0.5673 -0.1681
11597TIP3    H156282   2.492   3.044  13.180 -1.2043 -0.0903 -2.1575
11597TIP3    H256283   2.502   3.176  13.105 -2.4087 -0.0828 -2.3291
11598TIP3   OH256284   5.559   4.807  15.598 -0.0652  0.7833 -0.6867
11598TIP3    H156285   5.623   4.736  15.595 -1.1694 -0.4573  1.8878
11598TIP3    H256286   5.484   4.774  15.548 -0.9763 -0.4120  1.3450
11599TIP3   OH256287   4.776   0.546   4.140  0.1293 -0.4326 -0.6229
11599TIP3    H156288   4.690   0.522   4.175 -0.3073  2.1824  0.2443
11599TIP3    H256289   4.826   0.465   4.145 -1.3859 -1.3424  1.6011
11600TIP3   OH256290   0.395   0.075  14.231  0.5417  0.3696 -0.1696
11600TIP3    H156291   0.318   0.017  14.229  1.3747 -0.8632  1.5284
11600TIP3    H256292   0.432   0.068  14.143  0.7606 -1.9269  0.0419
11601TIP3   OH256293   4.722   4.868   0.879 -0.1641  0.2720  0.1205
11601TIP3    H156294   4.640   4.870   0.828 -1.0482 -0.0887  1.4791
11601TIP3    H256295   4.745   4.961   0.890 -0.6945  0.3981  0.1931
11602TIP3   OH256296   0.571   5.953   4.891 -0.3850 -0.1739  0.1180
11602TIP3    H156297   0.572   5.866   4.851  1.8316 -0.3151  0.3523
11602TIP3    H256298   0.577   6.014   4.818 -0.5885 -0.2771  0.0162
11603TIP3   OH256299   4.265   3.853   3.200 -0.3315 -0.2289  0.5915
11603TIP3    H156300   4.340   3.869   3.143 -1.1862 -0.8626 -0.7605
11603TIP3    H256301   4.222   3.776   3.162 -0.0580 -1.6671  3.0217
11604TIP3   OH256302   2.319   4.379   1.132  0.3589  0.3659  0.1173
11604TIP3    H156303   2.359   4.346   1.052  0.1149 -0.5424  0.3608
11604TIP3    H256304   2.244   4.429   1.102 -0.8641 -1.5458 -0.1839
11605TIP3   OH256305   5.002   4.473  11.686  0.2959  0.2633  0.0002
11605TIP3    H156306   4.935   4.516  11.739 -0.3923 -0.1607 -0.5159
11605TIP3    H256307   4.994   4.380  11.708 -0.6374 -0.0555 -1.5076
11606TIP3   OH256308   4.668   0.038  12.303  0.1623  0.0390 -0.9896
11606TIP3    H156309   4.717  -0.012  12.369 -1.8247 -0.5527  0.1268
11606TIP3    H256310   4.735   0.069  12.242  2.0431  0.1577  0.9963
11607TIP3   OH256311   5.921   5.547   4.066 -0.0351 -0.2199 -0.5073
11607TIP3    H156312   6.016   5.543   4.072 -0.0872 -0.0242  0.7303
11607TIP3    H256313   5.901   5.640   4.062 -0.2108 -0.2017  0.4347
11608TIP3   OH256314   1.429   3.118   4.807 -0.0479 -0.2017 -0.1068
11608TIP3    H156315   1.408   3.127   4.714  0.8662 -2.3762 -0.5741
11608TIP3    H256316   1.345   3.099   4.848 -0.2328 -0.7434 -0.7239
11609TIP3   OH256317   0.322   0.349   5.904 -0.2814  0.0803  0.3068
11609TIP3    H156318   0.312   0.443   5.890  0.4941  0.0192 -0.7800
11609TIP3    H256319   0.347   0.341   5.996  1.3847  1.0870 -0.0192
11610TIP3   OH256320   4.011   0.817  12.061 -0.1568  0.1535  0.3099
11610TIP3    H156321   3.999   0.850  12.150  2.6946  1.4120  0.3163
11610TIP3    H256322   4.101   0.786  12.058 -0.0391  0.5018 -2.2402
11611TIP3   OH256323   1.202   1.074  16.035 -0.4355 -0.0123 -0.4181
11611TIP3    H156324   1.107   1.060  16.027 -0.4016 -0.4883  0.0312
11611TIP3    H256325   1.233   1.076  15.945 -1.0939  1.7299 -0.6609
11612TIP3   OH256326   2.868   2.797   0.341  0.1870  0.6416 -0.1467
11612TIP3    H156327   2.838   2.870   0.286 -2.0759 -1.5408 -1.9973
11612TIP3    H256328   2.788   2.755   0.372  1.4239 -0.8990  1.1461
11613TIP3   OH256329   0.091   2.927   2.962  0.1754 -0.5767  0.0102
11613TIP3    H156330   0.024   2.869   2.998  0.4441 -1.2904 -0.6085
11613TIP3    H256331   0.173   2.878   2.973  0.6343  0.3808  0.9682
11614TIP3   OH256332   2.904   3.582   3.782  0.1619 -0.2270  0.1737
11614TIP3    H156333   2.891   3.677   3.785  1.2915 -0.0703  1.5251
11614TIP3    H256334   2.910   3.562   3.689 -0.8871  0.8986 -0.1665
11615TIP3   OH256335   4.130   0.645   5.572 -0.3694  0.7997 -0.1415
11615TIP3    H156336   4.168   0.717   5.622 -0.1750  1.3055 -0.9964
11615TIP3    H256337   4.200   0.617   5.512  0.5429 -1.9557  1.9870
11616TIP3   OH256338   1.290   1.331   2.802 -0.0331  0.4112  0.2108
11616TIP3    H156339   1.268   1.356   2.712  3.1854 -0.2545 -0.8786
11616TIP3    H256340   1.270   1.237   2.806  0.9830  0.1658 -0.2420
11617TIP3   OH256341   3.062   5.406  13.995  0.3238  0.0401 -0.0054
11617TIP3    H156342   3.042   5.385  14.086 -0.0130  0.3580 -0.0006
11617TIP3    H256343   3.119   5.483  14.000  0.9044 -0.3796 -0.0446
11618TIP3   OH256344   3.122   2.862  14.100  0.3872  0.4098  1.1386
11618TIP3    H156345   3.038   2.850  14.145 -0.9263  2.6285 -0.5591
11618TIP3    H256346   3.109   2.821  14.014  2.0133 -1.5386  1.7343
11619TIP3   OH256347   5.790   4.372  10.620 -0.1548 -0.6511 -0.3402
11619TIP3    H156348   5.735   4.440  10.659  0.5732 -1.1961  1.7486
11619TIP3    H256349   5.738   4.292  10.625  0.5533 -1.0491  1.0998
11620TIP3   OH256350   5.148   6.560   5.692 -0.1679  0.1549  0.3206
11620TIP3    H156351   5.199   6.522   5.763 -0.5392 -0.3224  0.3367
11620TIP3    H256352   5.211   6.581   5.624  0.0573 -0.3530  0.3717
11621TIP3   OH256353   1.204   1.076   2.810  0.1833  0.1657 -1.0063
11621TIP3    H156354   1.175   0.995   2.853 -1.3578  0.8455 -0.6871
11621TIP3    H256355   1.150   1.081   2.731  0.2917  0.8653 -1.0405
11622TIP3   OH256356   0.614   2.252  13.960  0.2904  0.4336  0.0434
11622TIP3    H156357   0.533   2.204  13.976  0.8475 -0.3095  0.8007
11622TIP3    H256358   0.682   2.185  13.966  0.8533  0.7615 -2.1401
11623TIP3   OH256359   0.834   5.765   1.816  0.6825  0.0149 -0.8165
11623TIP3    H156360   0.896   5.776   1.887  0.8335  3.1983 -1.3095
11623TIP3    H256361   0.751   5.742   1.859  0.7059  2.1326  0.4668
11624TIP3   OH256362   1.009   0.332   3.142  0.4093 -0.0299  0.3090
11624TIP3    H156363   1.023   0.335   3.048  0.6530 -0.1368  0.3395
11624TIP3    H256364   0.917   0.353   3.154  0.7284  1.5660  0.1540
11625TIP3   OH256365   1.996   4.200   1.053  0.8236  0.2577  0.3399
11625TIP3    H156366   1.925   4.136   1.061  0.7195 -0.6082 -4.5246
11625TIP3    H256367   2.073   4.154   1.085 -0.0251 -0.5063  1.3520
11626TIP3   OH256368   4.584   0.122  16.233 -0.6099 -0.2798  0.0458
11626TIP3    H156369   4.668   0.168  16.223 -0.5142 -0.5805 -0.5466
11626TIP3    H256370   4.518   0.191  16.225 -0.4000  0.1735  1.7931
11627TIP3   OH256371   4.936   1.137   3.729  0.0614 -0.0747  0.3137
11627TIP3    H156372   4.842   1.154   3.722 -0.0369  0.2537  2.0051
11627TIP3    H256373   4.971   1.211   3.778  0.6434 -1.6190  2.4328
11628TIP3   OH256374   5.595   1.935   5.875 -0.1705  0.7448  0.0761
11628TIP3    H156375   5.590   1.849   5.833  0.4083  1.1658 -0.8837
11628TIP3    H256376   5.675   1.931   5.927 -0.8169  0.2701  1.0612
11629TIP3   OH256377   0.976   1.458  11.225  0.8166 -0.1982 -0.0976
11629TIP3    H156378   1.071   1.462  11.227  0.8324 -0.4075 -0.4173
11629TIP3    H256379   0.948   1.550  11.224  1.0116 -0.1367 -0.0068
11630TIP3   OH256380   5.815   6.334  16.906 -0.8008  0.3635  0.0902
11630TIP3    H156381   5.820   6.368  16.995  1.4361  0.6569 -0.1063
11630TIP3    H256382   5.905   6.313  16.882 -1.5401 -1.2628 -1.5264
11631TIP3   OH256383   2.200   5.518   1.510 -0.6065  0.2234  0.2568
11631TIP3    H156384   2.122   5.497   1.459 -1.0969  0.4699  0.8912
11631TIP3    H256385   2.173   5.505   1.601 -0.0565  0.7959  0.5082
11632TIP3   OH256386   1.977   2.746   0.133  0.0366  0.0807  0.2481
11632TIP3    H156387   2.047   2.682   0.145 -0.7900 -0.5686  1.8837
11632TIP3    H256388   1.937   2.723   0.048  1.1605 -0.1388 -0.2364
11633TIP3   OH256389   0.458   0.308   0.350 -0.1847  0.0564  0.2514
11633TIP3    H156390   0.545   0.327   0.315 -1.0554  0.5378 -1.7654
11633TIP3    H256391   0.436   0.223   0.313 -0.9064  0.3170  0.0780
11634TIP3   OH256392   0.877   1.236   3.675 -0.3446  0.4325  0.1123
11634TIP3    H156393   0.782   1.231   3.680 -0.4712  1.3921 -0.8852
11634TIP3    H256394   0.894   1.295   3.601  1.0348 -1.2071 -0.9775
11635TIP3   OH256395   3.275   4.038  14.252  0.6255  0.4178  0.0469
11635TIP3    H156396   3.364   4.073  14.258  0.4135  1.3104 -1.5678
11635TIP3    H256397   3.228   4.100  14.197 -0.1283 -1.6886 -1.8484
11636TIP3   OH256398   4.418   5.796   3.848 -0.9120  0.7982  0.0300
11636TIP3    H156399   4.379   5.745   3.777  0.4400 -1.5082  0.8323
11636TIP3    H256400   4.503   5.823   3.813 -0.4467  0.0675  0.5684
11637TIP3   OH256401   3.573   6.100   3.196  0.9838 -0.1751 -0.0009
11637TIP3    H156402   3.653   6.053   3.174  1.2108  0.4519 -0.5250
11637TIP3    H256403   3.513   6.032   3.227  0.8749 -1.0025 -1.9249
11638TIP3   OH256404   0.537   2.484   5.650 -0.2813 -0.6674  0.0635
11638TIP3    H156405   0.461   2.541   5.635  1.1133  1.3171  0.0968
11638TIP3    H256406   0.528   2.454   5.741 -1.4911 -1.2480 -0.2297
11639TIP3   OH256407   6.525   2.073  14.198 -0.5914 -0.2843 -0.3170
11639TIP3    H156408   6.595   2.009  14.186 -1.0981 -0.4676 -2.7844
11639TIP3    H256409   6.451   2.022  14.229  0.1645 -0.1679  1.8264
11640TIP3   OH256410   1.982   5.136  16.669  0.3643  0.3003 -0.0407
11640TIP3    H156411   2.049   5.094  16.721  1.5129  2.1346  0.0497
11640TIP3    H256412   1.909   5.150  16.730 -1.0040 -3.4025 -0.5794
11641TIP3   OH256413   3.964   4.000  12.846 -0.4303  0.6043 -0.4900
11641TIP3    H156414   3.968   4.034  12.935 -0.5544 -0.1897 -0.1796
11641TIP3    H256415   3.870   3.995  12.826 -0.4144  0.3801 -0.5117
11642TIP3   OH256416   3.306   1.250   3.447  0.3601  0.0343 -0.3758
11642TIP3    H156417   3.251   1.252   3.369  0.6271 -0.3865 -0.5811
11642TIP3    H256418   3.246   1.263   3.520  0.0790  0.2168 -0.6411
11643TIP3   OH256419   4.194   1.190  13.182 -0.1000  0.3345 -0.1310
11643TIP3    H156420   4.256   1.138  13.233 -0.1162  0.9629  0.5407
11643TIP3    H256421   4.220   1.175  13.091  1.5134  1.1562  0.1681
11644TIP3   OH256422   4.081   3.087   3.407  0.2713  0.1636 -0.5294
11644TIP3    H156423   4.054   3.047   3.490  1.5445 -0.1593 -0.2411
11644TIP3    H256424   4.173   3.110   3.422 -0.0235  1.8906 -1.1852
11645TIP3   OH256425   2.653   2.860   3.922  0.1777 -0.3749 -0.0600
11645TIP3    H156426   2.595   2.786   3.941 -1.6952  0.4970 -1.9550
11645TIP3    H256427   2.736   2.819   3.898  0.0498 -1.7089  1.5716
11646TIP3   OH256428   3.260   4.307  16.907 -0.6852 -0.1474  0.5518
11646TIP3    H156429   3.225   4.221  16.933  1.3767 -0.9960  0.7175
11646TIP3    H256430   3.230   4.319  16.817 -1.8299 -0.5572  0.8596
11647TIP3   OH256431   3.776   6.769   6.022  0.5537  0.0196 -0.2662
11647TIP3    H156432   3.787   6.675   6.009 -2.0670 -0.4418  0.2698
11647TIP3    H256433   3.840   6.791   6.090  0.1544 -1.7363  0.7660
11648TIP3   OH256434   6.381   2.410  15.147 -0.1198 -0.0605 -0.0372
11648TIP3    H156435   6.381   2.493  15.099  1.8267  0.1897  0.3197
11648TIP3    H256436   6.389   2.342  15.080  0.4868  0.1710 -0.2040
11649TIP3   OH256437   3.574   2.687  17.177  0.5147 -0.5308 -0.2065
11649TIP3    H156438   3.538   2.759  17.230 -0.1101 -1.4162  0.6079
11649TIP3    H256439   3.638   2.645  17.235 -0.5725 -1.8538  0.1061
11650TIP3   OH256440   4.602   6.780   5.681  0.4431 -0.4133  0.4072
11650TIP3    H156441   4.572   6.867   5.707  0.1413 -0.4325  0.1293
11650TIP3    H256442   4.595   6.727   5.761 -2.5112 -1.0306 -0.1381
11651TIP3   OH256443   4.378   5.285  13.310 -0.4998 -0.1868 -0.2850
11651TIP3    H156444   4.408   5.369  13.276 -2.1961  0.3712 -0.4966
11651TIP3    H256445   4.321   5.250  13.242 -0.6667 -0.9968  0.2536
11652TIP3   OH256446   0.413   5.318   4.211 -0.9780 -0.4620  1.0663
11652TIP3    H156447   0.429   5.314   4.117 -0.8365  0.4511  1.0382
11652TIP3    H256448   0.318   5.312   4.219 -0.8673 -4.0902  1.1198
11653TIP3   OH256449   5.723   3.232   4.948 -0.3107 -0.5769 -0.0113
11653TIP3    H156450   5.633   3.216   4.976 -0.8107 -0.4167 -1.4220
11653TIP3    H256451   5.776   3.219   5.026 -1.5372 -0.9150  0.7830
11654TIP3   OH256452   5.409   2.179  13.628 -0.5558 -0.4603 -0.4508
11654TIP3    H156453   5.323   2.220  13.618 -0.6002 -0.6598 -0.8722
11654TIP3    H256454   5.429   2.189  13.722 -1.7852 -1.8854  0.0126
11655TIP3   OH256455   1.601   4.360  12.623 -0.5348  0.3484  0.6875
11655TIP3    H156456   1.616   4.311  12.542 -0.2970  1.0065  0.3227
11655TIP3    H256457   1.505   4.361  12.632 -0.6627  1.5644 -0.4289
11656TIP3   OH256458   5.499   4.748   2.636  0.6181 -0.0452 -0.2481
11656TIP3    H156459   5.593   4.769   2.630  0.6308  0.2079  0.7623
11656TIP3    H256460   5.481   4.742   2.730 -0.3686 -0.1608 -0.4327
11657TIP3   OH256461   6.261   5.353   5.096 -0.0368  0.8981  0.2580
11657TIP3    H156462   6.302   5.433   5.127  0.0427  0.2133  2.0308
11657TIP3    H256463   6.267   5.292   5.170  1.3883 -1.3126 -1.5346
11658TIP3   OH256464   3.933   4.800  14.192  0.3230  0.0255 -0.4356
11658TIP3    H156465   3.851   4.849  14.199 -0.0782 -0.7354  0.2684
11658TIP3    H256466   3.991   4.858  14.143  0.1215  1.5470  1.0465
11659TIP3   OH256467   3.758   4.570   1.687 -0.2659 -0.1790  0.8967
11659TIP3    H156468   3.841   4.539   1.723 -0.4497 -1.9409 -0.1070
11659TIP3    H256469   3.771   4.567   1.592 -1.0262  0.8454  0.7438
11660TIP3   OH256470   2.204   4.464  15.801  0.5774  0.0786  0.3022
11660TIP3    H156471   2.175   4.382  15.841  0.3732  0.0736  0.1451
11660TIP3    H256472   2.236   4.438  15.715  1.6208 -0.0053  0.7002
11661TIP3   OH256473   4.745   2.084   4.559  0.2139  0.1324 -0.4587
11661TIP3    H156474   4.759   2.149   4.628 -1.0390  0.2973 -0.3394
11661TIP3    H256475   4.826   2.085   4.508  1.1248  0.0817  0.9435
11662TIP3   OH256476   1.260   4.111   2.236 -0.0424 -0.3048 -0.0983
11662TIP3    H156477   1.302   4.179   2.182 -0.6797  1.9313  2.0312
11662TIP3    H256478   1.322   4.095   2.307 -0.3095 -1.3010 -0.0783
11663TIP3   OH256479   2.228   6.554  12.940  0.3825 -0.0488 -0.7248
11663TIP3    H156480   2.148   6.564  12.888  0.9054 -0.4368 -1.6360
11663TIP3    H256481   2.224   6.465  12.973 -0.7669  0.7131  1.3563
11664TIP3   OH256482   1.097   2.477   4.056 -0.0449  0.6164  0.4240
11664TIP3    H156483   1.014   2.463   4.012  0.2956  0.5472 -0.2138
11664TIP3    H256484   1.074   2.504   4.145 -0.7480  1.1328  0.0892
11665TIP3   OH256485   4.846   4.620   0.433  0.5422  0.6039 -0.1761
11665TIP3    H156486   4.786   4.559   0.477 -0.8260  1.1565 -1.1826
11665TIP3    H256487   4.914   4.638   0.498 -0.6718  0.3508  1.2228
11666TIP3   OH256488   2.069   4.596  13.572 -0.0653 -0.0291  0.1450
11666TIP3    H156489   1.994   4.581  13.515  0.3670 -0.9201 -0.2119
11666TIP3    H256490   2.059   4.686  13.602 -1.0489 -0.0051 -0.2243
11667TIP3   OH256491   1.085   0.168   6.545  0.0767  0.0522 -0.7048
11667TIP3    H156492   1.082   0.238   6.480 -0.6518  1.2778  0.5920
11667TIP3    H256493   1.113   0.091   6.496  1.7666  1.4196 -2.0183
11668TIP3   OH256494   0.552   2.929  12.141 -0.5553  0.1048 -0.0547
11668TIP3    H156495   0.499   3.007  12.156 -0.9965 -0.0948 -0.5447
11668TIP3    H256496   0.527   2.869  12.211 -2.1540 -0.5894 -1.1598
11669TIP3   OH256497   6.736   4.186   3.986 -0.8435 -0.4341 -0.0584
11669TIP3    H156498   6.803   4.134   4.031 -1.9134  0.2116  2.4283
11669TIP3    H256499   6.785   4.246   3.931  0.6117 -0.4920  1.1162
11670TIP3   OH256500   3.474   4.897   1.306 -0.2887  0.2144 -0.2934
11670TIP3    H156501   3.458   4.981   1.261 -1.1987 -0.1467 -0.6763
11670TIP3    H256502   3.568   4.885   1.301 -0.3454  0.1793 -2.1861
11671TIP3   OH256503   0.529   5.410   6.410 -0.3722  0.8392  0.0697
11671TIP3    H156504   0.510   5.411   6.504  0.2019 -0.4254  0.2175
11671TIP3    H256505   0.499   5.324   6.380  0.2410  0.8915 -0.7329
11672TIP3   OH256506   5.901   3.378  12.475  0.2080 -0.5194  0.4248
11672TIP3    H156507   5.896   3.344  12.385  1.6721  1.1340 -0.3344
11672TIP3    H256508   5.810   3.397  12.498 -0.3743 -2.5232 -0.0494
11673TIP3   OH256509   3.284   2.541  10.253 -0.2277 -0.4449  0.1002
11673TIP3    H156510   3.344   2.513  10.321  0.9877 -0.9737 -1.1373
11673TIP3    H256511   3.211   2.582  10.300  1.3925  0.8230  1.6250
11674TIP3   OH256512   6.259   1.633   5.533  0.0092 -0.1863 -0.6440
11674TIP3    H156513   6.236   1.624   5.626  0.5496 -0.2181 -0.5096
11674TIP3    H256514   6.198   1.698   5.499 -0.8825 -0.9391 -0.5157
11675TIP3   OH256515   6.201   0.485  12.597 -0.5863  0.1173  0.8167
11675TIP3    H156516   6.135   0.516  12.659 -1.4147  0.5977 -0.2806
11675TIP3    H256517   6.164   0.503  12.511  1.6217  1.8121  0.1212
11676TIP3   OH256518   6.427   6.146  14.095 -0.2141 -0.3162  0.1677
11676TIP3    H156519   6.480   6.072  14.126 -3.4356 -2.8602  0.1064
11676TIP3    H256520   6.419   6.132  14.001 -1.2934 -0.2261  0.2366
11677TIP3   OH256521   4.555   1.466   4.151 -0.0956 -0.8725 -0.2080
11677TIP3    H156522   4.589   1.394   4.098  0.9481 -0.8266  0.3657
11677TIP3    H256523   4.528   1.424   4.233 -1.7812 -0.9578 -0.7682
11678TIP3   OH256524   1.937   2.782  10.834  0.1468 -0.0361  0.1243
11678TIP3    H156525   1.856   2.732  10.823  0.0463  0.3589 -1.0604
11678TIP3    H256526   1.916   2.869  10.800  1.4497 -0.2888 -1.4123
11679TIP3   OH256527   4.494   3.999   1.623  0.2097 -1.3819  0.0520
11679TIP3    H156528   4.483   3.924   1.680  0.6370 -1.5362 -0.0623
11679TIP3    H256529   4.553   3.968   1.553 -0.1215 -1.1328 -0.3450
11680TIP3   OH256530   3.359   0.081  14.209 -0.0294  0.0880  0.7587
11680TIP3    H156531   3.336  -0.003  14.249  1.0380  0.1162  1.4677
11680TIP3    H256532   3.448   0.068  14.176  0.6962  1.3571  2.1210
11681TIP3   OH256533   5.014   2.429  16.428 -0.1775  0.5853  0.0594
11681TIP3    H156534   4.941   2.386  16.473 -1.6212  1.0586 -1.7402
11681TIP3    H256535   5.018   2.387  16.342  1.4639  0.8282 -0.0177
11682TIP3   OH256536   0.620   5.215  14.674 -0.1442 -0.4197  0.3342
11682TIP3    H156537   0.677   5.243  14.602 -0.8045 -1.1493 -0.4970
11682TIP3    H256538   0.661   5.250  14.753  0.8516 -0.0021 -0.3575
11683TIP3   OH256539   1.100   0.528  10.824 -0.3672 -0.0971 -0.0603
11683TIP3    H156540   1.141   0.442  10.832  0.2821  0.1805 -0.3106
11683TIP3    H256541   1.009   0.510  10.800 -0.2829 -0.7136  0.0849
11684TIP3   OH256542   2.802   1.482  16.254  0.7431  0.7865  0.7804
11684TIP3    H156543   2.882   1.506  16.301  0.2234  0.1663  2.0148
11684TIP3    H256544   2.826   1.490  16.161  2.8535 -1.2039  1.0459
11685TIP3   OH256545   4.078   1.240   4.688  0.4737 -0.5335  0.3355
11685TIP3    H156546   4.009   1.279   4.740  0.3247  1.0078 -0.9408
11685TIP3    H256547   4.146   1.217   4.751 -0.1512  0.2255  1.3162
11686TIP3   OH256548   5.185   0.010   2.316 -0.1553 -0.2460  0.3070
11686TIP3    H156549   5.140  -0.066   2.352  2.6084 -2.2889 -0.1990
11686TIP3    H256550   5.235   0.046   2.389 -0.7854  0.5774  0.3436
11687TIP3   OH256551   0.987   5.295   4.269 -0.0785 -0.0554  0.2068
11687TIP3    H156552   1.038   5.342   4.336 -0.7659  0.1125  0.6172
11687TIP3    H256553   1.039   5.218   4.250  0.3430  0.1173  0.6184
11688TIP3   OH256554   5.935   4.044   0.481 -0.2800  0.0990 -0.1129
11688TIP3    H156555   5.852   4.028   0.526 -0.7809  0.4632 -0.8930
11688TIP3    H256556   5.928   4.133   0.448  0.5201  0.2174  0.0017
11689TIP3   OH256557   4.605   3.802   4.816  0.0981 -0.4595 -0.4888
11689TIP3    H156558   4.628   3.773   4.905  0.8332 -0.1098 -0.5529
11689TIP3    H256559   4.667   3.755   4.760  0.8701  0.7249 -0.6508
11690TIP3   OH256560   5.851   0.500  13.855  0.1164 -0.0768  0.1937
11690TIP3    H156561   5.877   0.464  13.940  0.9266 -1.7974 -0.7266
11690TIP3    H256562   5.830   0.592  13.873  0.8774 -0.2332  2.1203
11691TIP3   OH256563   4.145   4.572  14.634  0.2431 -0.9383  0.6414
11691TIP3    H156564   4.210   4.630  14.673  0.6639 -0.5096 -0.6617
11691TIP3    H256565   4.109   4.621  14.560 -1.5677 -1.1738  1.3154
11692TIP3   OH256566   1.818   0.059   1.130 -0.3626 -0.6679  0.5078
11692TIP3    H156567   1.876   0.113   1.075  0.5644 -1.6492  0.4927
11692TIP3    H256568   1.738   0.112   1.139 -1.3257 -1.1498 -3.2594
11693TIP3   OH256569   4.410   0.084   3.631 -0.1711  0.3485 -0.8195
11693TIP3    H156570   4.420   0.091   3.726  2.1665  0.3560 -1.0140
11693TIP3    H256571   4.388   0.173   3.603  2.3210  1.1320 -0.5493
11694TIP3   OH256572   3.565   3.609   4.596 -0.2004 -0.2177  0.4523
11694TIP3    H156573   3.539   3.611   4.688 -3.3306 -1.0506 -0.2830
11694TIP3    H256574   3.555   3.699   4.566  0.3356 -0.0435  0.7765
11695TIP3   OH256575   1.584   4.534  14.614 -0.4425  0.2876  0.1340
11695TIP3    H156576   1.665   4.512  14.568 -1.1362 -0.2411 -0.8803
11695TIP3    H256577   1.521   4.552  14.545 -0.8160  2.1972  0.9148
11696TIP3   OH256578   2.700   4.835   5.421  0.6669 -0.3979 -0.0179
11696TIP3    H156579   2.680   4.760   5.477 -0.7901  0.8424  1.1989
11696TIP3    H256580   2.638   4.829   5.349  0.0388  0.0400  0.4800
11697TIP3   OH256581   5.333   2.929   2.026  0.1055 -0.1671  0.1979
11697TIP3    H156582   5.380   2.987   2.087  0.1735  0.4979 -0.4773
11697TIP3    H256583   5.382   2.846   2.029  3.0732  1.2731 -2.4832
11698TIP3   OH256584   3.508   6.454   3.977 -0.0113 -0.5203 -0.0875
11698TIP3    H156585   3.547   6.375   3.939  0.5398  0.0899 -0.7950
11698TIP3    H256586   3.540   6.526   3.923 -1.1317  0.1249  0.0664
11699TIP3   OH256587   4.902   3.394  13.938 -0.3468  0.3160  0.4701
11699TIP3    H156588   4.951   3.348  13.869  0.3555  0.2803  0.9854
11699TIP3    H256589   4.837   3.330  13.968 -1.4552  0.7216 -0.9570
11700TIP3   OH256590   1.549   5.487   5.873 -0.2486 -0.1088  0.3789
11700TIP3    H156591   1.537   5.528   5.788 -0.0233  1.9361  1.2744
11700TIP3    H256592   1.483   5.528   5.929  0.0210 -0.9506  1.3386
11701TIP3   OH256593   2.623   4.027  14.765 -0.3803  0.2844  0.2443
11701TIP3    H156594   2.635   4.122  14.776 -1.4239  0.3514  0.9490
11701TIP3    H256595   2.581   4.018  14.679  1.0980  0.3280 -0.5094
11702TIP3   OH256596   3.259   4.621   4.884  0.0899 -0.1795  0.1386
11702TIP3    H156597   3.258   4.635   4.979  0.6188  1.0917 -0.0246
11702TIP3    H256598   3.179   4.571   4.867  0.4001 -1.1399  1.3458
11703TIP3   OH256599   5.267   5.420  13.800 -0.1579 -0.4332  0.0015
11703TIP3    H156600   5.326   5.356  13.760  0.7933  0.5117 -0.1476
11703TIP3    H256601   5.208   5.367  13.854  1.2650 -1.3800  0.7030
11704TIP3   OH256602   3.553   4.668   3.064  0.3414 -0.4924  0.2003
11704TIP3    H156603   3.538   4.763   3.072  1.3950 -0.2901 -0.0998
11704TIP3    H256604   3.469   4.633   3.033  0.3007  0.5018 -0.8786
11705TIP3   OH256605   4.812   3.153   0.120  0.2249 -0.4453  0.1164
11705TIP3    H156606   4.781   3.193   0.039 -1.7972  0.5772  1.3171
11705TIP3    H256607   4.842   3.066   0.094 -1.4565 -0.5775 -1.5852
11706TIP3   OH256608   2.714   5.573   5.474 -0.2825  0.1446 -0.0406
11706TIP3    H156609   2.706   5.478   5.465 -0.3013  0.0792  0.6499
11706TIP3    H256610   2.628   5.606   5.448 -0.2872 -0.0287 -0.2483
11707TIP3   OH256611   0.044   0.241  15.747  0.4416  0.1560  0.1055
11707TIP3    H156612   0.076   0.327  15.719  0.7513 -0.3207 -1.0944
11707TIP3    H256613  -0.007   0.258  15.826 -0.1867  1.5537 -0.5696
11708TIP3   OH256614   5.033   2.705   5.569  0.1393 -0.2580 -0.2720
11708TIP3    H156615   5.003   2.662   5.489  0.2235  1.1138 -1.0799
11708TIP3    H256616   5.113   2.658   5.594 -0.1817 -1.0323 -0.6860
11709TIP3   OH256617   0.928   6.674  13.464 -0.3842 -0.5026  0.1402
11709TIP3    H156618   0.985   6.722  13.523 -0.9746  0.7570 -0.2759
11709TIP3    H256619   0.840   6.708  13.482 -0.5895 -0.1241 -1.3925
11710TIP3   OH256620   5.625   4.948  15.193  0.3940  0.4314  0.3750
11710TIP3    H156621   5.530   4.937  15.191  0.4857 -0.9970  1.9155
11710TIP3    H256622   5.651   4.949  15.100 -0.9118 -1.4563 -0.0681
11711TIP3   OH256623   6.434   5.733  11.329 -0.1922  0.0560 -0.1582
11711TIP3    H156624   6.518   5.698  11.300 -0.0713  0.0477  0.1986
11711TIP3    H256625   6.456   5.812  11.377 -0.5368  1.2882 -1.9327
11712TIP3   OH256626   2.104   6.185   2.906 -0.1002  0.2767 -0.2350
11712TIP3    H156627   2.037   6.133   2.861  0.3543  0.0502 -0.6666
11712TIP3    H256628   2.086   6.174   2.999  0.9353 -1.9883 -0.2332
11713TIP3   OH256629   2.516   6.171   0.413  0.4008  0.8464 -0.6841
11713TIP3    H156630   2.464   6.194   0.336  0.2095 -0.9675 -1.1414
11713TIP3    H256631   2.454   6.130   0.473  0.8255  0.9350 -0.1782
11714TIP3   OH256632   4.181   1.867  11.336 -0.0674 -0.3205 -0.4627
11714TIP3    H156633   4.198   1.783  11.378 -0.2630 -1.0995 -1.9020
11714TIP3    H256634   4.210   1.855  11.246  0.8914  1.5007 -0.4498
11715TIP3   OH256635   2.353   5.077  14.291 -0.4840  0.4147  0.3061
11715TIP3    H156636   2.330   4.996  14.244 -1.0847  0.6638  0.1662
11715TIP3    H256637   2.435   5.105  14.251  0.0878 -0.4923  0.8226
11716TIP3   OH256638   2.864   0.216   5.329 -0.3477  0.5889  0.4884
11716TIP3    H156639   2.947   0.169   5.338  1.4285  3.1318 -1.1917
11716TIP3    H256640   2.846   0.249   5.418  0.5811  0.2271  0.8216
11717TIP3   OH256641   6.160   4.299  15.459  0.1372 -0.3038 -0.3805
11717TIP3    H156642   6.088   4.315  15.398  1.4020  0.5659 -1.7435
11717TIP3    H256643   6.236   4.285  15.402  1.1441 -0.6542  1.0073
11718TIP3   OH256644   2.504   4.111   1.974 -0.3242  0.8850  0.0945
11718TIP3    H156645   2.582   4.164   1.953  0.1827  0.7451  1.5092
11718TIP3    H256646   2.530   4.021   1.952 -0.9710  1.0843 -1.7208
11719TIP3   OH256647   5.291   5.860  16.990 -0.5583 -0.3552  0.1181
11719TIP3    H156648   5.215   5.874  17.047 -2.2805 -0.2152 -2.0789
11719TIP3    H256649   5.295   5.938  16.936  0.2035 -1.0408 -0.8469
11720TIP3   OH256650   5.300   5.917  14.095  0.3469 -0.2018 -0.0380
11720TIP3    H156651   5.386   5.958  14.085  0.4856 -0.2925  0.7593
11720TIP3    H256652   5.239   5.991  14.095  0.6190  0.0564  1.6680
11721TIP3   OH256653   1.880   6.770   4.931 -0.6980  0.4959  0.2687
11721TIP3    H156654   1.902   6.811   4.847  0.7136 -1.0583 -0.1843
11721TIP3    H256655   1.805   6.713   4.911 -0.4871  0.2766  0.0921
11722TIP3   OH256656   4.831   4.237   3.823 -0.3288  0.1600 -0.0400
11722TIP3    H156657   4.857   4.145   3.830  2.6967  0.9920  1.1660
11722TIP3    H256658   4.869   4.265   3.740 -0.5408  0.5357 -0.0087
11723TIP3   OH256659   2.794   0.346  14.573  0.1029  0.4916  0.0340
11723TIP3    H156660   2.799   0.277  14.639  4.0957 -1.1313 -1.6042
11723TIP3    H256661   2.726   0.317  14.513  0.4679 -1.1251  0.3558
11724TIP3   OH256662   3.961   4.941   0.589  0.0206  0.1356 -0.4997
11724TIP3    H156663   4.021   4.936   0.515  0.3680 -0.5672 -0.1804
11724TIP3    H256664   4.008   4.899   0.661  0.3868  2.2782  0.6077
11725TIP3   OH256665   2.071   3.224   3.196 -0.1423  0.6004 -0.6014
11725TIP3    H156666   2.114   3.304   3.226  0.4153  0.1138 -0.0518
11725TIP3    H256667   2.143   3.169   3.164 -0.1954 -0.5467  1.0704
11726TIP3   OH256668   5.750   4.799  13.779  0.2646  0.3198 -0.1084
11726TIP3    H156669   5.722   4.725  13.725 -1.5852 -1.1970  2.6991
11726TIP3    H256670   5.840   4.776  13.805 -0.4416 -1.2456  1.0948
11727TIP3   OH256671   2.368   1.105   5.016 -0.0822 -0.1701  0.6229
11727TIP3    H156672   2.317   1.024   5.008 -1.1026  0.0450  3.6883
11727TIP3    H256673   2.304   1.172   5.038  1.0795  0.9595  0.6815
11728TIP3   OH256674   2.996   5.133  11.862 -0.2304 -0.4958  0.8301
11728TIP3    H156675   2.943   5.170  11.932 -0.0094  0.0707  0.7011
11728TIP3    H256676   2.935   5.083  11.808 -0.9490  1.4683 -0.2496
11729TIP3   OH256677   2.326   4.660  16.127 -0.5157 -0.1844  0.1014
11729TIP3    H156678   2.246   4.711  16.120  0.4235  1.3444 -0.0624
11729TIP3    H256679   2.346   4.634  16.037 -1.6463 -1.9315  0.3308
11730TIP3   OH256680   6.613   6.535   1.133  0.3960 -0.0831  0.2465
11730TIP3    H156681   6.617   6.630   1.142  1.3257 -0.0410 -0.5010
11730TIP3    H256682   6.647   6.517   1.045  2.3107 -1.2558  1.1707
11731TIP3   OH256683   6.438   4.451  16.966  0.0073 -0.0483  0.8592
11731TIP3    H156684   6.462   4.460  17.058  1.2151 -0.2692  0.5876
11731TIP3    H256685   6.349   4.416  16.967 -0.1745  0.4192  1.9318
11732TIP3   OH256686   4.209   1.216   0.481  0.0163 -0.2177 -0.3508
11732TIP3    H156687   4.118   1.209   0.508  0.9211 -1.2909  2.9340
11732TIP3    H256688   4.224   1.310   0.469 -1.5498 -0.0534 -1.2653
11733TIP3   OH256689   6.067   0.667   5.359 -0.0953 -0.0699 -0.0158
11733TIP3    H156690   6.080   0.710   5.274  2.1501 -1.0299 -0.2299
11733TIP3    H256691   5.982   0.624   5.351 -0.3268  0.5845 -1.4538
11734TIP3   OH256692   5.808   5.101  16.915  0.0015  0.3662 -0.8162
11734TIP3    H156693   5.812   5.168  16.847 -1.0970 -0.0088 -1.2583
11734TIP3    H256694   5.715   5.080  16.923  0.1252  0.2891  0.6974
11735TIP3   OH256695   0.389   6.636  11.649 -0.5491 -0.2298  0.4830
11735TIP3    H156696   0.411   6.727  11.630 -1.5785 -0.0852 -0.0876
11735TIP3    H256697   0.402   6.590  11.567 -1.5475 -0.2873  0.3444
11736TIP3   OH256698   5.594   3.419   3.371 -0.1197  0.1114 -0.3739
11736TIP3    H156699   5.507   3.385   3.349  0.0933 -1.0356  0.4694
11736TIP3    H256700   5.594   3.509   3.338 -1.8032  0.2942  0.0506
11737TIP3   OH256701   6.551   6.340  11.946 -0.1050  0.4710  0.3192
11737TIP3    H156702   6.578   6.358  11.856 -0.0186  0.6187  0.3744
11737TIP3    H256703   6.474   6.283  11.937  0.3528 -0.1406  0.1634
11738TIP3   OH256704   2.574   4.994   2.468 -0.0088 -0.2535  0.1301
11738TIP3    H156705   2.650   4.956   2.423  0.0409 -0.0841  0.0725
11738TIP3    H256706   2.584   5.088   2.457 -0.3417 -0.2415 -0.0537
11739TIP3   OH256707   6.760   3.025   0.286  0.0280  0.6871 -0.2388
11739TIP3    H156708   6.766   3.042   0.380  0.5634 -1.1065  0.1003
11739TIP3    H256709   6.673   2.988   0.275 -0.4466  1.8905 -0.6534
11740TIP3   OH256710   2.196   5.797  15.979  0.2314 -0.1946  0.4086
11740TIP3    H156711   2.268   5.805  16.041  0.0660  0.8101  0.4926
11740TIP3    H256712   2.153   5.714  16.001 -0.4283  0.5970  2.3018
11741TIP3   OH256713   3.258   0.076  17.040 -0.1048  0.6422  1.2205
11741TIP3    H156714   3.212   0.103  16.960 -0.1057 -0.3701  0.8584
11741TIP3    H256715   3.340   0.039  17.009 -0.0547  0.3442  1.7010
11742TIP3   OH256716   1.088   4.323   0.072 -0.0060 -0.3854 -0.3367
11742TIP3    H156717   1.145   4.253   0.039  0.5970  0.0258 -0.1724
11742TIP3    H256718   1.010   4.319   0.015 -0.2247 -1.5392  0.0034
11743TIP3   OH256719   4.027   1.430  15.223 -0.1210  0.8035 -0.0053
11743TIP3    H156720   4.121   1.447  15.212 -0.2678  1.7343  0.0970
11743TIP3    H256721   4.019   1.398  15.313  0.2955 -0.8686 -0.5339
11744TIP3   OH256722   4.108   0.484   5.787 -0.0496 -0.2198 -0.6482
11744TIP3    H156723   4.022   0.470   5.826 -0.1254  0.7898 -0.4349
11744TIP3    H256724   4.091   0.536   5.709  0.4335  0.6733 -0.1704
11745TIP3   OH256725   5.149   1.518  11.127  0.5502 -0.3596 -0.4813
11745TIP3    H156726   5.178   1.501  11.038 -0.4891 -1.3569 -0.6426
11745TIP3    H256727   5.166   1.437  11.175 -0.5210 -0.4509 -0.2190
11746TIP3   OH256728   1.313   1.273   1.220 -0.0198 -0.7780  0.0378
11746TIP3    H156729   1.291   1.355   1.177 -0.8149 -0.7403  0.5004
11746TIP3    H256730   1.374   1.230   1.160  0.6617  0.2907 -0.0519
11747TIP3   OH256731   6.043   1.955  11.586 -0.2924 -0.9182 -0.2398
11747TIP3    H156732   5.948   1.941  11.580 -0.3662 -0.6264  0.1897
11747TIP3    H256733   6.079   1.869  11.607 -0.4860 -0.9837 -0.1764
11748TIP3   OH256734   1.053   2.850   3.157 -0.1243 -0.2615 -0.4440
11748TIP3    H156735   1.098   2.770   3.132 -0.7375 -1.2280  1.3927
11748TIP3    H256736   1.078   2.866   3.248 -1.7723  0.3399 -0.0426
11749TIP3   OH256737   4.496   0.408   4.484  0.7360 -0.1084  0.4578
11749TIP3    H156738   4.549   0.488   4.483  0.5814  0.0561  2.0967
11749TIP3    H256739   4.457   0.407   4.572 -3.1042  0.5213 -1.0275
11750TIP3   OH256740   2.777   2.267   2.128 -0.3832  0.0170  0.0441
11750TIP3    H156741   2.784   2.241   2.220 -2.9753  0.6677  0.5251
11750TIP3    H256742   2.687   2.299   2.119 -0.6675 -1.2954 -3.0573
11751TIP3   OH256743   6.563   2.433  11.436  0.0375  0.5023 -0.4746
11751TIP3    H156744   6.519   2.508  11.396  1.7380  1.6603 -0.2954
11751TIP3    H256745   6.648   2.467  11.463  0.6784 -1.3889  0.0543
11752TIP3   OH256746   3.117   5.492  15.111  0.0307 -0.2739  0.6007
11752TIP3    H156747   3.114   5.580  15.074  0.1835 -1.2628 -1.9950
11752TIP3    H256748   3.208   5.464  15.097 -0.5195 -1.5664 -0.5279
11753TIP3   OH256749   4.354   0.016  14.694  0.4706 -0.0581  0.2539
11753TIP3    H156750   4.344   0.069  14.773  0.0220  1.9772 -1.0908
11753TIP3    H256751   4.358   0.080  14.623  0.6716 -1.8289 -1.3992
11754TIP3   OH256752   2.815   1.171   4.040  0.6711  0.3174  0.4149
11754TIP3    H156753   2.846   1.131   3.959 -1.8704 -0.5437 -0.2123
11754TIP3    H256754   2.736   1.122   4.063  0.7015  1.2531  2.8311
11755TIP3   OH256755   0.901   2.957  11.329  0.3838  0.4248  0.0049
11755TIP3    H156756   0.816   2.979  11.366 -0.2176 -1.2893 -0.2723
11755TIP3    H256757   0.924   2.874  11.370  1.2184  0.1129 -1.0524
11756TIP3   OH256758   6.777   6.366  10.767 -0.0811 -0.3400  0.1567
11756TIP3    H156759   6.815   6.453  10.755 -0.3151 -0.2702 -0.0882
11756TIP3    H256760   6.848   6.305  10.745  0.5030 -0.2256  1.6441
11757TIP3   OH256761   0.462   4.534  14.258 -0.4572  0.2457 -0.1672
11757TIP3    H156762   0.452   4.444  14.227  0.6187 -0.2140  0.7561
11757TIP3    H256763   0.392   4.582  14.214  0.1289 -0.6396 -2.2055
11758TIP3   OH256764   4.698   2.062  13.357  0.3493  0.1704  0.0614
11758TIP3    H156765   4.628   2.018  13.406  0.7147 -0.7456 -0.2131
11758TIP3    H256766   4.775   2.054  13.413  0.7072 -0.6487 -0.5244
11759TIP3   OH256767   0.280   2.736  15.960 -0.0211 -0.5891 -0.5358
11759TIP3    H156768   0.373   2.721  15.943  0.2139 -0.1027  0.2573
11759TIP3    H256769   0.278   2.780  16.046 -0.7214  2.5753 -2.0187
11760TIP3   OH256770   1.083   5.855  16.435 -0.5626  0.2178  0.3684
11760TIP3    H156771   1.085   5.892  16.523 -1.6150  1.0334  0.0589
11760TIP3    H256772   1.102   5.762  16.448  0.3331  0.5196  1.3341
11761TIP3   OH256773   2.849   3.358  16.837  0.5558 -0.0689  0.3242
11761TIP3    H156774   2.771   3.376  16.784  1.3826 -2.6218 -1.9971
11761TIP3    H256775   2.816   3.341  16.925 -1.4033 -0.2159 -0.4072
11762TIP3   OH256776   1.503   6.173   6.306  0.2264  0.3892  0.2646
11762TIP3    H156777   1.410   6.152   6.305  0.5941 -2.3146  3.3919
11762TIP3    H256778   1.509   6.254   6.356 -0.4129 -0.1542  1.2491
11763TIP3   OH256779   6.453   6.435   0.569  0.1524  0.1519  0.0083
11763TIP3    H156780   6.433   6.342   0.581 -1.1733  0.7228  3.3073
11763TIP3    H256781   6.486   6.463   0.654  0.4509  2.7471 -0.8829
11764TIP3   OH256782   4.875   3.399   5.215  0.2085 -0.2221  0.0578
11764TIP3    H156783   4.814   3.415   5.287 -1.6250  0.0249 -1.4868
11764TIP3    H256784   4.830   3.431   5.137  3.2360  2.0767 -0.9272
11765TIP3   OH256785   0.801   5.161   4.538 -0.1086 -0.3281  0.4919
11765TIP3    H156786   0.832   5.183   4.450  0.1788 -1.2732  0.3376
11765TIP3    H256787   0.820   5.238   4.591 -0.6441  0.4036 -0.3551
11766TIP3   OH256788   4.699   5.993  15.496  0.2363 -0.1616 -0.1390
11766TIP3    H156789   4.766   5.951  15.550 -0.4051 -0.9786  0.0533
11766TIP3    H256790   4.619   5.945  15.516 -0.1730  0.0200 -1.2522
11767TIP3   OH256791   2.244   3.081  16.745  0.4420  0.5480  0.2621
11767TIP3    H156792   2.190   3.050  16.673  2.9584 -0.5220 -1.3105
11767TIP3    H256793   2.193   3.063  16.823 -0.3747 -2.9710 -0.9152
11768TIP3   OH256794   5.007   5.925   2.482 -0.1200  0.1356  0.1348
11768TIP3    H156795   4.924   5.960   2.514 -0.9529 -0.8621 -0.8730
11768TIP3    H256796   5.074   5.969   2.536 -1.2311  1.5856  0.3935
11769TIP3   OH256797   2.669   0.535   2.941  0.1764 -0.0361 -0.0902
11769TIP3    H156798   2.759   0.540   2.910 -0.3036 -1.3372 -1.8607
11769TIP3    H256799   2.651   0.622   2.977  2.1728  0.1914  0.5140
11770TIP3   OH256800   0.606   5.509  16.503 -0.2236 -0.2777 -0.3866
11770TIP3    H156801   0.549   5.585  16.489 -0.3600 -0.2196  0.4094
11770TIP3    H256802   0.558   5.435  16.465 -1.3617 -0.4221  1.2365
11771TIP3   OH256803   2.461   5.101  16.907 -0.7491 -0.0467 -0.2951
11771TIP3    H156804   2.490   5.057  16.827  3.1196  0.2510  0.7437
11771TIP3    H256805   2.514   5.062  16.976 -2.0553  1.5651  1.7247
11772TIP3   OH256806   4.544   6.675   4.749  0.0142 -0.0003  0.0570
11772TIP3    H156807   4.509   6.594   4.785  0.2243 -0.0047  0.2512
11772TIP3    H256808   4.593   6.647   4.671 -0.2554 -0.0139 -0.1081
11773TIP3   OH256809   4.977   5.685  14.749 -0.3600 -0.1027 -0.2289
11773TIP3    H156810   4.882   5.677  14.758 -0.7612  3.0298 -0.8048
11773TIP3    H256811   4.999   5.771  14.785  1.9618  0.1615 -1.9744
11774TIP3   OH256812   6.353   1.386  15.319 -0.1286 -0.2872  0.1183
11774TIP3    H156813   6.377   1.462  15.371  2.1579 -0.6536 -0.3079
11774TIP3    H256814   6.289   1.419  15.256  0.1602  1.0779  0.5043
11775TIP3   OH256815   5.588   0.706  11.507  0.2080 -0.0547  0.1575
11775TIP3    H156816   5.523   0.698  11.576  0.6099  3.0959  1.0405
11775TIP3    H256817   5.665   0.745  11.550  2.2056 -2.2648 -1.1547
11776TIP3   OH256818   6.244   5.639  11.958 -0.3046  0.4431 -0.0537
11776TIP3    H156819   6.220   5.563  11.905 -2.3505  0.5699  0.5909
11776TIP3    H256820   6.201   5.623  12.042  1.5144  1.0201  1.0414
11777TIP3   OH256821   0.924   1.498   4.303  0.3007 -0.2374 -0.0619
11777TIP3    H156822   0.932   1.403   4.309 -1.1585 -0.4104 -0.3571
11777TIP3    H256823   0.983   1.522   4.231 -2.2212 -1.4821 -2.7761
11778TIP3   OH256824   5.613   5.858  14.764 -0.1799  0.3338  0.2379
11778TIP3    H156825   5.589   5.862  14.856 -0.7561  0.5916  0.0749
11778TIP3    H256826   5.531   5.843  14.718 -0.0912  1.5869 -0.3539
11779TIP3   OH256827   1.644   4.070  13.015  0.2307  0.8190 -0.5695
11779TIP3    H156828   1.587   4.146  13.015  0.3464  0.9095 -0.1404
11779TIP3    H256829   1.623   4.023  12.934 -1.1673  0.3172  0.0540
11780TIP3   OH256830   4.500   4.301  16.073  0.8212 -0.5131 -0.0305
11780TIP3    H156831   4.501   4.234  16.004 -1.4105 -1.4167  0.7117
11780TIP3    H256832   4.407   4.319  16.087  1.3211  1.8283  0.7178
11781TIP3   OH256833   5.465   0.297  13.243 -0.3336  0.3154  0.5310
11781TIP3    H156834   5.559   0.282  13.233 -0.3389  0.4764  0.2036
11781TIP3    H256835   5.450   0.382  13.199 -0.3171  1.2386  2.2405
11782TIP3   OH256836   0.677   1.939  17.140 -0.0226  0.5035 -0.6268
11782TIP3    H156837   0.644   2.019  17.099 -0.6676  0.6378  0.1226
11782TIP3    H256838   0.602   1.905  17.190  0.6586  0.2172  0.2255
11783TIP3   OH256839   2.550   4.244  12.073 -0.2087  0.2546  0.3224
11783TIP3    H156840   2.525   4.336  12.083  1.3009  0.7116  0.1551
11783TIP3    H256841   2.467   4.199  12.055 -0.8380  1.7582 -0.8055
11784TIP3   OH256842   2.904   6.184   1.052  0.4104 -0.7646 -0.4553
11784TIP3    H156843   2.855   6.140   0.983  2.6520 -1.3759 -1.7110
11784TIP3    H256844   2.882   6.135   1.132 -0.5274 -1.3820 -1.0690
11785TIP3   OH256845   0.166   4.578   3.732  0.1557  0.3573 -0.3721
11785TIP3    H156846   0.085   4.629   3.728  1.0528  1.8535 -0.0787
11785TIP3    H256847   0.209   4.607   3.812 -1.2551 -4.0061  2.3036
11786TIP3   OH256848   5.465   1.495   5.382 -0.3419 -0.1113  0.3364
11786TIP3    H156849   5.529   1.423   5.387  0.8697  0.9961  1.6298
11786TIP3    H256850   5.438   1.508   5.473 -2.3632 -0.4731 -0.1715
11787TIP3   OH256851   2.154   2.431   5.850 -0.0813 -0.5196 -0.0180
11787TIP3    H156852   2.127   2.343   5.877  1.4918 -1.0260 -0.0128
11787TIP3    H256853   2.249   2.430   5.854 -0.0019  2.0930  2.8994
11788TIP3   OH256854   5.957   5.734  14.594  0.6251  0.5433 -0.4111
11788TIP3    H156855   5.922   5.728  14.682  0.3928  2.2977 -0.3630
11788TIP3    H256856   5.975   5.643  14.570 -0.6809 -0.1044  0.8728
11789TIP3   OH256857   2.424   3.325  12.615  0.2614  0.2635  0.2368
11789TIP3    H156858   2.359   3.364  12.556 -0.4074 -1.0003  0.1077
11789TIP3    H256859   2.483   3.276  12.557  1.1879  1.1730  0.3791
11790TIP3   OH256860   3.541   5.008   5.072  0.1276  0.2141 -0.1101
11790TIP3    H156861   3.532   5.009   5.167  2.3273  1.3187  0.1366
11790TIP3    H256862   3.571   5.095   5.049  0.3909 -0.2696 -1.7406
11791TIP3   OH256863   0.919   0.737  14.908  0.2596  0.0809  0.3905
11791TIP3    H156864   0.860   0.718  14.980 -3.3550  3.2370 -1.3414
11791TIP3    H256865   0.956   0.823  14.929 -0.4464  0.8125 -1.1390
11792TIP3   OH256866   4.586   3.157  12.850 -0.6169  0.3084  0.2575
11792TIP3    H156867   4.543   3.212  12.915  0.7167  0.3666  1.1331
11792TIP3    H256868   4.679   3.156  12.876 -0.2724 -0.7425 -0.8778
11793TIP3   OH256869   6.727   1.268   5.338  0.1062 -0.0678 -0.1826
11793TIP3    H156870   6.652   1.233   5.387  0.4882 -0.0834  0.3955
11793TIP3    H256871   6.768   1.192   5.299 -0.2254 -0.0510 -0.5719
11794TIP3   OH256872   6.295   2.940   2.734 -0.1986 -0.0067  0.0451
11794TIP3    H156873   6.219   2.946   2.676  0.6078  1.7663 -0.9025
11794TIP3    H256874   6.359   3.000   2.696  0.3619  1.2672  2.7634
11795TIP3   OH256875   0.303   0.027   0.259  0.6569  0.7691  0.2405
11795TIP3    H156876   0.267  -0.061   0.244  1.2365  0.7254 -1.1431
11795TIP3    H256877   0.265   0.056   0.341 -0.9368 -0.0751 -0.1721
11796TIP3   OH256878   0.211   3.091   1.825  0.8187  0.5259 -0.1368
11796TIP3    H156879   0.288   3.084   1.769 -0.1045  1.6425 -1.6151
11796TIP3    H256880   0.171   3.004   1.823  0.1211  0.8343 -2.3070
11797TIP3   OH256881   5.581   1.438  13.015  0.2017 -0.0382 -0.4694
11797TIP3    H156882   5.661   1.403  13.054  0.6182  0.1102 -1.1748
11797TIP3    H256883   5.602   1.449  12.922 -0.4511  0.5331 -0.5596
11798TIP3   OH256884   1.971   2.465   4.422 -0.3450 -0.2744  0.1643
11798TIP3    H156885   1.923   2.419   4.353  0.4843 -1.2532  0.2305
11798TIP3    H256886   1.923   2.444   4.502 -0.1494 -0.7811  0.1525
11799TIP3   OH256887   3.121   6.704   4.419  0.7244  0.3004  0.0392
11799TIP3    H156888   3.061   6.637   4.452  1.7596  0.9431  3.8020
11799TIP3    H256889   3.199   6.656   4.392  0.2988 -0.2068 -0.3002
11800TIP3   OH256890   4.762   4.404  13.852 -0.4211 -0.2322  0.1548
11800TIP3    H156891   4.801   4.492  13.850 -1.0404  0.0326 -0.9431
11800TIP3    H256892   4.815   4.356  13.917  0.1557  0.8330  0.5017
11801TIP3   OH256893   4.325   2.151   4.747  0.5382  0.4555  0.1740
11801TIP3    H156894   4.284   2.200   4.818  0.4073  1.5870 -0.6635
11801TIP3    H256895   4.325   2.060   4.778 -3.0458  0.2671  0.0784
11802TIP3   OH256896   3.934   2.998  10.486 -0.2027 -0.4342  0.3458
11802TIP3    H156897   4.023   2.966  10.499  1.1449  2.6681 -0.3558
11802TIP3    H256898   3.909   2.965  10.400  0.8816 -0.1067 -0.1130
11803TIP3   OH256899   4.506   4.710  13.945  0.2557  0.1222  0.2221
11803TIP3    H156900   4.562   4.703  13.868 -0.5889  1.6380 -0.5861
11803TIP3    H256901   4.540   4.644  14.006  1.0304 -1.0414 -1.3772
11804TIP3   OH256902   3.485   0.076   5.029  1.1545 -0.3252  0.5953
11804TIP3    H156903   3.390   0.082   5.037  1.2625 -0.3012  1.9528
11804TIP3    H256904   3.500   0.069   4.934 -0.0778  1.7240  0.1859
11805TIP3   OH256905   5.468   6.372  12.268 -0.8620  0.4655  0.2021
11805TIP3    H156906   5.468   6.296  12.326 -0.8216  0.3928  0.1054
11805TIP3    H256907   5.415   6.346  12.193  0.5574 -0.0874 -0.6468
11806TIP3   OH256908   5.960   0.598  12.750 -0.0161  0.2457 -0.3282
11806TIP3    H156909   5.905   0.676  12.756 -2.2797 -1.0846 -2.0088
11806TIP3    H256910   5.897   0.525  12.751  1.9967 -1.5675  1.0198
11807TIP3   OH256911   3.201   6.172   3.380  0.0788  0.5822  0.3144
11807TIP3    H156912   3.213   6.208   3.468 -1.8004  0.0540  0.8386
11807TIP3    H256913   3.209   6.077   3.392  0.8125  0.5599 -0.2832
11808TIP3   OH256914   5.212   5.748  13.455 -0.4269 -0.1335  0.2639
11808TIP3    H156915   5.196   5.790  13.539  0.7049 -0.8768  0.8703
11808TIP3    H256916   5.215   5.655  13.475  3.2374 -0.1891  0.0582
11809TIP3   OH256917   3.619   6.308  11.950  0.2071 -0.3942 -0.3336
11809TIP3    H156918   3.597   6.223  11.911 -0.6429 -1.6676  2.6645
11809TIP3    H256919   3.711   6.300  11.975 -0.1764 -0.9315  0.9924
11810TIP3   OH256920   0.794   0.815  11.730 -0.5226 -0.6666  0.6187
11810TIP3    H156921   0.736   0.786  11.801 -1.8588 -0.9276 -0.5322
11810TIP3    H256922   0.800   0.910  11.742  0.8210 -0.9058  2.1752
11811TIP3   OH256923   2.943   1.175   0.651 -0.4803 -0.0206  0.0488
11811TIP3    H156924   2.861   1.125   0.648  0.2773 -1.2539 -1.2308
11811TIP3    H256925   2.917   1.262   0.683 -2.0550 -0.7938  1.0065
11812TIP3   OH256926   6.293   3.499   1.044  0.8024  0.2769 -0.1443
11812TIP3    H156927   6.207   3.539   1.048  0.5452 -0.1868 -0.9770
11812TIP3    H256928   6.287   3.422   1.101  0.5702  0.0656 -0.4543
11813TIP3   OH256929   6.234   6.630  11.989 -0.2030  0.3347  0.6137
11813TIP3    H156930   6.266   6.621  12.079 -2.0919  2.7082  1.6331
11813TIP3    H256931   6.290   6.697  11.950 -0.4288  0.5005  0.5731
11814TIP3   OH256932   6.307   1.292   6.263  0.2915 -0.4125 -0.2207
11814TIP3    H156933   6.219   1.308   6.231 -0.2449 -2.1219  0.2863
11814TIP3    H256934   6.304   1.203   6.299  1.7430  0.1617  1.4663
11815TIP3   OH256935   4.781   1.748  14.126 -0.2982  0.6826 -0.1614
11815TIP3    H156936   4.846   1.679  14.114 -0.2657  0.5523  0.7588
11815TIP3    H256937   4.813   1.799  14.201 -2.0595 -0.3252  1.3453
11816TIP3   OH256938   5.214   5.688  13.901  0.1707  0.4644 -0.2317
11816TIP3    H156939   5.247   5.719  13.986  0.5535 -0.8122  0.1118
11816TIP3    H256940   5.194   5.596  13.916 -0.6617  0.4626 -1.2843
11817TIP3   OH256941   4.969   3.996   2.086  0.6152 -0.2594 -0.0184
11817TIP3    H156942   4.938   4.001   1.996  0.5872  0.7963  0.0456
11817TIP3    H256943   4.960   3.903   2.109  0.3947 -0.4911 -1.0137
11818TIP3   OH256944   5.203   3.171  15.317  0.5126 -0.4883  0.0758
11818TIP3    H156945   5.274   3.179  15.380 -0.1446  1.4446  0.6413
11818TIP3    H256946   5.246   3.168  15.232  1.3101 -0.7328  0.4826
11819TIP3   OH256947   5.341   3.395   0.791  0.2674  0.2802 -0.7220
11819TIP3    H156948   5.434   3.390   0.766  0.7227 -0.7045  1.0585
11819TIP3    H256949   5.309   3.305   0.785  0.0132  0.2488  0.7538
11820TIP3   OH256950   3.710   1.853  11.704 -0.2468 -0.5694  0.3363
11820TIP3    H156951   3.638   1.876  11.762  0.7081  2.4384  0.4701
11820TIP3    H256952   3.789   1.870  11.756  0.5976 -0.0549 -1.0732
11821TIP3   OH256953   5.051   4.492  11.300 -0.2052  0.0516 -0.2220
11821TIP3    H156954   5.043   4.452  11.213 -0.4969  0.0240 -0.1846
11821TIP3    H256955   5.046   4.586  11.283 -0.5369  0.0365 -0.2075
11822TIP3   OH256956   5.654   1.182   2.578  0.5627 -0.0600  0.6997
11822TIP3    H156957   5.605   1.255   2.615  0.8119  1.5800 -1.9993
11822TIP3    H256958   5.735   1.221   2.546  0.2631 -1.2751 -1.7386
11823TIP3   OH256959   6.210   6.452  17.065 -0.1155 -0.1974  0.6655
11823TIP3    H156960   6.114   6.453  17.056 -0.0689 -0.6498  0.0101
11823TIP3    H256961   6.238   6.533  17.022 -0.1950 -0.1190  0.7610
11824TIP3   OH256962   5.526   1.993   6.213 -0.4459  0.5190 -0.6304
11824TIP3    H156963   5.516   2.010   6.307 -0.0378 -1.9067 -0.0660
11824TIP3    H256964   5.619   1.971   6.203 -0.6300  0.0981 -1.4595
11825TIP3   OH256965   6.712   3.551   0.808  0.2670  0.4742 -0.4390
11825TIP3    H156966   6.694   3.616   0.740 -1.0255  0.5796 -0.0185
11825TIP3    H256967   6.672   3.470   0.776  0.9857  0.1293 -0.4938
11826TIP3   OH256968   4.700   0.405   2.846 -0.0670  0.0402  0.2739
11826TIP3    H156969   4.763   0.366   2.786  1.3173  1.0322  1.0261
11826TIP3    H256970   4.692   0.342   2.917 -2.1857 -1.4326 -1.1498
11827TIP3   OH256971   4.035   2.068   1.750  0.3323 -0.0718 -0.2820
11827TIP3    H156972   4.017   2.162   1.750 -2.0021 -0.3982 -2.2869
11827TIP3    H256973   4.004   2.038   1.664 -1.1038 -3.0256  1.1359
11828TIP3   OH256974   2.907   1.555  13.038  0.1329  0.2118 -0.4352
11828TIP3    H156975   2.961   1.501  13.094 -0.7242  0.5296  0.7282
11828TIP3    H256976   2.955   1.638  13.030  0.3696  0.0803 -0.3695
11829TIP3   OH256977   4.459   4.923  15.651 -0.0724 -0.1559 -0.1803
11829TIP3    H156978   4.374   4.882  15.640  0.7642 -2.0956  0.1530
11829TIP3    H256979   4.473   4.927  15.745 -0.5093  1.8271 -0.1490
11830TIP3   OH256980   2.799   0.208  12.982 -0.5451  0.0228 -0.1796
11830TIP3    H156981   2.788   0.132  12.925  0.2983  0.7386 -1.3202
11830TIP3    H256982   2.766   0.179  13.067 -0.4510 -1.5409 -0.6548
11831TIP3   OH256983   2.459   0.669   3.171  0.0978 -0.1144 -0.3321
11831TIP3    H156984   2.477   0.726   3.096  1.5821 -2.5194 -1.9561
11831TIP3    H256985   2.536   0.679   3.228  0.3610 -0.4511 -0.6204
11832TIP3   OH256986   3.260   4.749  13.702  0.0871 -0.3919 -0.3835
11832TIP3    H156987   3.355   4.761  13.710  0.1065 -0.5647 -0.3374
11832TIP3    H256988   3.250   4.690  13.627 -0.1656  2.2504 -2.5762
11833TIP3   OH256989   6.353   1.765   3.308 -0.1268  0.1156  0.2714
11833TIP3    H156990   6.340   1.674   3.283 -1.2921  0.4256 -0.3020
11833TIP3    H256991   6.391   1.760   3.396  3.6601 -0.9885 -1.2264
11834TIP3   OH256992   4.556   5.252   3.224  0.2209 -0.4888 -0.2952
11834TIP3    H156993   4.551   5.334   3.176  1.7968 -0.3689 -0.3069
11834TIP3    H256994   4.477   5.251   3.279  0.9581  1.8373  0.9400
11835TIP3   OH256995   2.397   1.905  13.103 -0.3243 -0.0089 -0.2928
11835TIP3    H156996   2.435   1.818  13.107 -0.5493 -0.1438 -0.9196
11835TIP3    H256997   2.327   1.898  13.038 -1.4209  0.2446  0.8283
11836TIP3   OH256998   2.004   4.918   0.491  0.7314  0.2983  0.2619
11836TIP3    H156999   2.056   4.981   0.541 -0.2654  0.4158  1.1898
11836TIP3    H257000   2.068   4.868   0.441  1.6033  1.5328  0.1054
11837TIP3   OH257001   6.686   4.998  12.943 -0.3380  0.2387 -0.1973
11837TIP3    H157002   6.640   4.973  13.023  1.0440 -0.5407  0.3826
11837TIP3    H257003   6.664   4.929  12.880  0.1729 -0.2370  0.1370
11838TIP3   OH257004   3.932   0.306   3.294 -0.6143  0.0675 -0.1378
11838TIP3    H157005   4.014   0.297   3.246  1.1680  0.3664  2.6452
11838TIP3    H257006   3.908   0.398   3.283  0.2667  0.3564  0.2318
11839TIP3   OH257007   1.529   0.566  15.073  0.6759 -0.2882 -0.3719
11839TIP3    H157008   1.509   0.537  15.161 -0.9297  0.5406 -0.4312
11839TIP3    H257009   1.625   0.571  15.070  0.7352  0.5738  1.6165
11840TIP3   OH257010   5.618   4.882   6.703 -0.3485 -0.4794 -0.3415
11840TIP3    H157011   5.578   4.961   6.668  2.3450  0.4340 -1.6020
11840TIP3    H257012   5.614   4.818   6.632  0.7760 -0.2244 -0.6531
11841TIP3   OH257013   5.699   3.280   1.772  0.2841  0.9032 -0.2179
11841TIP3    H157014   5.692   3.355   1.712  0.0820  0.5603 -0.6302
11841TIP3    H257015   5.608   3.256   1.790  0.3492  0.3021 -0.6683
11842TIP3   OH257016   3.880   0.588   1.392 -0.5065  0.2369  0.1066
11842TIP3    H157017   3.833   0.670   1.409 -0.4796  0.1311  0.6975
11842TIP3    H257018   3.819   0.536   1.340 -1.3133 -0.1521  1.3897
11843TIP3   OH257019   5.105   4.676  16.011 -0.0775  0.2403  0.0219
11843TIP3    H157020   5.146   4.758  15.983  0.1706  0.4950  1.0748
11843TIP3    H257021   5.176   4.625  16.049 -0.1684 -0.6211 -0.9194
11844TIP3   OH257022   3.531   1.437   2.931 -0.2149 -0.6158 -0.8495
11844TIP3    H157023   3.560   1.490   3.006 -0.3299  0.6688 -1.6896
11844TIP3    H257024   3.596   1.454   2.863 -1.5115  0.2776 -1.9008
11845TIP3   OH257025   0.255   6.065  14.594  1.3306 -0.1914  0.1619
11845TIP3    H157026   0.247   6.011  14.515  1.0996 -0.6254  0.4779
11845TIP3    H257027   0.217   6.149  14.570  0.9182 -0.4435 -0.0747
11846TIP3   OH257028   2.185   2.058  12.612  0.2897  0.5852 -0.5481
11846TIP3    H157029   2.202   2.073  12.705  0.4047 -1.3202 -0.2130
11846TIP3    H257030   2.253   1.997  12.585 -1.3035 -0.9987 -1.1776
11847TIP3   OH257031   1.363   5.600  13.026 -0.2498 -0.5110 -0.3067
11847TIP3    H157032   1.306   5.591  13.103 -1.2485 -0.3729 -1.0139
11847TIP3    H257033   1.402   5.513  13.015  0.9082 -0.2155  1.0899
11848TIP3   OH257034   5.186   6.496  12.919  0.4374  0.1048 -0.2072
11848TIP3    H157035   5.202   6.505  12.825 -0.5525 -0.2451 -0.4257
11848TIP3    H257036   5.091   6.486  12.926  0.3855  1.1323  0.9222
11849TIP3   OH257037   2.486   1.357  13.589 -0.9706 -0.1685 -0.0601
11849TIP3    H157038   2.403   1.315  13.611 -1.2381  0.4390  0.1041
11849TIP3    H257039   2.478   1.445  13.624  0.5930 -0.7227  1.8545
11850TIP3   OH257040   2.766   0.539  15.033  0.9785 -0.4077 -0.1619
11850TIP3    H157041   2.805   0.480  15.097  0.0971  0.6270  1.4085
11850TIP3    H257042   2.686   0.496  15.006  0.7419 -0.3124  0.3714
11851TIP3   OH257043   1.917   4.123  17.189  0.1084  0.2239  0.0311
11851TIP3    H157044   1.986   4.185  17.167  0.3494  0.8321  2.2494
11851TIP3    H257045   1.953   4.071  17.261 -2.0995  1.3359  2.0926
11852TIP3   OH257046   0.047   6.518   4.269 -0.6578 -0.1605  0.5873
11852TIP3    H157047   0.033   6.544   4.361  0.1769  0.3583  0.5779
11852TIP3    H257048  -0.040   6.522   4.230 -0.9309  0.2072  1.2098
11853TIP3   OH257049   5.368   5.342  12.063 -0.1051  0.1668 -0.4317
11853TIP3    H157050   5.280   5.334  12.024 -0.5056 -0.8953  0.6322
11853TIP3    H257051   5.352   5.360  12.155  0.8030 -0.0042 -0.2320
11854TIP3   OH257052   4.290   0.965   1.977 -0.3307  0.3320 -0.6084
11854TIP3    H157053   4.194   0.958   1.978 -0.3803  0.5670  1.5326
11854TIP3    H257054   4.309   1.018   1.899 -1.8597 -0.4769 -1.5811
11855TIP3   OH257055   0.758   5.682  15.270  0.3728  0.4667  0.3641
11855TIP3    H157056   0.681   5.722  15.231  0.1311  1.2350  1.5940
11855TIP3    H257057   0.751   5.589  15.247 -0.4958  0.6613 -0.1833
11856TIP3   OH257058   2.568   2.571  15.514 -0.4792  0.0477  0.0543
11856TIP3    H157059   2.628   2.576  15.439 -1.7249  1.4690 -0.8983
11856TIP3    H257060   2.494   2.519  15.482 -0.2989 -0.7211  0.8525
11857TIP3   OH257061   6.183   5.754   5.954 -0.5306  0.3676  0.2325
11857TIP3    H157062   6.091   5.779   5.951 -0.2743  1.2610 -1.5353
11857TIP3    H257063   6.230   5.836   5.970  0.0152  0.0834  0.1056
11858TIP3   OH257064   4.573   0.290   6.120  0.2842 -0.0621 -0.1324
11858TIP3    H157065   4.561   0.265   6.212  0.9878 -0.0236 -0.0176
11858TIP3    H257066   4.637   0.361   6.123 -0.2323  0.4309 -0.6053
11859TIP3   OH257067   6.813   1.323  16.041 -0.1069 -0.7667  0.1796
11859TIP3    H157068   6.738   1.352  15.989 -1.2427  0.1410  2.2322
11859TIP3    H257069   6.775   1.275  16.114  1.1156  1.1832  2.2330
11860TIP3   OH257070   6.284   1.378  12.079 -0.6329  0.5128  0.1078
11860TIP3    H157071   6.277   1.384  11.983 -0.1872 -1.4450 -0.0869
11860TIP3    H257072   6.227   1.305  12.103  0.1437  0.2368  1.1922
11861TIP3   OH257073   5.993   2.346   0.975 -0.1361 -0.5227  0.2691
11861TIP3    H157074   6.076   2.319   1.014  1.2658  3.3476  0.4455
11861TIP3    H257075   6.012   2.355   0.882 -0.3835  0.1959  0.2841
11862TIP3   OH257076   1.767   2.456  14.478 -0.4635 -0.8265  0.5960
11862TIP3    H157077   1.855   2.419  14.472 -0.2611 -0.1856 -3.6317
11862TIP3    H257078   1.709   2.381  14.480  0.1559 -1.3669 -0.4441
11863TIP3   OH257079   3.122   2.937  15.371  0.2856 -0.1646  0.1346
11863TIP3    H157080   3.035   2.976  15.370  0.4424  0.1816 -0.1489
11863TIP3    H257081   3.123   2.878  15.296  0.8293  1.0297 -0.8329
11864TIP3   OH257082   5.050   3.983  12.269  0.0501  0.2918 -0.0508
11864TIP3    H157083   5.072   3.893  12.245 -0.5969  0.3069 -0.7352
11864TIP3    H257084   5.013   4.021  12.189  0.6884  1.2924  0.1121
11865TIP3   OH257085   4.160   3.021  14.787 -0.7569 -0.0817 -0.5055
11865TIP3    H157086   4.218   3.068  14.846  0.7294 -0.2473 -1.7595
11865TIP3    H257087   4.114   2.958  14.843  0.8125 -0.4346  0.4493
11866TIP3   OH257088   0.722   5.575  14.450 -0.6677 -0.0561  0.2187
11866TIP3    H157089   0.762   5.656  14.482 -0.3053  0.8938 -2.4183
11866TIP3    H257090   0.631   5.580  14.479  0.0437 -0.2432  2.7015
11867TIP3   OH257091   3.398   5.895   0.575 -0.3208 -0.0267  0.5855
11867TIP3    H157092   3.371   5.867   0.663  1.1148 -0.3317  0.9627
11867TIP3    H257093   3.359   5.831   0.516 -0.0264 -0.7402  1.1478
11868TIP3   OH257094   5.385   2.456  17.164 -1.0647 -0.3708  0.3415
11868TIP3    H157095   5.307   2.507  17.142 -0.6872 -0.2028 -0.6441
11868TIP3    H257096   5.410   2.487  17.252 -1.1345  0.7822 -0.0262
11869TIP3   OH257097   3.178   3.249   3.763 -0.1808 -0.4976  0.1851
11869TIP3    H157098   3.130   3.169   3.740 -0.8419  0.1939 -0.9440
11869TIP3    H257099   3.242   3.260   3.693  0.2168 -0.2810  0.5759
11870TIP3   OH257100   2.312   4.188   5.787 -0.2690  0.2407 -0.2670
11870TIP3    H157101   2.332   4.269   5.740  2.4112 -0.0037  0.2970
11870TIP3    H257102   2.322   4.210   5.879 -0.1338 -0.5691 -0.0791
11871TIP3   OH257103   3.381   1.172  15.632 -0.1303  0.5438  0.2657
11871TIP3    H157104   3.397   1.203  15.721 -0.5583  0.6196  0.3167
11871TIP3    H257105   3.292   1.137  15.635  0.3547 -0.7826  0.2432
11872TIP3   OH257106   1.623   2.774  11.947  0.0183  0.0425  0.8503
11872TIP3    H157107   1.629   2.685  11.912 -1.6611  0.2238  0.0428
11872TIP3    H257108   1.677   2.772  12.027  0.2579 -1.5925  0.6746
11873TIP3   OH257109   0.223   4.473   1.083 -0.1286 -0.1399 -0.0663
11873TIP3    H157110   0.167   4.457   1.007  0.2731  1.2535 -0.6919
11873TIP3    H257111   0.256   4.562   1.070  1.8713 -0.7392  0.5095
11874TIP3   OH257112   5.834   3.553  17.187  0.4581  0.1841  0.1181
11874TIP3    H157113   5.751   3.551  17.140 -0.2279  0.8194  1.2490
11874TIP3    H257114   5.894   3.602  17.130 -0.1300  0.2951 -0.4071
11875TIP3   OH257115   6.246   6.679   1.500  0.3518 -0.1559 -0.3156
11875TIP3    H157116   6.277   6.613   1.438  0.7129 -1.3700  1.0793
11875TIP3    H257117   6.313   6.747   1.497  0.1159  0.0297 -1.5921
11876TIP3   OH257118   6.235   5.852  13.844 -0.2182  0.6784 -0.1129
11876TIP3    H157119   6.299   5.922  13.854  0.1933  0.2078  0.6088
11876TIP3    H257120   6.180   5.880  13.770  0.7349  1.1439 -0.6618
11877TIP3   OH257121   0.361   4.072   6.089 -0.7503 -0.3579 -0.8712
11877TIP3    H157122   0.351   4.143   6.152 -1.0502 -0.8704 -0.3209
11877TIP3    H257123   0.291   4.010   6.112 -1.1040 -0.3865 -1.9480
11878TIP3   OH257124   5.613   0.987   6.398 -0.5347  0.6705  0.1255
11878TIP3    H157125   5.670   0.949   6.331 -2.2058  1.8224 -2.0720
11878TIP3    H257126   5.654   0.962   6.481  0.7016 -2.3223 -1.2417
11879TIP3   OH257127   5.134   0.710  11.621 -0.6586 -0.3261 -0.8959
11879TIP3    H157128   5.104   0.749  11.538 -3.2240  0.1045  0.1472
11879TIP3    H257129   5.062   0.653  11.648 -0.8720  1.1492  2.0448
11880TIP3   OH257130   5.853   0.565   4.375  0.2792  0.0579  0.0858
11880TIP3    H157131   5.889   0.611   4.451 -0.0989 -1.3228  1.1382
11880TIP3    H257132   5.923   0.505   4.348 -0.6701 -1.7431  1.3717
11881TIP3   OH257133   5.559   2.366  12.248  0.1848 -0.0193 -0.1480
11881TIP3    H157134   5.623   2.401  12.187 -0.3246 -0.5102 -0.9738
11881TIP3    H257135   5.490   2.432  12.251  0.0809 -0.1197 -0.3140
11882TIP3   OH257136   0.225   2.583  11.634  0.4627  0.0441 -0.1051
11882TIP3    H157137   0.298   2.556  11.578  1.5818  1.1035  0.8158
11882TIP3    H257138   0.215   2.676  11.618 -1.8806 -0.3730 -1.5315
11883TIP3   OH257139   6.219   5.799   3.608 -0.5780 -0.0301  0.0341
11883TIP3    H157140   6.211   5.800   3.512  0.2120 -1.3442 -0.0679
11883TIP3    H257141   6.131   5.818   3.639 -0.7157  1.0813 -0.9384
11884TIP3   OH257142   5.710   2.428  13.486 -0.1563  0.2330  0.6044
11884TIP3    H157143   5.643   2.423  13.418  0.0815 -0.1735  0.3979
11884TIP3    H257144   5.790   2.399  13.444  0.0437  0.2122  0.9895
11885TIP3   OH257145   0.733   4.610  13.466 -0.6559 -0.7782  0.2999
11885TIP3    H157146   0.736   4.552  13.390  2.9970  0.6042 -0.8603
11885TIP3    H257147   0.717   4.697  13.429  0.0363 -0.2479  1.2027
11886TIP3   OH257148   2.185   6.292  11.066 -0.4760  0.9270 -0.1587
11886TIP3    H157149   2.266   6.241  11.073 -0.8297  0.4404  0.4474
11886TIP3    H257150   2.177   6.311  10.973 -0.3926 -0.2100 -0.4035
11887TIP3   OH257151   0.196   4.000   0.701 -0.0738 -0.0329  0.3938
11887TIP3    H157152   0.280   4.039   0.726  1.0166 -0.7667 -1.8424
11887TIP3    H257153   0.204   3.908   0.728  0.1326 -0.2536 -0.3873
11888TIP3   OH257154   4.345   3.165   4.551  0.3526 -0.2803  0.3843
11888TIP3    H157155   4.304   3.189   4.468 -1.2041 -0.8980  0.9434
11888TIP3    H257156   4.273   3.133   4.605  1.4002 -0.2475  1.8508
11889TIP3   OH257157   0.557   3.634   1.798 -0.2919 -0.0337 -0.2973
11889TIP3    H157158   0.617   3.611   1.869 -2.3847 -2.1714  0.9300
11889TIP3    H257159   0.529   3.723   1.818 -0.1603 -0.2804  1.0315
11890TIP3   OH257160   0.832   3.609  16.493  0.3166 -0.1232 -0.3726
11890TIP3    H157161   0.814   3.703  16.495  2.1988  0.2891 -0.9695
11890TIP3    H257162   0.849   3.590  16.401 -2.1723 -1.5418 -0.6217
11891TIP3   OH257163   2.049   4.680  14.228 -0.0094  0.5124 -0.7523
11891TIP3    H157164   2.013   4.736  14.297 -0.2648  2.7183 -2.5638
11891TIP3    H257165   2.034   4.591  14.260 -3.2990  1.3526  0.5220
11892TIP3   OH257166   6.326   4.323  16.374 -0.3216 -0.5201 -0.4014
11892TIP3    H157167   6.252   4.369  16.335  0.4585  0.9095 -0.2343
11892TIP3    H257168   6.381   4.299  16.299 -0.3456 -0.5142 -0.4213
11893TIP3   OH257169   4.307   5.231   4.753  0.0891 -0.4294 -0.0166
11893TIP3    H157170   4.280   5.170   4.684 -2.3069  1.3955 -0.8256
11893TIP3    H257171   4.236   5.228   4.817  1.4489 -0.7602  1.5443
11894TIP3   OH257172   0.206   5.807  14.118 -0.3186 -0.0900 -0.2039
11894TIP3    H157173   0.292   5.777  14.087 -0.0668 -0.4470  0.7937
11894TIP3    H257174   0.156   5.727  14.132  0.2086 -0.0693  2.0668
11895TIP3   OH257175   2.109   1.496  15.532  0.2484  0.0252 -0.4183
11895TIP3    H157176   2.038   1.546  15.573  2.0906  0.3612  2.7543
11895TIP3    H257177   2.158   1.562  15.482  0.6816  0.7419  0.8876
11896TIP3   OH257178   1.958   0.499   0.229  0.0242 -0.3349  0.1952
11896TIP3    H157179   1.946   0.537   0.142 -2.9307  0.7027  0.9240
11896TIP3    H257180   1.959   0.405   0.214  2.9635 -0.1751 -1.2136
11897TIP3   OH257181   4.398   2.150  13.252  0.0614  0.0695 -0.4670
11897TIP3    H157182   4.339   2.075  13.264  0.6509  0.0149  2.8764
11897TIP3    H257183   4.464   2.118  13.190 -0.2050 -1.8811  0.1886
11898TIP3   OH257184   3.306   4.327   4.332 -0.2322 -0.4361  0.0997
11898TIP3    H157185   3.318   4.304   4.239 -1.9344 -0.5842 -0.1233
11898TIP3    H257186   3.326   4.247   4.379 -0.3974 -0.6793 -0.2350
11899TIP3   OH257187   5.694   3.433  15.092 -0.0836  0.3503  0.0324
11899TIP3    H157188   5.780   3.414  15.128 -0.3527  0.5043  0.7672
11899TIP3    H257189   5.709   3.504  15.029  0.3305  0.3337  0.1118
11900TIP3   OH257190   4.557   5.785  15.806  0.3172  0.4497 -0.0838
11900TIP3    H157191   4.556   5.804  15.712  1.0410  1.4206  0.0922
11900TIP3    H257192   4.649   5.769  15.826  0.1473  0.1203  0.4466
11901TIP3   OH257193   4.290   3.210   1.650 -1.0774  0.1601 -0.1714
11901TIP3    H157194   4.249   3.224   1.566 -0.8110  0.8113 -0.1973
11901TIP3    H257195   4.248   3.132   1.685 -3.1453  1.4293  0.3110
11902TIP3   OH257196   5.605   1.953  12.926 -0.4218  0.0418 -0.2871
11902TIP3    H157197   5.632   2.000  13.005 -0.7046 -1.1191  0.5191
11902TIP3    H257198   5.687   1.930  12.882 -0.2039 -0.6000  0.4479
11903TIP3   OH257199   0.629   3.062   4.963  0.0973  0.2485  0.4548
11903TIP3    H157200   0.698   3.004   4.995  0.7003  0.0773 -1.0894
11903TIP3    H257201   0.616   3.126   5.033  1.3774 -0.0864  1.0135
11904TIP3   OH257202   4.777   6.718   4.879 -0.2235  0.5933 -0.3547
11904TIP3    H157203   4.693   6.702   4.836  0.4976 -0.6198 -1.3615
11904TIP3    H257204   4.837   6.740   4.807  0.5751  0.4006  0.2417
11905TIP3   OH257205   6.489   4.913   2.531  0.0378 -0.1329 -0.0845
11905TIP3    H157206   6.499   4.824   2.567  0.4472 -0.3337 -0.6844
11905TIP3    H257207   6.436   4.959   2.596  0.7740 -0.4894  0.8013
11906TIP3   OH257208   3.107   4.114   0.418 -0.5802 -0.0547  0.3554
11906TIP3    H157209   3.086   4.134   0.509 -0.2460  0.1965  0.3807
11906TIP3    H257210   3.043   4.163   0.367 -0.8043 -0.2421  0.4573
11907TIP3   OH257211   6.216   2.521  14.408 -0.6211  0.3250 -0.1244
11907TIP3    H157212   6.220   2.571  14.327  1.0130  0.8535  0.2382
11907TIP3    H257213   6.288   2.459  14.401 -1.8477 -1.1776 -0.0200
11908TIP3   OH257214   6.746   2.750  12.176 -0.2770  0.2572  0.4999
11908TIP3    H157215   6.744   2.801  12.095  1.5654 -0.9585 -0.3613
11908TIP3    H257216   6.726   2.814  12.245  0.6190  1.8684 -0.6742
11909TIP3   OH257217   1.800   4.951   0.847 -0.3282  0.1731  0.3944
11909TIP3    H157218   1.800   4.924   0.755 -1.6958  1.1959  0.0600
11909TIP3    H257219   1.868   4.898   0.888  0.4173 -0.1771 -1.2402
11910TIP3   OH257220   1.254   6.429   0.394  0.0095 -0.3221 -0.1210
11910TIP3    H157221   1.173   6.478   0.381 -0.3024 -1.2668 -2.2337
11910TIP3    H257222   1.228   6.353   0.446 -0.1826 -0.0104  0.2470
11911TIP3   OH257223   0.137   2.037   3.762 -0.0925  1.1546  0.1024
11911TIP3    H157224   0.106   1.983   3.835  0.4777  0.8463  0.1225
11911TIP3    H257225   0.158   2.122   3.801  1.6498  0.5291  0.5926
11912TIP3   OH257226   4.977   2.053   6.329 -0.5547 -0.2227  0.0531
11912TIP3    H157227   4.963   1.989   6.398  1.4135  0.5127  1.2133
11912TIP3    H257228   4.892   2.096   6.318 -1.2386 -1.2694  1.0501
11913TIP3   OH257229   0.258   5.895  14.809  0.4349  0.9636 -0.3233
11913TIP3    H157230   0.164   5.875  14.801  0.5273 -0.4389  1.4840
11913TIP3    H257231   0.278   5.944  14.730 -1.5400  0.1789 -1.4002
11914TIP3   OH257232   0.041   1.249  13.766  0.0456  0.4494  0.0022
11914TIP3    H157233  -0.048   1.216  13.754  0.0556 -0.1846  1.4660
11914TIP3    H257234   0.084   1.235  13.682 -1.5160  1.6966 -1.0527
11915TIP3   OH257235   1.830   0.712  13.422 -0.1382  0.3253  0.3556
11915TIP3    H157236   1.748   0.711  13.373 -0.4105  1.7683  0.7099
11915TIP3    H257237   1.877   0.634  13.393 -1.0655  0.1771 -0.8314
11916TIP3   OH257238   0.103   0.458  13.200  0.5758 -0.5624  0.1063
11916TIP3    H157239   0.021   0.431  13.158  0.6501 -0.3083 -0.2059
11916TIP3    H257240   0.172   0.412  13.151  0.5761 -1.4510  0.9097
11917TIP3   OH257241   1.260   4.812  12.263  0.0521  0.6491  0.1324
11917TIP3    H157242   1.179   4.862  12.271 -0.7109 -0.4786 -0.2365
11917TIP3    H257243   1.265   4.763  12.345 -0.4560 -0.4095 -0.4393
11918TIP3   OH257244   2.451   6.347   3.398 -0.7125 -0.2702  0.3708
11918TIP3    H157245   2.447   6.348   3.302  0.1357  1.7254  0.3045
11918TIP3    H257246   2.431   6.257   3.422 -0.8688 -0.8335 -1.6841
11919TIP3   OH257247   0.199   0.160   2.661  0.3413 -0.1967 -0.0660
11919TIP3    H157248   0.190   0.097   2.732  0.7870 -1.0039 -0.7092
11919TIP3    H257249   0.131   0.135   2.599 -0.4345  0.8749  0.3407
11920TIP3   OH257250   1.574   4.191   4.149 -0.3095 -0.2614 -0.2227
11920TIP3    H157251   1.521   4.232   4.217 -0.2473  1.4801 -1.1764
11920TIP3    H257252   1.517   4.187   4.073  0.6963  1.1341 -1.1013
11921TIP3   OH257253   1.281   1.812   1.621  0.0953  0.5066  0.2052
11921TIP3    H157254   1.202   1.818   1.675 -0.6135 -0.3995 -0.6992
11921TIP3    H257255   1.249   1.793   1.533  1.3051  0.5171 -0.2553
11922TIP3   OH257256   4.875   3.863  11.426 -0.0450  0.2059  0.1358
11922TIP3    H157257   4.807   3.814  11.381  1.3944 -0.5788 -1.2985
11922TIP3    H257258   4.918   3.799  11.483  0.7432  0.1863 -0.4608
11923TIP3   OH257259   1.841   1.278  16.304  0.0360  0.1123 -0.5174
11923TIP3    H157260   1.848   1.365  16.264  1.8757 -1.2533 -3.5589
11923TIP3    H257261   1.880   1.289  16.391 -3.0050  2.9860  0.6747
11924TIP3   OH257262   4.966   5.163  16.422 -0.3721 -0.4287 -0.0692
11924TIP3    H157263   4.919   5.089  16.460  0.2952 -1.9628 -2.0633
11924TIP3    H257264   5.057   5.151  16.449 -0.2566 -0.3614 -0.4152
11925TIP3   OH257265   3.681   0.184  12.416 -0.1238 -0.0044 -0.1420
11925TIP3    H157266   3.716   0.267  12.450 -0.3206  0.0963 -0.1770
11925TIP3    H257267   3.593   0.178  12.455 -0.3427  0.0992 -0.6079
11926TIP3   OH257268   1.958   0.173  13.960 -0.2029  0.3309 -0.0769
11926TIP3    H157269   1.967   0.115  13.885 -2.9183 -0.3645  0.0228
11926TIP3    H257270   1.975   0.260  13.926  2.1122 -0.2773 -0.6404
11927TIP3   OH257271   5.557   4.569   1.581 -0.6366  0.3123 -0.1692
11927TIP3    H157272   5.627   4.634   1.592  0.3008 -0.7561  0.2771
11927TIP3    H257273   5.544   4.564   1.486  0.8480 -0.4472 -0.3580
11928TIP3   OH257274   5.749   5.109   3.131 -0.1859  0.4054 -0.2196
11928TIP3    H157275   5.729   5.019   3.108 -1.8154  0.9573 -1.1087
11928TIP3    H257276   5.724   5.117   3.223 -1.6709  0.3727 -0.5971
11929TIP3   OH257277   0.022   5.599   5.565  0.0134  0.7244  0.0993
11929TIP3    H157278   0.036   5.694   5.559  0.5071  0.6032 -0.8093
11929TIP3    H257279   0.077   5.562   5.496  1.2293 -0.3711  1.5919
11930TIP3   OH257280   6.242   5.479  11.135  0.2187 -0.4959 -0.1118
11930TIP3    H157281   6.330   5.513  11.122  0.0922  0.4770  1.2831
11930TIP3    H257282   6.247   5.387  11.111  1.0713  0.0374 -2.1068
11931TIP3   OH257283   2.569   3.220   1.222  0.2814  0.2171  0.1495
11931TIP3    H157284   2.561   3.254   1.133 -0.8194 -1.8964 -0.6040
11931TIP3    H257285   2.617   3.138   1.213 -1.8269 -1.2168  1.1346
11932TIP3   OH257286   6.626   0.985   4.923  0.4037 -0.1417 -0.5816
11932TIP3    H157287   6.540   1.010   4.958  0.2363 -0.4047 -0.8000
11932TIP3    H257288   6.615   0.894   4.896  1.5742 -1.1924  2.0958
11933TIP3   OH257289   3.714   6.597  12.986 -0.3901 -0.4721 -0.3309
11933TIP3    H157290   3.750   6.669  13.038  0.6848 -1.7391  0.7853
11933TIP3    H257291   3.691   6.530  13.051 -2.3572 -0.7435 -1.2492
11934TIP3   OH257292   6.114   5.967   1.614 -0.3170 -0.1412 -0.7027
11934TIP3    H157293   6.131   5.873   1.616  1.1860  0.1059 -0.4156
11934TIP3    H257294   6.167   6.002   1.685  2.7053  1.3957 -3.4510
11935TIP3   OH257295   4.291   2.059   3.218 -0.3739 -0.1351  0.2017
11935TIP3    H157296   4.251   2.083   3.301 -0.8478  0.6100 -0.2275
11935TIP3    H257297   4.258   2.124   3.156  0.7851 -0.0596 -0.3578
11936TIP3   OH257298   5.404   2.647  16.262  0.1986 -0.3948  0.7828
11936TIP3    H157299   5.364   2.723  16.219  0.6176 -0.4150  0.3436
11936TIP3    H257300   5.455   2.605  16.193 -0.7492 -1.5939  0.7904
11937TIP3   OH257301   0.386   5.547  15.188  0.5376 -0.1564  0.2223
11937TIP3    H157302   0.405   5.553  15.094 -0.7008  1.1377  0.0040
11937TIP3    H257303   0.416   5.460  15.214  1.6422 -0.2304 -1.1938
11938TIP3   OH257304   1.497   3.521   2.960  0.3299 -0.1852  0.4220
11938TIP3    H157305   1.526   3.431   2.973 -2.0470 -0.8964  1.3596
11938TIP3    H257306   1.401   3.515   2.955  0.0311  2.3586  1.3586
11939TIP3   OH257307   0.876   0.891  13.193 -0.2631  0.3079 -0.1638
11939TIP3    H157308   0.935   0.872  13.266 -0.6401  1.2238  0.4132
11939TIP3    H257309   0.924   0.954  13.139  0.6999 -1.6002 -1.6763
11940TIP3   OH257310   2.612   4.799   3.146 -0.4188 -0.3415 -0.0287
11940TIP3    H157311   2.644   4.821   3.234  0.9528  0.1112 -0.6195
11940TIP3    H257312   2.684   4.751   3.105 -0.4660  0.6922 -1.4010
11941TIP3   OH257313   0.110   3.564   3.462 -0.0927 -0.1311 -0.2477
11941TIP3    H157314   0.193   3.564   3.510  0.0360 -0.3276 -0.4739
11941TIP3    H257315   0.043   3.573   3.531  0.1145  0.0597 -0.0684
11942TIP3   OH257316   0.315   5.884   1.015  0.2575 -0.3633  0.0958
11942TIP3    H157317   0.265   5.804   1.001  0.8854 -0.6920 -0.3420
11942TIP3    H257318   0.295   5.910   1.106 -0.3148 -0.7465  0.0835
11943TIP3   OH257319   2.976   6.640  12.443  0.1037  0.7742  0.0427
11943TIP3    H157320   2.883   6.622  12.435  0.1565  0.7511 -0.6171
11943TIP3    H257321   3.003   6.667  12.355  0.8223  0.2886  0.0994
11944TIP3   OH257322   1.450   3.190   5.349  0.4777  0.4731  0.6236
11944TIP3    H157323   1.424   3.169   5.439  0.6919  2.0798  1.0968
11944TIP3    H257324   1.370   3.181   5.298  0.3970 -0.6616  0.9141
11945TIP3   OH257325   1.839   1.574  13.097 -0.1064 -0.0884 -0.5504
11945TIP3    H157326   1.872   1.639  13.159 -0.7328  0.9865 -1.3289
11945TIP3    H257327   1.748   1.560  13.122  0.3233 -1.5680  0.3411
11946TIP3   OH257328   4.077   2.016   4.801  0.2779 -0.2434 -0.2038
11946TIP3    H157329   4.058   2.099   4.846  0.3235 -0.5125  0.3204
11946TIP3    H257330   4.156   1.983   4.845  2.1093  0.9221 -2.3974
11947TIP3   OH257331   6.407   3.711  11.587  0.5111  0.3965 -0.6826
11947TIP3    H157332   6.428   3.800  11.560  2.9422  0.9237  2.3836
11947TIP3    H257333   6.347   3.721  11.661  0.4192 -0.5126 -0.6164
11948TIP3   OH257334   2.659   3.284  10.235  0.2650 -0.8263  0.1700
11948TIP3    H157335   2.715   3.212  10.265 -1.2184 -1.1506  2.4098
11948TIP3    H257336   2.656   3.345  10.308 -0.3998  0.3637 -0.8046
11949TIP3   OH257337   0.878   6.178   3.333  0.7242 -0.1238 -0.8189
11949TIP3    H157338   0.844   6.126   3.261  0.8855 -0.7346 -0.4569
11949TIP3    H257339   0.941   6.121   3.377  0.2163  0.0339  0.1459
11950TIP3   OH257340   5.100   6.096   2.678 -0.3968 -0.2187  0.1364
11950TIP3    H157341   5.184   6.108   2.723 -0.8863  0.0376  1.0037
11950TIP3    H257342   5.045   6.166   2.712 -0.5693  0.4527 -1.4423
11951TIP3   OH257343   6.673   2.735   6.348 -0.1226  0.0395  0.6286
11951TIP3    H157344   6.641   2.737   6.438 -0.6993  1.5048  0.4230
11951TIP3    H257345   6.750   2.679   6.350 -0.2339 -0.0831  2.0008
11952TIP3   OH257346   4.088   3.812   4.087 -0.1128 -0.2924  0.0667
11952TIP3    H157347   4.080   3.906   4.075 -1.5281 -0.2000  1.3602
11952TIP3    H257348   4.027   3.774   4.023 -0.4407 -0.2584  0.3543
11953TIP3   OH257349   6.501   5.532   0.159  0.5028 -0.0896 -0.4465
11953TIP3    H157350   6.491   5.519   0.253 -3.1350  1.1361 -0.5256
11953TIP3    H257351   6.509   5.627   0.149  0.3279 -0.1651 -1.3983
11954TIP3   OH257352   4.688   6.045  16.675  0.5807  0.9050  0.1909
11954TIP3    H157353   4.631   6.068  16.601 -0.8153 -1.9207  0.2925
11954TIP3    H257354   4.628   6.023  16.746  1.7844 -1.2308  0.6039
11955TIP3   OH257355   4.636   2.492  14.893  0.0171  0.2881  0.1100
11955TIP3    H157356   4.641   2.584  14.917  2.7186  0.8370 -2.0400
11955TIP3    H257357   4.656   2.444  14.974 -0.9016  1.5646  1.1254
11956TIP3   OH257358   4.347   0.311   3.463  0.2302  0.1248 -0.3813
11956TIP3    H157359   4.369   0.398   3.429  0.0266  0.3744  0.1107
11956TIP3    H257360   4.252   0.314   3.476  0.0725 -0.5215 -1.3193
11957TIP3   OH257361   0.718   5.534  12.208  0.2404  0.1717 -0.5895
11957TIP3    H157362   0.648   5.585  12.248  0.9460 -0.4126  1.4722
11957TIP3    H257363   0.692   5.442  12.221  0.9906 -0.0404 -0.5319
11958TIP3   OH257364   2.143   2.024   2.906  1.1522 -0.5504  0.1621
11958TIP3    H157365   2.168   1.935   2.929 -0.3645 -0.9825  0.1936
11958TIP3    H257366   2.100   2.059   2.985  2.4331  0.5167  0.4396
11959TIP3   OH257367   1.063   5.957   3.073  0.2477 -0.8184  0.2578
11959TIP3    H157368   1.008   5.890   3.113  1.6120 -1.2748  1.4786
11959TIP3    H257369   1.130   5.908   3.026 -0.2958 -0.2716 -1.1342
11960TIP3   OH257370   1.397   2.802   6.059  0.1922  0.0184 -0.0939
11960TIP3    H157371   1.308   2.786   6.029  0.2073 -0.0806 -0.0855
11960TIP3    H257372   1.405   2.898   6.062 -0.0080  0.0249  0.1856
11961TIP3   OH257373   0.639   0.694   0.190 -0.1515  0.2759  0.5337
11961TIP3    H157374   0.610   0.753   0.121  0.0278 -0.7522 -0.4609
11961TIP3    H257375   0.731   0.676   0.169  0.4004  1.2116  1.9867
11962TIP3   OH257376   0.272   6.568   6.056 -0.3395  0.5697  0.1584
11962TIP3    H157377   0.352   6.517   6.042 -0.2596  0.4924  0.8928
11962TIP3    H257378   0.302   6.658   6.064 -0.5260  0.8345 -1.6571
11963TIP3   OH257379   3.283   4.575  10.506  0.0437  0.0015  0.4295
11963TIP3    H157380   3.189   4.590  10.500  0.3140  1.2151 -2.1237
11963TIP3    H257381   3.297   4.492  10.459  0.2008 -0.5865  1.4803
11964TIP3   OH257382   1.830   2.848   2.289  0.3266  0.0325  0.1273
11964TIP3    H157383   1.862   2.761   2.314  0.7315 -0.3269 -1.5184
11964TIP3    H257384   1.841   2.901   2.368  2.5437 -0.7552  0.4207
11965TIP3   OH257385   1.601   2.069  11.531  0.0657  0.0737 -0.0188
11965TIP3    H157386   1.561   2.154  11.549 -0.2619 -0.1048  0.1015
11965TIP3    H257387   1.680   2.090  11.480  0.9472  0.5806  1.5043
11966TIP3   OH257388   2.791   2.396  15.059  0.1573 -0.0296  0.8922
11966TIP3    H157389   2.801   2.303  15.078  3.1332 -0.0771 -0.2617
11966TIP3    H257390   2.756   2.398  14.970  1.4953 -0.1349  0.3352
11967TIP3   OH257391   3.397   3.963  13.494 -0.2124  0.2670  0.5765
11967TIP3    H157392   3.429   3.913  13.419 -1.4124 -1.0558  0.8978
11967TIP3    H257393   3.461   4.034  13.505  1.1865 -0.8020 -0.3162
11968TIP3   OH257394   6.194   4.338  11.532  0.1359 -0.4824  0.0538
11968TIP3    H157395   6.279   4.305  11.504  0.8039  2.3325 -1.5858
11968TIP3    H257396   6.211   4.382  11.615 -0.0053 -0.9596  0.3430
11969TIP3   OH257397   3.252   5.246  11.961  0.2134  0.2012 -0.0977
11969TIP3    H157398   3.187   5.188  11.920  1.3335 -1.2976  0.1919
11969TIP3    H257399   3.207   5.279  12.039  0.0769 -1.5771  0.6298
11970TIP3   OH257400   0.406   6.533  15.197 -0.1947 -0.0768 -0.1975
11970TIP3    H157401   0.359   6.480  15.132 -0.3042  0.4293 -0.5433
11970TIP3    H257402   0.497   6.504  15.191 -0.5830 -1.7665  1.1742
11971TIP3   OH257403   4.002   4.074   0.916  0.5548  0.4597  0.0803
11971TIP3    H157404   3.956   4.014   0.974  0.7596  0.1910 -0.0380
11971TIP3    H257405   4.073   4.109   0.969  1.4543 -0.6613 -0.3514
11972TIP3   OH257406   4.928   3.052   1.425 -0.3725  0.3204  0.1039
11972TIP3    H157407   4.947   2.964   1.394 -0.7392  0.4208 -0.4158
11972TIP3    H257408   5.013   3.096   1.424 -0.2512  0.0856  0.0036
11973TIP3   OH257409   5.808   4.313  14.304  0.2410  0.0779  0.0780
11973TIP3    H157410   5.871   4.383  14.286  1.7505 -1.0193  0.9275
11973TIP3    H257411   5.795   4.316  14.398  0.0553 -0.5876  0.0783
11974TIP3   OH257412   3.604   4.401  12.018  0.0246  0.1856 -0.3202
11974TIP3    H157413   3.522   4.440  12.049  0.2900 -0.6138  1.5355
11974TIP3    H257414   3.649   4.473  11.973 -1.8238  0.5442 -1.7351
11975TIP3   OH257415   5.507   3.149   3.742  0.4265 -0.1690 -0.3837
11975TIP3    H157416   5.435   3.098   3.779  1.1620 -1.2552 -0.3824
11975TIP3    H257417   5.467   3.231   3.713 -0.8849 -0.9238 -0.7879
11976TIP3   OH257418   4.512   6.725  16.976 -0.5026  0.5049 -0.0152
11976TIP3    H157419   4.546   6.796  16.922  1.3150  0.9640  1.6189
11976TIP3    H257420   4.557   6.647  16.944 -1.5610  0.2599 -0.9781
11977TIP3   OH257421   0.860   5.157   3.239  0.0437 -0.1197  0.1290
11977TIP3    H157422   0.811   5.163   3.157  0.3416 -1.2796 -0.1537
11977TIP3    H257423   0.912   5.237   3.242 -2.6522  1.7208  0.9782
11978TIP3   OH257424   3.203   4.529  13.085  0.4986 -0.0327 -0.1234
11978TIP3    H157425   3.183   4.441  13.116  1.4673 -0.0342  0.5366
11978TIP3    H257426   3.286   4.551  13.126  1.5651  0.2068 -2.2964
11979TIP3   OH257427   0.372   2.896   5.940 -0.3107 -0.3131 -0.5535
11979TIP3    H157428   0.420   2.905   5.858  0.6465  1.8561  0.1611
11979TIP3    H257429   0.281   2.915   5.917 -0.0188  0.4896 -1.1085
11980TIP3   OH257430   4.842   1.456  14.325 -0.0845 -0.1417 -0.4368
11980TIP3    H157431   4.783   1.450  14.400 -0.4074  0.9413 -0.5943
11980TIP3    H257432   4.835   1.370  14.283 -1.2102 -0.1863 -0.1873
11981TIP3   OH257433   2.720   1.889   5.781  0.2009 -0.5302 -0.0419
11981TIP3    H157434   2.676   1.961   5.826  1.0049  0.1784 -0.3660
11981TIP3    H257435   2.698   1.811   5.833 -0.8864 -0.0995  0.1635
11982TIP3   OH257436   1.884   3.040  16.044  0.1204 -0.3629  0.1941
11982TIP3    H157437   1.808   2.993  16.011 -0.3774  1.2969 -1.1902
11982TIP3    H257438   1.855   3.132  16.047  1.0728 -0.0604  2.6227
11983TIP3   OH257439   1.840   1.591   1.026  0.6862  0.1343 -0.4024
11983TIP3    H157440   1.765   1.651   1.021  0.7830  0.4720  1.4194
11983TIP3    H257441   1.842   1.564   1.118  2.3139 -0.5151 -0.6060
11984TIP3   OH257442   1.631   3.998  16.656  0.4573 -0.2458 -0.2907
11984TIP3    H157443   1.669   4.075  16.612 -1.5491  1.5965  1.0225
11984TIP3    H257444   1.537   4.013  16.653 -0.0249 -2.8020 -0.1321
11985TIP3   OH257445   4.396   0.452  12.098 -0.3899 -0.2126  0.0627
11985TIP3    H157446   4.478   0.412  12.129 -0.6458 -0.4447  0.4504
11985TIP3    H257447   4.416   0.481  12.010 -0.3167 -1.6333 -0.4188
11986TIP3   OH257448   3.536   0.863  12.056 -0.0970 -0.2891  0.2835
11986TIP3    H157449   3.587   0.800  12.005 -0.7151  0.2991 -1.0874
11986TIP3    H257450   3.562   0.846  12.147 -1.4374 -3.6536  0.1849
11987TIP3   OH257451   0.383   2.098   3.320  0.0464  0.8221 -0.2218
11987TIP3    H157452   0.394   2.166   3.386  0.3961 -0.4464  1.0959
11987TIP3    H257453   0.473   2.071   3.300 -0.1057  0.0552  0.0709
11988TIP3   OH257454   1.779   2.865  11.115  0.3315 -0.4230 -0.1598
11988TIP3    H157455   1.761   2.952  11.081 -0.9602  0.5894  2.7523
11988TIP3    H257456   1.694   2.830  11.139  1.0555 -1.2089  1.4577
11989TIP3   OH257457   5.461   0.204  17.238 -0.1640  0.2302  0.1180
11989TIP3    H157458   5.455   0.291  17.200 -0.3554 -0.2841 -1.0585
11989TIP3    H257459   5.378   0.191  17.284 -0.3484  0.4650 -0.1489
11990TIP3   OH257460   2.293   4.835  13.845 -0.0184  0.7029 -0.2171
11990TIP3    H157461   2.384   4.806  13.844  0.0055  0.7258 -2.2726
11990TIP3    H257462   2.256   4.798  13.925  1.3254 -0.8090 -0.2703
11991TIP3   OH257463   6.431   6.079  12.783  0.0785 -0.0678  0.0138
11991TIP3    H157464   6.391   6.157  12.743 -1.7026 -0.9523 -0.0286
11991TIP3    H257465   6.444   6.019  12.710  0.8188 -0.0765  0.1485
11992TIP3   OH257466   0.759   2.269  13.653 -0.5071 -0.4013 -0.2230
11992TIP3    H157467   0.752   2.203  13.723  0.4101  0.1267  0.3990
11992TIP3    H257468   0.695   2.336  13.677 -0.3979 -0.3619 -0.0321
11993TIP3   OH257469   2.899   0.223  13.930 -0.1065 -0.7708 -0.4787
11993TIP3    H157470   2.934   0.275  14.003 -0.9557 -0.4790 -0.2736
11993TIP3    H257471   2.804   0.233  13.936 -0.2540 -1.8832 -0.7877
11994TIP3   OH257472   2.567   6.022   0.989  0.3087 -0.1984  0.3215
11994TIP3    H157473   2.597   5.950   0.934  0.6963  0.8475 -0.8677
11994TIP3    H257474   2.644   6.046   1.041 -0.2983 -1.8076  2.1126
11995TIP3   OH257475   1.328   1.057   2.048 -0.2227 -1.0356  0.4113
11995TIP3    H157476   1.383   1.070   2.124  1.6037  1.7365 -1.2202
11995TIP3    H257477   1.389   1.037   1.977 -1.4759 -0.0317 -1.0218
11996TIP3   OH257478   2.497   3.827   2.498 -1.1484 -0.0534  0.1705
11996TIP3    H157479   2.421   3.820   2.556  0.0663  0.1049  1.8408
11996TIP3    H257480   2.527   3.917   2.510 -0.6278 -0.1500 -0.3925
11997TIP3   OH257481   0.578   1.809   3.556  0.0995  0.2665 -0.5477
11997TIP3    H157482   0.577   1.723   3.598 -0.9650  0.7433  0.4770
11997TIP3    H257483   0.498   1.852   3.588  0.1158  1.2891 -1.7756
11998TIP3   OH257484   3.862   4.065  15.680 -0.4138  0.5684  0.1318
11998TIP3    H157485   3.886   4.021  15.761  0.2831  0.2870 -0.2181
11998TIP3    H257486   3.818   3.998  15.628  0.2163  0.3973 -0.2029
11999TIP3   OH257487   6.207   3.006  13.131 -0.1831  0.0562  0.0512
11999TIP3    H157488   6.160   3.041  13.055  0.0258  1.0674  0.3692
11999TIP3    H257489   6.226   3.083  13.185  3.0520 -0.0181 -0.7257
12000TIP3   OH257490   0.318   3.176  14.828 -0.5400  0.0817  0.0303
12000TIP3    H157491   0.387   3.240  14.811  0.3741  0.1201  3.2665
12000TIP3    H257492   0.351   3.094  14.793  0.2220  0.5051 -0.2559
12001TIP3   OH257493   6.628   5.440   5.231  0.0249 -0.1530 -0.6210
12001TIP3    H157494   6.540   5.450   5.267  1.3201 -0.8623  3.2440
12001TIP3    H257495   6.660   5.530   5.221  0.6013  0.2071  3.1853
12002TIP3   OH257496   5.487   4.184  15.666 -0.2501 -0.6644  0.5246
12002TIP3    H157497   5.531   4.152  15.587  0.6283  0.5801  0.4767
12002TIP3    H257498   5.553   4.173  15.735 -0.7539 -1.0713  0.9434
12003TIP3   OH257499   5.976   3.133   1.543  0.2712  0.2841  0.1024
12003TIP3    H157500   5.884   3.158   1.538  0.5087  0.9918 -1.0248
12003TIP3    H257501   6.022   3.215   1.561  0.7455  0.0461 -0.0190
12004TIP3   OH257502   6.651   6.287   6.171  0.2267 -0.7393  0.2768
12004TIP3    H157503   6.579   6.327   6.217 -0.5714 -0.6234 -1.0186
12004TIP3    H257504   6.717   6.356   6.163 -0.3844 -0.2137 -0.3379
12005TIP3   OH257505   2.523   5.614   2.669 -0.8813  0.0010  0.0807
12005TIP3    H157506   2.529   5.532   2.717  0.6256  0.1906  0.2759
12005TIP3    H257507   2.539   5.682   2.735  1.8258  0.2417 -0.6904
12006TIP3   OH257508   1.143   1.736  11.037  0.3337  0.2322  0.4549
12006TIP3    H157509   1.211   1.668  11.042  0.1862  0.1549  1.8164
12006TIP3    H257510   1.117   1.736  10.945 -0.3490 -2.2681  0.5518
12007TIP3   OH257511   0.407   4.296   1.169 -0.0674 -0.1614 -0.0387
12007TIP3    H157512   0.346   4.360   1.132  1.9668  1.8605 -0.1149
12007TIP3    H257513   0.420   4.232   1.099 -1.3610 -0.1303 -0.3371
12008TIP3   OH257514   4.769   0.262   3.063 -0.1065 -0.2767  0.1214
12008TIP3    H157515   4.738   0.315   3.137  1.0367  0.1922  0.2801
12008TIP3    H257516   4.862   0.247   3.081  0.4671  0.7613 -1.7514
12009TIP3   OH257517   6.705   0.544  17.066  0.3036  0.4535 -0.1548
12009TIP3    H157518   6.757   0.578  17.139  0.6508  0.7952 -0.5605
12009TIP3    H257519   6.768   0.526  16.997  0.0182 -0.2182 -0.2527
12010TIP3   OH257520   5.804   1.170  11.671  0.2868  0.5949  0.0381
12010TIP3    H157521   5.724   1.128  11.704 -0.2848 -0.3227 -2.3448
12010TIP3    H257522   5.796   1.261  11.701 -0.5405  0.0411  1.6820
12011TIP3   OH257523   2.643   1.016  13.413 -0.1895  0.1433  0.2831
12011TIP3    H157524   2.642   1.094  13.468  0.2084  0.2289  0.1777
12011TIP3    H257525   2.567   0.965  13.441 -0.9085  0.9401 -0.1867
12012TIP3   OH257526   0.266   3.847   3.067  0.1300  0.3497  0.6885
12012TIP3    H157527   0.243   3.783   3.134  2.3427 -1.3885 -0.1074
12012TIP3    H257528   0.263   3.798   2.985  3.4536  0.7520  0.2197
12013TIP3   OH257529   4.118   3.650   1.837 -0.6657 -0.3988  0.2773
12013TIP3    H157530   4.195   3.595   1.844 -0.9702 -0.8086  0.4976
12013TIP3    H257531   4.048   3.598   1.877 -0.9287  0.2055  0.6231
12014TIP3   OH257532   1.204   3.242   1.928  0.3909 -0.0407  0.5227
12014TIP3    H157533   1.195   3.273   2.018 -1.2447 -0.4638  0.5452
12014TIP3    H257534   1.223   3.149   1.935 -0.5824 -0.2543  0.4432
12015TIP3   OH257535   1.370   0.184  16.060 -0.1428 -0.0422  0.1073
12015TIP3    H157536   1.368   0.103  16.112  0.8898  1.9611  3.5812
12015TIP3    H257537   1.336   0.251  16.119  0.2419  2.3144 -2.2026
12016TIP3   OH257538   6.420   4.142  14.989 -0.0600 -0.3181  0.6025
12016TIP3    H157539   6.415   4.093  14.907  0.6104  0.5890 -0.0017
12016TIP3    H257540   6.413   4.234  14.963  1.2358  0.0537  1.4445
12017TIP3   OH257541   1.964   4.772  12.653 -0.3205 -0.5020 -0.6449
12017TIP3    H157542   1.894   4.831  12.628 -1.1784 -1.5748 -0.8728
12017TIP3    H257543   1.993   4.732  12.570  0.0108 -0.6554 -0.4618
12018TIP3   OH257544   0.599   0.839   2.784  0.4677 -0.0666 -0.2092
12018TIP3    H157545   0.525   0.888   2.748  0.0640  0.3244  1.0729
12018TIP3    H257546   0.637   0.898   2.850  0.8373 -0.9302  0.3714
12019TIP3   OH257547   3.723   3.592  13.829 -0.4539 -0.5371 -0.1309
12019TIP3    H157548   3.642   3.541  13.835 -1.8019  1.6393  1.8696
12019TIP3    H257549   3.694   3.679  13.800  1.6235 -0.5036 -2.4624
12020TIP3   OH257550   1.797   2.744   6.015  0.5851  1.1560  0.4328
12020TIP3    H157551   1.797   2.836   5.989  3.2089  1.2517  0.5585
12020TIP3    H257552   1.888   2.723   6.033  0.1109 -1.5447  0.2150
12021TIP3   OH257553   2.842   1.867   3.364  0.2798 -0.4990  0.1564
12021TIP3    H157554   2.814   1.776   3.367  1.1125 -0.7876 -0.5639
12021TIP3    H257555   2.765   1.917   3.393 -1.3242 -1.1857 -2.6148
12022TIP3   OH257556   5.639   1.304  15.176 -0.5705 -0.3267 -0.0903
12022TIP3    H157557   5.665   1.384  15.131 -0.0856 -0.5065 -0.1428
12022TIP3    H257558   5.589   1.255  15.111  0.0268 -0.5329 -0.4074
12023TIP3   OH257559   4.586   2.140  14.277  0.4149  0.2014  0.1583
12023TIP3    H157560   4.621   2.215  14.228  0.8937  0.3098  0.6638
12023TIP3    H257561   4.589   2.167  14.368 -0.8821  0.1648  0.2360
12024TIP3   OH257562   3.279   4.731   1.431 -0.4184  0.5210  0.2562
12024TIP3    H157563   3.352   4.736   1.369 -0.7905 -2.1232 -0.5220
12024TIP3    H257564   3.201   4.739   1.377 -0.7176 -0.1907  0.5648
12025TIP3   OH257565   1.631   0.261  16.285  0.1508 -0.8710 -0.0187
12025TIP3    H157566   1.637   0.347  16.325  0.4214 -0.3291 -1.1915
12025TIP3    H257567   1.712   0.217  16.310  0.7730 -0.1771 -0.7680
12026TIP3   OH257568   0.528   5.103  13.631  0.1708  0.1819 -0.2083
12026TIP3    H157569   0.493   5.181  13.674 -0.0578  0.4641 -0.8925
12026TIP3    H257570   0.507   5.115  13.538 -0.0691 -0.8020 -0.2912
12027TIP3   OH257571   5.628   2.530   1.748  0.6776 -0.2633 -0.2402
12027TIP3    H157572   5.659   2.544   1.658  0.2698 -0.5809 -0.4319
12027TIP3    H257573   5.655   2.441   1.769  1.5827  0.1112  0.2946
12028TIP3   OH257574   1.695   3.934  10.382  0.2658  0.3146 -0.3950
12028TIP3    H157575   1.724   3.866  10.443 -0.3719  1.2298  0.9771
12028TIP3    H257576   1.758   4.005  10.393 -0.1637  0.7027 -0.3750
12029TIP3   OH257577   6.420   1.945  11.366 -0.0655  0.1493 -0.3753
12029TIP3    H157578   6.412   1.997  11.446  0.8095  1.1795 -0.9289
12029TIP3    H257579   6.514   1.929  11.357 -0.1448  0.1409 -1.2515
12030TIP3   OH257580   1.792   2.168  12.295  0.2924  0.2136  0.0527
12030TIP3    H157581   1.722   2.106  12.274  0.2804  0.1468  0.2806
12030TIP3    H257582   1.818   2.145  12.384  1.4460 -0.5664 -0.4636
12031TIP3   OH257583   4.658   6.354  12.785  0.5913 -0.6534 -0.7719
12031TIP3    H157584   4.673   6.266  12.748 -1.3871  0.1169 -3.7961
12031TIP3    H257585   4.596   6.394  12.725  0.1121  2.2623  1.4866
12032TIP3   OH257586   0.591   2.486   4.676  0.2653  0.1909  0.1045
12032TIP3    H157587   0.625   2.480   4.766 -1.0440 -1.6510  0.5411
12032TIP3    H257588   0.652   2.435   4.624 -0.2831 -0.8117  0.4108
12033TIP3   OH257589   4.931   4.971   5.702  0.6767 -0.6262  0.0043
12033TIP3    H157590   4.932   4.916   5.624  0.5852 -1.3001  0.4685
12033TIP3    H257591   4.857   4.940   5.753 -0.1184  0.7356 -0.2786
12034TIP3   OH257592   2.213   5.039  12.648  0.8476 -0.1143 -0.2763
12034TIP3    H157593   2.246   4.957  12.683 -0.8462 -1.4751 -1.6834
12034TIP3    H257594   2.290   5.097  12.646  1.6401 -0.8897  2.7016
12035TIP3   OH257595   5.985   4.542  16.075  0.1853 -0.6520 -0.4809
12035TIP3    H157596   5.942   4.615  16.120 -0.8554 -0.3349 -1.9025
12035TIP3    H257597   6.017   4.580  15.994 -0.4401 -1.7851 -1.2739
12036TIP3   OH257598   2.491   0.158   1.265 -0.6466  0.0629  0.2300
12036TIP3    H157599   2.400   0.176   1.291  0.1190  3.0721  1.3324
12036TIP3    H257600   2.543   0.193   1.338  1.4248 -0.3121 -1.0077
12037TIP3   OH257601   1.302   1.563  16.299  0.4923  0.0923  0.4142
12037TIP3    H157602   1.376   1.518  16.338  0.5818  0.5526  0.7906
12037TIP3    H257603   1.261   1.498  16.243  0.5554 -0.4897  1.0281
12038TIP3   OH257604   6.243   4.058  14.575 -0.3126 -0.2614 -0.0947
12038TIP3    H157605   6.281   4.014  14.652 -1.3812 -0.5278  0.2909
12038TIP3    H257606   6.244   3.991  14.507 -1.8133 -0.8776  0.4536
12039TIP3   OH257607   0.173   5.025   0.939  0.5691 -0.6235 -0.1179
12039TIP3    H157608   0.130   4.982   0.865  0.0660 -0.2165 -0.0743
12039TIP3    H257609   0.234   5.086   0.898  0.4040 -0.5107 -0.2017
12040TIP3   OH257610   5.304   3.334   3.351 -0.1503  0.0982  0.2154
12040TIP3    H157611   5.268   3.370   3.433  0.3540 -1.3863  1.1413
12040TIP3    H257612   5.354   3.257   3.379  3.0641  1.5221 -1.0723
12041TIP3   OH257613   4.884   0.539   5.035  0.4820 -0.1691  0.7566
12041TIP3    H157614   4.840   0.597   4.972 -0.7696 -0.7198  1.0800
12041TIP3    H257615   4.875   0.582   5.119 -0.5427 -0.8390  1.0154
12042TIP3   OH257616   5.604   0.240   2.729 -0.1407 -0.1409 -0.3933
12042TIP3    H157617   5.580   0.260   2.638  0.7670 -1.4639 -0.9821
12042TIP3    H257618   5.692   0.276   2.738 -0.0261 -0.4591 -0.2194
12043TIP3   OH257619   3.183   6.184   3.115 -0.2461  0.2165  0.1578
12043TIP3    H157620   3.262   6.229   3.086 -0.8117  1.0092 -0.1847
12043TIP3    H257621   3.192   6.179   3.210  0.1927  0.3357  0.1257
12044TIP3   OH257622   0.429   4.401   0.146  0.4493 -0.8423 -0.0776
12044TIP3    H157623   0.523   4.421   0.153  0.2657  0.1435 -0.2692
12044TIP3    H257624   0.426   4.310   0.117  1.3829 -0.4703 -1.4406
12045TIP3   OH257625   3.646   0.109  12.080  0.2422 -0.2189 -0.3963
12045TIP3    H157626   3.740   0.091  12.077  0.4821  0.8784  0.0184
12045TIP3    H257627   3.618   0.080  12.166  0.5281  0.8552  0.0783
12046TIP3   OH257628   3.193   3.341   6.558  0.0702 -0.5829 -0.3558
12046TIP3    H157629   3.260   3.399   6.595 -0.6368 -1.2095  2.0793
12046TIP3    H257630   3.117   3.398   6.545  0.2300 -0.4168 -0.5630
12047TIP3   OH257631   0.166   1.146  11.123  0.0887 -0.3649  0.4536
12047TIP3    H157632   0.161   1.203  11.046 -0.5131 -0.7799  0.1783
12047TIP3    H257633   0.174   1.206  11.197  1.9718  0.0158 -0.0057
12048TIP3   OH257634   2.201   4.084  11.859 -0.2018 -0.0169  0.0203
12048TIP3    H157635   2.173   4.175  11.863 -0.3501  0.0265 -1.3514
12048TIP3    H257636   2.264   4.082  11.787  1.6936 -0.5394  1.5988
12049TIP3   OH257637   3.992   0.564   2.056  0.0964  0.0478  0.4866
12049TIP3    H157638   3.961   0.588   2.143 -0.5014 -2.0487  0.9103
12049TIP3    H257639   4.026   0.475   2.065 -1.6155 -0.9543 -1.7226
12050TIP3   OH257640   5.534   3.837   5.217  0.0171  0.8921 -0.2752
12050TIP3    H157641   5.548   3.926   5.186  0.8657  1.3585  1.3297
12050TIP3    H257642   5.610   3.788   5.186  1.3547  1.5752  1.7388
12051TIP3   OH257643   4.493   5.062  11.773  0.1930 -0.6426  0.0703
12051TIP3    H157644   4.549   5.026  11.842  0.2333 -1.5448 -0.4246
12051TIP3    H257645   4.418   5.004  11.770  0.0342 -0.4150 -0.4283
12052TIP3   OH257646   5.232   2.221  12.099 -0.2258  0.5952 -0.0469
12052TIP3    H157647   5.206   2.222  12.191 -0.4125  1.4743 -0.1027
12052TIP3    H257648   5.214   2.309  12.068  0.6292  0.5478 -0.7068
12053TIP3   OH257649   3.207   1.288  14.037  0.2719  0.2869  0.1447
12053TIP3    H157650   3.234   1.358  13.977  0.6723  0.5397  0.6123
12053TIP3    H257651   3.283   1.229  14.041  0.2113  0.2201  0.3298
12054TIP3   OH257652   1.881   0.311  11.748  0.0924  0.5634  0.0981
12054TIP3    H157653   1.894   0.378  11.680  1.5465  0.4351  0.2242
12054TIP3    H257654   1.966   0.303  11.790 -0.5131 -0.1556  1.2215
12055TIP3   OH257655   4.706   2.310   3.595  0.2202 -0.2029 -0.0950
12055TIP3    H157656   4.729   2.297   3.687  0.4904 -0.3137 -0.1757
12055TIP3    H257657   4.648   2.237   3.574  0.2929 -0.2720 -0.0567
12056TIP3   OH257658   4.942   0.820  12.252  0.0213 -0.0967 -0.5051
12056TIP3    H157659   4.955   0.849  12.161  3.4033  2.1789  0.5186
12056TIP3    H257660   5.027   0.784  12.278  0.7846  3.5322  3.0265
12057TIP3   OH257661   2.382   5.307   2.907  0.1767 -0.6256 -0.7899
12057TIP3    H157662   2.289   5.304   2.884  0.2621 -0.9568 -1.1141
12057TIP3    H257663   2.401   5.400   2.920 -0.9212 -0.7456  2.3484
12058TIP3   OH257664   1.774   2.388  14.791 -0.2813  0.1253 -0.0951
12058TIP3    H157665   1.701   2.403  14.851 -0.1362  1.1263 -0.1566
12058TIP3    H257666   1.788   2.472  14.748  0.0574 -0.4015 -1.0461
12059TIP3   OH257667   3.937   4.721   3.038  0.4046  0.2463 -0.4722
12059TIP3    H157668   4.029   4.707   3.014 -0.3349  1.5986 -5.0000
12059TIP3    H257669   3.889   4.655   2.989 -1.1657 -1.4937  3.0524
12060TIP3   OH257670   5.980   6.727  12.184 -0.6434  0.2702 -0.1771
12060TIP3    H157671   6.021   6.781  12.251 -1.4716  1.6797 -0.7696
12060TIP3    H257672   6.034   6.740  12.106 -1.4123  1.0806 -0.5958
12061TIP3   OH257673   0.180   5.596   2.968  0.6265  0.7200 -0.5723
12061TIP3    H157674   0.251   5.626   3.025 -1.1057  1.9503  1.0217
12061TIP3    H257675   0.101   5.606   3.019 -0.6214 -2.2999 -1.6388
12062TIP3   OH257676   2.382   6.105   3.529  0.4940  0.1310  0.3890
12062TIP3    H157677   2.398   6.029   3.474  0.0951 -1.0253  1.8010
12062TIP3    H257678   2.390   6.072   3.618 -0.4890  1.5628  1.0506
12063TIP3   OH257679   0.655   5.924   3.490  0.3925 -0.2527  0.2376
12063TIP3    H157680   0.730   5.865   3.486  0.7365  0.2129 -1.9410
12063TIP3    H257681   0.681   5.993   3.551  0.9550 -1.1087  0.9713
12064TIP3   OH257682   1.056   6.068   5.518 -0.6235  0.2444  0.3433
12064TIP3    H157683   0.961   6.061   5.519 -0.5613 -1.4225  3.0634
12064TIP3    H257684   1.086   6.010   5.588  2.4585  0.1353 -0.8877
12065TIP3   OH257685   0.790   2.347  12.227 -0.0095  0.2179 -0.3328
12065TIP3    H157686   0.786   2.274  12.290  0.6156  0.4201 -0.0514
12065TIP3    H257687   0.883   2.367  12.220 -0.2976  4.1286  3.2456
12066TIP3   OH257688   3.499   3.019  17.023 -0.3148  0.0843 -0.6867
12066TIP3    H157689   3.460   2.943  16.979 -0.3306 -0.2560 -0.1012
12066TIP3    H257690   3.424   3.070  17.053 -0.3968 -1.1694  1.4810
12067TIP3   OH257691   5.758   2.751  11.812 -0.0649 -0.1411 -0.2816
12067TIP3    H157692   5.690   2.760  11.746  0.8335 -0.1951 -1.2420
12067TIP3    H257693   5.734   2.673  11.861 -0.9868  0.1566 -0.2408
12068TIP3   OH257694   6.334   4.241  15.233 -0.3249 -0.1296 -0.5349
12068TIP3    H157695   6.419   4.270  15.268 -0.4203 -0.2436 -0.2043
12068TIP3    H257696   6.355   4.200  15.149 -0.1049  0.2427 -0.6628
12069TIP3   OH257697   0.180   6.712   5.233  0.0023  0.1672 -0.3238
12069TIP3    H157698   0.090   6.686   5.255  0.7292 -2.0115  0.3483
12069TIP3    H257699   0.203   6.656   5.159  0.9125  0.4900 -0.2948
12070TIP3   OH257700   4.213   3.391  14.226  0.2984 -0.1241  0.0050
12070TIP3    H157701   4.217   3.311  14.174 -0.3519  1.0179 -1.9223
12070TIP3    H257702   4.135   3.381  14.280 -0.0711 -0.5988 -0.5956
12071TIP3   OH257703   3.875   0.646  10.928 -0.3537 -0.3161  0.0238
12071TIP3    H157704   3.873   0.550  10.934 -2.1070 -0.5179 -2.4079
12071TIP3    H257705   3.928   0.664  10.849 -0.9598  0.6526 -0.1789
12072TIP3   OH257706   1.172   5.992   5.266  0.7090  0.3365  0.1916
12072TIP3    H157707   1.115   6.015   5.340  0.8346  1.3950 -0.0286
12072TIP3    H257708   1.257   6.030   5.289  1.3316 -1.1574  0.4770
12073TIP3   OH257709   4.091   4.481   5.740 -0.1257 -0.1701 -0.5202
12073TIP3    H157710   4.152   4.532   5.687  0.2988 -0.5076 -0.3676
12073TIP3    H257711   4.005   4.518   5.721  0.1168  0.2449 -0.8172
12074TIP3   OH257712   3.483   5.359  12.842 -0.8669 -0.6350 -0.4739
12074TIP3    H157713   3.398   5.351  12.885 -0.6205 -1.0265 -0.0594
12074TIP3    H257714   3.547   5.350  12.912 -0.4669 -0.9914 -0.8756
12075TIP3   OH257715   3.301   2.859  16.221 -0.0845  0.0275  0.5231
12075TIP3    H157716   3.323   2.946  16.255 -0.3294  0.4433 -0.3534
12075TIP3    H257717   3.300   2.803  16.298  0.8816  0.6387  1.0004
12076TIP3   OH257718   1.779   4.710  13.739  0.6188 -0.4870 -0.3914
12076TIP3    H157719   1.693   4.752  13.746  1.1400  0.4489  1.0412
12076TIP3    H257720   1.761   4.618  13.720 -0.7666 -0.6030  1.2919
12077TIP3   OH257721   2.717   1.358   3.555  0.0892 -0.5700 -0.0149
12077TIP3    H157722   2.757   1.289   3.608 -0.5034 -1.2273 -0.4116
12077TIP3    H257723   2.705   1.319   3.468  0.1543  0.1750 -0.3725
12078TIP3   OH257724   3.089   5.712  16.705  0.7032 -0.4733  0.4883
12078TIP3    H157725   3.151   5.734  16.774  0.5894  0.6044  0.2583
12078TIP3    H257726   3.006   5.751  16.733  0.8503  0.7383 -0.6327
12079TIP3   OH257727   4.863   4.509   5.924  0.7236 -0.1885  0.0369
12079TIP3    H157728   4.879   4.444   5.993 -1.6542 -0.3160  0.5576
12079TIP3    H257729   4.781   4.481   5.883  1.2216  0.8229 -1.7816
12080TIP3   OH257730   2.403   6.483   4.782 -0.0193  0.4566 -0.3346
12080TIP3    H157731   2.409   6.394   4.747 -0.5385  0.6425 -0.9197
12080TIP3    H257732   2.428   6.474   4.874 -0.1080 -0.3021 -0.3742
12081TIP3   OH257733   5.278   6.210  14.558  0.0947 -0.1083 -0.1947
12081TIP3    H157734   5.281   6.225  14.652 -2.5089 -1.1106  0.1194
12081TIP3    H257735   5.365   6.177  14.536  1.6099  2.5426  1.3405
12082TIP3   OH257736   2.863   1.917  16.207 -0.2286 -0.2994  0.1524
12082TIP3    H157737   2.936   1.855  16.217 -1.3663 -1.9101 -1.0608
12082TIP3    H257738   2.807   1.901  16.283 -0.2525 -0.3815  0.1171
12083TIP3   OH257739   1.623   6.620   5.748 -0.5303  0.5461  0.7827
12083TIP3    H157740   1.550   6.676   5.720 -0.0888  0.5714 -0.3771
12083TIP3    H257741   1.690   6.634   5.682 -1.3625 -3.3675 -1.1617
12084TIP3   OH257742   1.034   3.538  14.818 -0.0184  0.3590  0.0875
12084TIP3    H157743   0.942   3.528  14.843  0.1496 -2.0096 -0.0371
12084TIP3    H257744   1.037   3.509  14.726  0.9527 -0.2889  0.3116
12085TIP3   OH257745   6.769   5.891   5.064  0.4411 -0.2902 -0.0612
12085TIP3    H157746   6.774   5.940   4.982 -1.8857  0.7536  0.3474
12085TIP3    H257747   6.714   5.945   5.121  2.3810 -0.7318  2.4136
12086TIP3   OH257748   3.782   2.411  16.418 -0.0535  0.1036  0.4684
12086TIP3    H157749   3.827   2.333  16.387  0.2692  0.4563  0.0301
12086TIP3    H257750   3.689   2.388  16.416  0.0296 -0.2180  0.1967
12087TIP3   OH257751   4.185   2.466   4.140  0.1788  0.2222  0.2305
12087TIP3    H157752   4.247   2.490   4.209  0.4592 -1.2819  0.5399
12087TIP3    H257753   4.239   2.435   4.068 -0.1771 -1.6650  0.7199
12088TIP3   OH257754   2.789   6.698  13.315 -0.6403  0.4452 -0.7461
12088TIP3    H157755   2.816   6.657  13.397 -2.9627  0.2380 -0.0011
12088TIP3    H257756   2.773   6.790  13.338  1.3089  1.0605 -1.6438
12089TIP3   OH257757   5.967   3.448   5.235  0.5934 -0.0658  0.6384
12089TIP3    H157758   6.010   3.374   5.193 -2.0338 -0.4632 -1.6288
12089TIP3    H257759   5.987   3.523   5.179 -0.6931 -0.0624  0.1408
12090TIP3   OH257760   3.731   5.897  11.212 -0.6962  0.5304  0.1046
12090TIP3    H157761   3.748   5.818  11.263 -1.9248  0.8910  1.1207
12090TIP3    H257762   3.762   5.968  11.267  4.2910  0.7547 -2.4068
12091TIP3   OH257763   5.840   5.400   4.995 -0.0736  0.0884 -0.4960
12091TIP3    H157764   5.770   5.375   4.934  1.3514 -0.7417 -1.8638
12091TIP3    H257765   5.887   5.319   5.013  1.4618  0.8666 -0.8307
12092TIP3   OH257766   1.336   2.570   5.577 -0.1601  0.2471  0.3370
12092TIP3    H157767   1.251   2.548   5.541  0.3746 -0.0817 -0.7806
12092TIP3    H257768   1.375   2.630   5.513  0.2768  0.7418  1.0418
12093TIP3   OH257769   2.341   5.421  15.119  0.0235 -0.2561 -0.3055
12093TIP3    H157770   2.258   5.467  15.128  0.2231 -0.0359  0.4607
12093TIP3    H257771   2.363   5.428  15.026 -0.8489 -0.3822 -0.5257
12094TIP3   OH257772   6.324   1.229   0.456  0.1097  0.0165  0.5310
12094TIP3    H157773   6.384   1.292   0.418  0.6609 -1.3637 -1.0395
12094TIP3    H257774   6.361   1.208   0.542 -0.7697  2.6811  1.6698
12095TIP3   OH257775   1.542   5.469   3.719  0.4256 -0.0554 -0.2396
12095TIP3    H157776   1.619   5.464   3.662 -0.4296 -1.7652 -1.3449
12095TIP3    H257777   1.502   5.554   3.698  2.5853  1.4355  1.2429
12096TIP3   OH257778   2.102   6.812  12.796  0.2517  0.2732 -0.6402
12096TIP3    H157779   2.013   6.778  12.806  0.4693 -0.0056  0.5010
12096TIP3    H257780   2.090   6.903  12.769 -0.3714  0.1325 -0.8647
12097TIP3   OH257781   0.222   2.554  12.330  0.7867 -0.5016 -0.1068
12097TIP3    H157782   0.251   2.598  12.410  0.9008 -1.9605  0.6842
12097TIP3    H257783   0.138   2.594  12.310  0.9320  0.1429  0.5162
12098TIP3   OH257784   0.014   6.202  14.267 -0.2116 -0.1091 -0.2164
12098TIP3    H157785  -0.003   6.270  14.201  2.3470  1.1517  0.3038
12098TIP3    H257786  -0.042   6.226  14.341 -0.1601  0.8025 -0.4572
12099TIP3   OH257787   2.181   1.697  14.477  0.2360 -0.2738 -0.1842
12099TIP3    H157788   2.182   1.786  14.511  2.0970  0.5908 -2.2458
12099TIP3    H257789   2.266   1.661  14.501 -1.0785 -2.2010  2.0678
12100TIP3   OH257790   0.666   6.456  15.191 -0.0146 -0.5733  0.7251
12100TIP3    H157791   0.675   6.434  15.284 -1.5280 -3.1823  0.3650
12100TIP3    H257792   0.749   6.430  15.151  0.5995  0.4555  1.2708
12101TIP3   OH257793   3.995   2.744  14.196 -0.0015 -0.4933  0.3489
12101TIP3    H157794   4.016   2.835  14.217  0.8107 -0.3584 -0.9322
12101TIP3    H257795   4.059   2.693  14.245 -0.3802 -0.3816  0.9729
12102TIP3   OH257796   0.529   4.634   5.634  0.6479 -0.1296 -0.6327
12102TIP3    H157797   0.518   4.598   5.545  0.4734  0.5725 -0.9025
12102TIP3    H257798   0.603   4.585   5.670 -0.4487 -1.7423 -0.4626
12103TIP3   OH257799   0.128   1.084   3.652 -0.0140  0.3732 -0.3839
12103TIP3    H157800   0.168   1.004   3.688 -0.9064  0.2308  0.3375
12103TIP3    H257801   0.075   1.118   3.724 -0.9733  0.6963 -1.2203
12104TIP3   OH257802   4.515   3.376   2.934 -0.1329 -0.0382  0.6272
12104TIP3    H157803   4.576   3.448   2.919 -0.5015 -0.1733 -2.0808
12104TIP3    H257804   4.481   3.391   3.021  2.0344  1.3367  1.3282
12105TIP3   OH257805   1.894   2.113   2.728  0.3120 -0.3694 -0.4099
12105TIP3    H157806   1.814   2.144   2.771  0.8368 -0.9443  1.0461
12105TIP3    H257807   1.945   2.073   2.799  0.7518 -2.3349 -1.7719
12106TIP3   OH257808   6.158   1.125   5.239  0.4595  0.7256  0.4125
12106TIP3    H157809   6.208   1.178   5.301  0.1027  0.9185  0.5369
12106TIP3    H257810   6.181   1.035   5.260 -0.4985  0.7218  1.5681
12107TIP3   OH257811   6.671   5.217   1.561 -0.0457 -0.2488  0.0894
12107TIP3    H157812   6.684   5.157   1.488  2.6828  1.2035 -0.7334
12107TIP3    H257813   6.713   5.175   1.636  0.9160  0.1258 -0.2293
12108TIP3   OH257814   3.607   0.680  15.250  0.4772  0.1805 -0.0436
12108TIP3    H157815   3.538   0.742  15.226  0.6727  0.5766  0.4041
12108TIP3    H257816   3.673   0.690  15.181 -0.3347 -0.9027 -1.0116
12109TIP3   OH257817   5.741   0.626  12.499  0.0513 -0.1803  0.1114
12109TIP3    H157818   5.730   0.567  12.574  0.8076 -0.2512  0.1715
12109TIP3    H257819   5.804   0.691  12.529 -1.1327  0.9604  0.2090
12110TIP3   OH257820   3.285   1.983   1.019  0.1776  0.1934 -0.2813
12110TIP3    H157821   3.312   2.005   0.930 -3.0355  1.4885 -1.0620
12110TIP3    H257822   3.202   1.938   1.009 -0.4872  0.7572  2.0911
12111TIP3   OH257823   1.291   6.247  15.050  0.1130 -0.2785  0.6517
12111TIP3    H157824   1.200   6.236  15.026  0.0702  0.6062  0.3825
12111TIP3    H257825   1.303   6.342  15.057  1.0954 -0.3662  0.3349
12112TIP3   OH257826   1.565   6.049  12.394 -0.1809  0.7103 -0.1148
12112TIP3    H157827   1.595   6.119  12.451 -2.3053  0.7055  1.1096
12112TIP3    H257828   1.538   5.979  12.453  0.7235 -0.6794 -1.2730
12113TIP3   OH257829   1.672   2.949  11.388 -0.0730  0.8605 -0.2159
12113TIP3    H157830   1.583   2.929  11.359  0.2635  0.0947 -0.7637
12113TIP3    H257831   1.708   2.864  11.413  0.6314  1.1130 -0.3572
12114TIP3   OH257832   4.971   4.772   4.899 -0.2535 -0.4525  0.0976
12114TIP3    H157833   5.036   4.818   4.953  0.0352 -1.5454  0.7133
12114TIP3    H257834   4.892   4.770   4.952 -1.2977  2.0845 -1.1864
12115TIP3   OH257835   2.248   6.690   3.918 -0.4598  0.6471  0.6382
12115TIP3    H157836   2.291   6.766   3.959 -1.7987  1.9871 -0.3199
12115TIP3    H257837   2.174   6.728   3.871 -1.3103 -1.3194  0.3205
12116TIP3   OH257838   3.280   5.887  16.868 -0.0215 -0.0570 -0.0830
12116TIP3    H157839   3.243   5.974  16.854  3.5153  1.9999  1.9262
12116TIP3    H257840   3.338   5.873  16.794 -0.0845 -0.4097 -0.0674
12117TIP3   OH257841   0.546   6.617   5.579  0.4540  0.5365 -0.1816
12117TIP3    H157842   0.479   6.685   5.594  0.8304  0.7898  0.3919
12117TIP3    H257843   0.566   6.584   5.667 -0.3372 -0.9298 -0.5146
12118TIP3   OH257844   2.542   1.350   5.618 -0.7418  0.0349 -0.6722
12118TIP3    H157845   2.588   1.318   5.540 -0.9167 -0.5276 -0.5513
12118TIP3    H257846   2.509   1.270   5.660  0.8752  0.1632  0.9565
12119TIP3   OH257847   5.867   2.330   1.227  0.4516  0.0545  0.1193
12119TIP3    H157848   5.900   2.413   1.260  0.3993 -0.2313  0.8970
12119TIP3    H257849   5.912   2.319   1.143  1.9921 -0.0761  0.9138
12120TIP3   OH257850   1.671   6.586  12.551 -0.1190  0.7168 -0.1147
12120TIP3    H157851   1.747   6.564  12.604 -0.0535  0.5869 -0.2631
12120TIP3    H257852   1.596   6.562  12.606 -0.0667  1.5247  0.3317
12121TIP3   OH257853   1.971   3.556  13.508  0.4111 -0.5835  0.7896
12121TIP3    H157854   2.011   3.637  13.540  1.3910 -0.8778  0.3395
12121TIP3    H257855   2.041   3.511  13.460 -0.3101 -1.3726  0.4397
12122TIP3   OH257856   1.196   1.519   1.218 -0.0462  0.0091  0.1395
12122TIP3    H157857   1.173   1.599   1.265  0.6391 -0.0839  0.6405
12122TIP3    H257858   1.112   1.485   1.187 -0.2344  1.6928 -1.3633
12123TIP3   OH257859   1.717   5.139   4.892  0.7270 -0.2127 -0.0546
12123TIP3    H157860   1.641   5.108   4.843 -0.7984 -0.3848  2.2479
12123TIP3    H257861   1.786   5.077   4.871 -0.4634 -1.4877 -0.3935
12124TIP3   OH257862   0.834   4.721  12.790 -0.4586  0.4154  0.1419
12124TIP3    H157863   0.748   4.760  12.774 -0.9169 -1.0989 -1.2969
12124TIP3    H257864   0.819   4.655  12.857  0.1095  1.8237  1.7416
12125TIP3   OH257865   2.806   3.383   3.954  0.1224 -0.7907  0.1361
12125TIP3    H157866   2.726   3.418   3.992  0.4587 -2.3975  2.5603
12125TIP3    H257867   2.841   3.454   3.900 -1.8580  0.6424  0.6369
12126TIP3   OH257868   1.764   3.148   1.007  0.5718 -0.2866 -0.4120
12126TIP3    H157869   1.827   3.175   0.941  1.3778 -0.3228  0.3300
12126TIP3    H257870   1.806   3.168   1.090  0.9144 -3.0385  0.1906
12127TIP3   OH257871   1.320   0.059   1.490  0.3130  0.0759  0.0964
12127TIP3    H157872   1.373   0.010   1.553  2.5847 -0.4049 -2.0545
12127TIP3    H257873   1.375   0.066   1.412 -1.9271  1.6498 -1.4685
12128TIP3   OH257874   5.437   5.077   0.267 -0.2992  0.1248 -0.6142
12128TIP3    H157875   5.445   5.155   0.212 -0.7991  1.6174  1.3077
12128TIP3    H257876   5.353   5.088   0.312  0.6075 -0.3698  1.3200
12129TIP3   OH257877   3.928   4.821   1.017 -0.0345  0.3975  0.3122
12129TIP3    H157878   3.991   4.889   0.993 -0.1158 -0.1153 -1.5284
12129TIP3    H257879   3.925   4.763   0.941  0.7082 -2.2171  2.1252
12130TIP3   OH257880   6.402   2.873   4.872 -0.1283  0.8358  0.2195
12130TIP3    H157881   6.328   2.828   4.831  0.2822  0.1358  0.2223
12130TIP3    H257882   6.387   2.966   4.855 -0.3573  0.6116 -0.8585
12131TIP3   OH257883   3.565   3.779   3.590 -0.8911 -0.2165 -0.3568
12131TIP3    H157884   3.524   3.806   3.507 -1.1133  0.0972 -0.1455
12131TIP3    H257885   3.493   3.742   3.641 -1.1270  1.2501  0.4126
12132TIP3   OH257886   1.860   6.613  12.040 -0.3608 -0.7606  0.6327
12132TIP3    H157887   1.951   6.618  12.069  0.1123 -2.2210 -0.4771
12132TIP3    H257888   1.810   6.599  12.120  0.4598 -0.5576  1.1884
12133TIP3   OH257889   6.591   5.633  12.874 -0.2520  0.7450 -0.7806
12133TIP3    H157890   6.608   5.542  12.899  0.2149  1.0808  0.1958
12133TIP3    H257891   6.635   5.644  12.790 -0.4386  0.0336 -0.9778
12134TIP3   OH257892   4.692   0.818   0.004  0.6136 -0.3908  0.8320
12134TIP3    H157893   4.618   0.757   0.001 -0.5488  0.9638  0.6056
12134TIP3    H257894   4.662   0.888   0.061  1.5141  0.4517  0.2882
12135TIP3   OH257895   4.509   3.378  13.020  0.2242 -0.0704 -0.3574
12135TIP3    H157896   4.435   3.429  13.052 -0.4336 -0.8580 -0.5725
12135TIP3    H257897   4.533   3.419  12.937  0.5700  0.6917  0.1165
12136TIP3   OH257898   3.840   1.033   0.411 -0.0317 -0.1116 -0.6755
12136TIP3    H157899   3.850   1.084   0.491  2.3774 -1.4481 -0.0038
12136TIP3    H257900   3.847   0.942   0.440  0.8700 -0.6357 -2.3838
12137TIP3   OH257901   2.555   1.642  16.912 -0.1080 -0.4767  0.3563
12137TIP3    H157902   2.585   1.576  16.975 -1.0440 -1.1276  0.1432
12137TIP3    H257903   2.463   1.620  16.897  0.3633 -1.0390 -2.1252
12138TIP3   OH257904   3.439   6.069  11.784  0.0939  0.0964 -0.4594
12138TIP3    H157905   3.470   6.029  11.866 -1.0037 -1.5733 -0.8099
12138TIP3    H257906   3.507   6.046  11.720  0.1012 -0.0902 -0.3861
12139TIP3   OH257907   4.397   0.536  11.320  0.3095 -0.6236  0.9967
12139TIP3    H157908   4.454   0.520  11.395  0.2747 -0.1981  1.1178
12139TIP3    H257909   4.400   0.455  11.270  1.8337 -0.2800  0.4741
12140TIP3   OH257910   0.767   1.674   3.353 -0.0056  0.6097 -0.3623
12140TIP3    H157911   0.735   1.710   3.436  0.1501 -1.1664  0.5203
12140TIP3    H257912   0.713   1.596   3.338  0.5485  0.4204 -1.4832
12141TIP3   OH257913   3.139   0.040   3.801  0.2327 -0.0260 -0.2469
12141TIP3    H157914   3.080  -0.014   3.749 -1.2454  0.2836  1.0110
12141TIP3    H257915   3.209   0.064   3.741 -0.6160 -0.9007 -1.6477
12142TIP3   OH257916   6.640   5.933  14.156 -0.7128 -0.0670 -0.3114
12142TIP3    H157917   6.721   5.925  14.206 -1.5021 -0.2162  1.0044
12142TIP3    H257918   6.668   5.950  14.066  0.7614  1.3178  0.3612
12143TIP3   OH257919   6.425   3.679   2.942  0.0135  0.0966  0.6125
12143TIP3    H157920   6.347   3.641   2.902 -0.1375  2.0359 -1.1087
12143TIP3    H257921   6.498   3.643   2.892  0.3410 -1.8951  2.3674
12144TIP3   OH257922   3.029   1.821  11.791  0.3711  0.1829  0.0261
12144TIP3    H157923   2.956   1.798  11.850 -1.5395  1.4868 -1.6901
12144TIP3    H257924   3.054   1.738  11.751 -2.1858 -0.0012 -1.4455
12145TIP3   OH257925   3.101   4.475   0.477 -0.3267 -0.1390 -0.0094
12145TIP3    H157926   3.075   4.452   0.566  2.1179  1.9010  1.3801
12145TIP3    H257927   3.196   4.462   0.475 -0.0857  1.3925 -1.7760
12146TIP3   OH257928   6.731   5.267   0.998  0.3283 -0.0194 -0.6099
12146TIP3    H157929   6.795   5.211   1.042  0.2895  0.1784 -0.2981
12146TIP3    H257930   6.711   5.221   0.916 -0.6140 -1.0565  0.1831
12147TIP3   OH257931   1.619   4.818   3.582  0.1052 -0.3544 -0.5274
12147TIP3    H157932   1.593   4.878   3.512  1.3594  0.6989 -0.1357
12147TIP3    H257933   1.660   4.874   3.648  0.3472 -1.5165  0.3525
12148TIP3   OH257934   4.540   4.247   4.974 -0.1324  0.3542  0.6282
12148TIP3    H157935   4.610   4.275   4.915 -0.0206 -1.0926  0.0206
12148TIP3    H257936   4.582   4.188   5.036 -0.7370 -0.2877  0.4460
12149TIP3   OH257937   2.093   3.019  12.692  0.4265  0.6324 -0.2349
12149TIP3    H157938   2.003   3.018  12.724  0.7180  1.1014  0.6280
12149TIP3    H257939   2.106   2.932  12.654 -0.4264  0.6073 -0.4917
12150TIP3   OH257940   5.630   3.147  16.851  0.0722  0.1580 -0.5102
12150TIP3    H157941   5.655   3.133  16.759 -0.0868  0.5689 -0.6157
12150TIP3    H257942   5.680   3.081  16.899  0.0672 -0.1396 -0.9045
12151TIP3   OH257943   4.348   3.410   3.165 -0.5226  0.5467 -0.0305
12151TIP3    H157944   4.357   3.477   3.233  0.5084  0.2636  0.1351
12151TIP3    H257945   4.262   3.425   3.127 -0.4631  1.7260  0.2648
12152TIP3   OH257946   4.919   2.158   1.197 -0.6207  0.5352  0.2985
12152TIP3    H157947   4.852   2.101   1.160 -0.5467  1.4395 -1.3286
12152TIP3    H257948   4.920   2.234   1.139 -0.2933  1.9291  2.0327
12153TIP3   OH257949   1.091   3.046   6.124 -0.0686 -0.4312 -0.0759
12153TIP3    H157950   1.097   2.971   6.184 -0.4082 -0.9911 -0.7287
12153TIP3    H257951   0.998   3.070   6.126 -0.3975 -1.4268 -1.5124
12154TIP3   OH257952   4.051   0.314  15.724 -0.2392  0.1880 -0.1726
12154TIP3    H157953   4.032   0.221  15.716 -1.6392  0.3143  1.2079
12154TIP3    H257954   4.021   0.352  15.642  1.1830 -0.6654 -1.1274
12155TIP3   OH257955   6.512   2.261   1.078 -0.3360  0.3199 -0.1840
12155TIP3    H157956   6.566   2.264   1.157 -0.9224  0.4284  0.2131
12155TIP3    H257957   6.536   2.340   1.030 -2.4113  2.1009  1.5113
12156TIP3   OH257958   4.388   0.150   1.175  0.1005 -0.3679 -0.2470
12156TIP3    H157959   4.378   0.066   1.220  1.8816 -0.6827 -0.3567
12156TIP3    H257960   4.315   0.203   1.207 -0.1709 -1.4386  1.0130
12157TIP3   OH257961   3.411   5.417  11.349 -0.0056  0.2857  0.2640
12157TIP3    H157962   3.382   5.417  11.257 -0.2418 -2.1123  0.2933
12157TIP3    H257963   3.329   5.412  11.399  0.0813  2.2058  0.6914
12158TIP3   OH257964   5.417   5.291  10.968 -0.2588 -1.0005 -0.1088
12158TIP3    H157965   5.447   5.381  10.958  0.5156 -1.4672 -3.4070
12158TIP3    H257966   5.322   5.297  10.968 -0.2944 -0.0717  2.6583
12159TIP3   OH257967   5.792   4.429   0.058 -0.0506 -0.5609 -0.0693
12159TIP3    H157968   5.746   4.383   0.128  0.9190  1.3841  1.9261
12159TIP3    H257969   5.757   4.518   0.060  0.8448 -0.1544 -1.2814
12160TIP3   OH257970   4.998   5.928   4.232  0.0988  0.1576 -0.0486
12160TIP3    H157971   5.090   5.904   4.248  0.5393  1.0205 -1.1580
12160TIP3    H257972   5.001   6.021   4.209 -1.1411  0.3575  0.4934
12161TIP3   OH257973   3.004   0.755   2.547  0.0456  0.0231 -0.1801
12161TIP3    H157974   2.965   0.669   2.535 -1.8180  0.8076 -0.1182
12161TIP3    H257975   2.950   0.797   2.614 -0.4910  2.0136 -1.7534
12162TIP3   OH257976   2.886   4.825  16.464 -0.2514  0.2231 -0.2451
12162TIP3    H157977   2.954   4.874  16.511 -0.6751  0.2866  0.3165
12162TIP3    H257978   2.888   4.738  16.503  0.6425 -0.2944 -1.3836
12163TIP3   OH257979   0.062   1.716   1.737  0.1255 -0.5554  0.1472
12163TIP3    H157980   0.087   1.760   1.656 -1.4836  0.9722  0.4071
12163TIP3    H257981  -0.025   1.680   1.719 -1.2805  1.7410  1.7668
12164TIP3   OH257982   3.373   1.443  13.522 -0.7485 -0.1897 -0.6774
12164TIP3    H157983   3.424   1.362  13.515 -1.5177 -0.6037 -1.7143
12164TIP3    H257984   3.418   1.505  13.465 -1.5944 -0.6736 -1.9056
12165TIP3   OH257985   5.093   6.590  11.881  0.0516 -0.2293  0.0872
12165TIP3    H157986   5.187   6.580  11.865 -0.0560  0.1070 -0.8114
12165TIP3    H257987   5.052   6.562  11.799 -0.4982  2.0660 -0.4890
12166TIP3   OH257988   3.400   5.196  13.943  0.5689  0.4810  0.1640
12166TIP3    H157989   3.476   5.219  13.889  0.5945  2.7536  1.0678
12166TIP3    H257990   3.325   5.210  13.886  0.7194  0.2076 -0.1058
12167TIP3   OH257991   0.429   0.723   4.022 -0.0292 -0.3514  0.2303
12167TIP3    H157992   0.340   0.698   4.048 -0.1113 -0.5647 -0.2527
12167TIP3    H257993   0.449   0.666   3.948  0.6493 -0.5628  0.5666
12168TIP3   OH257994   6.046   2.413  15.704  0.2029  0.5241  0.3464
12168TIP3    H157995   6.121   2.354  15.700 -0.3745 -0.2019 -0.0812
12168TIP3    H257996   5.989   2.374  15.771 -0.5229  0.1735 -0.4631
12169TIP3   OH257997   1.452   4.051   5.818  0.9624 -0.2077  0.9464
12169TIP3    H157998   1.522   4.073   5.880  0.2429  0.7846  1.4435
12169TIP3    H257999   1.488   4.072   5.732  0.4322  2.8668  1.3605
12170TIP3   OH258000   1.024   3.788  12.694  0.8454  0.1005  0.2223
12170TIP3    H158001   0.977   3.706  12.702 -0.9938  1.0287 -0.4666
12170TIP3    H258002   1.000   3.838  12.772 -1.5894  1.6093 -1.3390
12171TIP3   OH258003   4.685   4.801  16.954 -0.5422  0.0089 -0.7121
12171TIP3    H158004   4.670   4.717  16.909  1.5164 -0.1483 -1.1946
12171TIP3    H258005   4.754   4.782  17.018 -2.4107  0.5861  1.6087
12172TIP3   OH258006   4.960   5.353   4.569 -0.1345  0.2995  0.2357
12172TIP3    H158007   4.926   5.428   4.521  0.0110 -0.8567 -1.8025
12172TIP3    H258008   4.882   5.300   4.588  0.0787 -0.7402 -1.5347
12173TIP3   OH258009   4.072   6.392  13.749 -0.8030  0.3622  0.4044
12173TIP3    H158010   4.035   6.314  13.707  0.1605 -0.0279  0.2524
12173TIP3    H258011   4.055   6.379  13.842  0.8883 -0.9172  0.5799
12174TIP3   OH258012   4.615   5.348  16.581 -0.2818  0.1263  0.1181
12174TIP3    H158013   4.583   5.430  16.619  0.3235 -0.3877  1.8290
12174TIP3    H258014   4.548   5.283  16.604  0.2309 -0.2474  0.5851
12175TIP3   OH258015   6.721   0.654   0.405  0.4785 -0.0622 -0.3970
12175TIP3    H158016   6.744   0.619   0.491  1.2750 -0.9826 -0.9564
12175TIP3    H258017   6.779   0.729   0.393  1.3944 -0.7913 -0.7020
12176TIP3   OH258018   2.415   3.248  14.971 -0.2717  0.1092  0.3879
12176TIP3    H158019   2.350   3.198  14.920  0.7984 -0.5154 -0.3978
12176TIP3    H258020   2.471   3.288  14.905  1.8903 -1.6795  1.0104
12177TIP3   OH258021   1.614   4.833  17.197  0.0286 -0.4350 -0.1350
12177TIP3    H158022   1.676   4.893  17.236 -0.3641  0.0337 -0.2196
12177TIP3    H258023   1.586   4.777  17.269  0.6107 -0.7117 -0.1174
12178TIP3   OH258024   5.129   0.843   5.592  0.2139 -0.2239 -0.3089
12178TIP3    H158025   5.167   0.929   5.575 -0.7391 -0.2147 -2.9434
12178TIP3    H258026   5.200   0.792   5.630  1.0672  1.4476  0.4239
12179TIP3   OH258027   4.074   5.600   4.390  0.4959  0.3354 -0.8714
12179TIP3    H158028   4.164   5.567   4.399  1.0986  2.0614 -0.1969
12179TIP3    H258029   4.033   5.539   4.329  2.8859  0.9643 -3.3430
12180TIP3   OH258030   0.836   3.281  15.631  0.0220 -0.1760 -0.1100
12180TIP3    H158031   0.766   3.346  15.624  0.4518  0.2563 -0.4690
12180TIP3    H258032   0.807   3.221  15.699 -0.6689  0.0376 -0.2141
12181TIP3   OH258033   5.758   2.810   4.516  0.1399 -0.7180  0.5809
12181TIP3    H158034   5.745   2.832   4.608  0.0780 -3.5202  1.3461
12181TIP3    H258035   5.795   2.889   4.477  0.0367  0.5928  2.9640
12182TIP3   OH258036   0.970   0.943   6.268 -0.3448 -0.6786 -0.1784
12182TIP3    H158037   1.059   0.945   6.303 -0.3096 -0.3498 -0.2876
12182TIP3    H258038   0.931   0.865   6.308 -0.3482 -0.2443  0.7070
12183TIP3   OH258039   6.249   0.154   4.491  0.2169 -0.5166 -0.3011
12183TIP3    H158040   6.338   0.183   4.515 -0.7599  2.3888  0.2211
12183TIP3    H258041   6.249   0.154   4.395  0.8907 -0.8809 -0.3050
12184TIP3   OH258042   1.296   5.018   1.935 -0.0191  1.0403 -0.4322
12184TIP3    H158043   1.284   4.928   1.963 -1.3607  1.7129  1.3834
12184TIP3    H258044   1.265   5.020   1.844  0.2256 -0.3463 -0.5544
12185TIP3   OH258045   3.419   4.206   0.996 -0.2532  0.0406 -0.0701
12185TIP3    H158046   3.365   4.227   0.920 -1.0857 -0.3369  0.4155
12185TIP3    H258047   3.426   4.287   1.045 -1.1038 -0.1190  0.3190
12186TIP3   OH258048   0.778   2.544   1.858 -0.6553  0.1283  0.3528
12186TIP3    H158049   0.825   2.615   1.903  0.5031 -1.0033  1.0008
12186TIP3    H258050   0.787   2.565   1.765 -0.8017  1.1103  0.5470
12187TIP3   OH258051   1.963   5.624  11.261 -0.6420  0.4313  0.1383
12187TIP3    H158052   1.990   5.541  11.221 -0.1244  0.3379  0.6720
12187TIP3    H258053   1.995   5.691  11.200 -1.1498  0.2410 -0.3441
12188TIP3   OH258054   2.289   2.438  13.245  0.2996  0.1724 -0.1513
12188TIP3    H158055   2.317   2.378  13.176  0.3875  0.3602 -0.2782
12188TIP3    H258056   2.356   2.429  13.313  0.1672 -0.0757 -0.0520
12189TIP3   OH258057   3.835   1.712  12.012  0.2787  0.9684 -0.2080
12189TIP3    H158058   3.761   1.756  12.053 -0.3524 -0.6239  0.4621
12189TIP3    H258059   3.903   1.711  12.080 -1.0455 -2.3856  1.2705
12190TIP3   OH258060   0.795   5.415   3.129  0.1390 -0.5652  0.1014
12190TIP3    H158061   0.817   5.386   3.041 -0.2403  1.3697 -0.6643
12190TIP3    H258062   0.706   5.448   3.122 -0.0730 -0.8186  1.3411
12191TIP3   OH258063   3.263   4.919   4.064  0.3387 -0.1090 -0.9221
12191TIP3    H158064   3.281   5.004   4.024 -0.3211  0.0839 -0.8326
12191TIP3    H258065   3.169   4.920   4.080  0.5096 -0.3766  0.1829
12192TIP3   OH258066   2.336   0.677  16.675 -0.0091  0.3081 -0.1702
12192TIP3    H158067   2.255   0.626  16.675 -0.6066  1.1629 -2.4099
12192TIP3    H258068   2.401   0.620  16.634 -0.0446  0.4123 -0.3756
12193TIP3   OH258069   4.920   3.584   1.951 -0.4304 -0.3324  0.0200
12193TIP3    H158070   4.850   3.594   1.887 -0.7848  1.2229  0.6085
12193TIP3    H258071   4.990   3.640   1.919 -0.1831 -0.4085  0.4204
12194TIP3   OH258072   4.577   4.650  13.304  0.0710 -0.1642 -0.1179
12194TIP3    H158073   4.672   4.642  13.297  0.2770  1.2016  0.6384
12194TIP3    H258074   4.564   4.726  13.361 -1.4752 -0.6810  0.2665
12195TIP3   OH258075   5.461   4.848   4.475  0.3251  0.2481 -0.4497
12195TIP3    H158076   5.410   4.928   4.472  1.8433  1.3624  1.3317
12195TIP3    H258077   5.540   4.867   4.425 -0.3200 -0.9774 -2.0106
12196TIP3   OH258078   5.782   1.840   0.971  0.1299 -0.6336  0.2800
12196TIP3    H158079   5.842   1.897   1.019 -1.2061  2.1740 -1.1040
12196TIP3    H258080   5.839   1.786   0.916  1.4638 -0.3619  1.3387
12197TIP3   OH258081   5.154   6.166  16.192  0.6082  0.4291  0.2030
12197TIP3    H158082   5.152   6.232  16.124  1.5558  0.6712  0.3917
12197TIP3    H258083   5.196   6.090  16.151  0.1167  0.1613  0.1800
12198TIP3   OH258084   0.976   3.752   1.557  0.1358  0.6045  0.2692
12198TIP3    H158085   0.899   3.748   1.499  1.2982  1.8313 -1.4458
12198TIP3    H258086   0.940   3.776   1.642 -1.5849 -0.7620  0.0060
12199TIP3   OH258087   3.221   3.515  12.706  0.4014 -0.1108  0.1758
12199TIP3    H158088   3.196   3.607  12.708 -3.3024 -0.9251 -1.3174
12199TIP3    H258089   3.234   3.491  12.798  1.0721  1.7564  0.6116
12200TIP3   OH258090   4.823   0.985   6.087 -0.1229 -0.1563  1.0094
12200TIP3    H158091   4.836   0.915   6.151  0.5689 -0.6482  0.3615
12200TIP3    H258092   4.732   1.012   6.099 -0.7036 -1.8133  0.6550
12201TIP3   OH258093   1.669   3.973   4.281 -0.3657  0.1950  0.5609
12201TIP3    H158094   1.673   4.052   4.228  1.3872 -1.6617 -2.3589
12201TIP3    H258095   1.605   3.918   4.237 -0.3566 -0.6561  1.5773
12202TIP3   OH258096   2.030   3.201  14.569  0.0232  0.3367 -0.4153
12202TIP3    H158097   2.104   3.254  14.542  0.8630  0.2595  1.5740
12202TIP3    H258098   2.017   3.223  14.662 -1.4845 -0.7469 -0.3318
12203TIP3   OH258099   6.177   0.520  12.913  0.0582 -0.4923 -0.6720
12203TIP3    H158100   6.228   0.581  12.860  1.2945  2.0988  3.0941
12203TIP3    H258101   6.087   0.531  12.881  0.7933  0.4105 -2.6158
12204TIP3   OH258102   1.459   1.132  16.862  0.4373  0.2035  0.1964
12204TIP3    H158103   1.452   1.046  16.819  1.6844 -0.0313  0.4450
12204TIP3    H258104   1.552   1.144  16.879  0.5003  2.3551 -1.3149
12205TIP3   OH258105   3.181   2.416  10.551 -0.4380 -0.1700 -0.1415
12205TIP3    H158106   3.224   2.408  10.637 -1.8665  0.1343  0.6334
12205TIP3    H258107   3.167   2.325  10.523  1.1274 -0.2815 -0.6534
12206TIP3   OH258108   3.957   4.832   3.680 -0.1256  1.3470  0.1894
12206TIP3    H158109   3.977   4.925   3.679 -0.8801  1.5189  0.3009
12206TIP3    H258110   3.926   4.813   3.591  0.0189  1.1994  0.1689
12207TIP3   OH258111   4.488   2.675  16.818  0.1049 -0.9183 -0.2508
12207TIP3    H158112   4.436   2.688  16.738  0.1841 -0.7261 -0.2740
12207TIP3    H258113   4.573   2.646  16.785  0.5195  0.2965 -0.3168
12208TIP3   OH258114   3.301   5.550   6.103  0.0446  0.4569  0.0329
12208TIP3    H158115   3.225   5.597   6.069  1.0347  1.7209 -0.5219
12208TIP3    H258116   3.280   5.533   6.195 -0.1578  2.4248  0.3758
12209TIP3   OH258117   5.318   0.576   4.777 -0.3296 -0.2180  0.0258
12209TIP3    H158118   5.307   0.481   4.780 -0.7205 -0.1867 -0.3529
12209TIP3    H258119   5.300   0.604   4.867  1.8662 -0.7023  0.6877
12210TIP3   OH258120   2.937   5.392   4.592  0.5732  0.2597 -0.1878
12210TIP3    H158121   2.881   5.354   4.524  0.0137 -1.5013  1.1754
12210TIP3    H258122   2.991   5.456   4.546 -0.7926  0.1780 -2.0064
12211TIP3   OH258123   1.301   1.929   3.300 -0.4627  0.5046 -0.2443
12211TIP3    H158124   1.218   1.937   3.252 -0.3176  1.1144 -0.3926
12211TIP3    H258125   1.313   2.014   3.342 -0.9063 -0.1989  1.4089
12212TIP3   OH258126   1.404   4.345   4.662  0.3046 -0.6908 -0.3114
12212TIP3    H158127   1.468   4.313   4.598  2.5969  1.3085  0.8045
12212TIP3    H258128   1.422   4.292   4.740 -0.1104 -0.7894 -0.2843
12213TIP3   OH258129   0.025   3.125   2.650 -0.1233  0.3353 -0.3538
12213TIP3    H158130   0.037   3.123   2.745  0.9497  0.0154 -0.4774
12213TIP3    H258131   0.073   3.202   2.621 -0.0757  0.1878 -0.6756
12214TIP3   OH258132   1.867   5.977  13.213 -0.3002  0.3159 -0.0419
12214TIP3    H158133   1.801   5.992  13.281 -0.9486  1.1126 -0.8241
12214TIP3    H258134   1.880   5.883  13.213 -0.0274  0.3320  1.4287
12215TIP3   OH258135   3.942   0.406  14.048 -0.2324  0.0241  0.7010
12215TIP3    H158136   3.851   0.390  14.022  0.1720 -0.8885 -0.2189
12215TIP3    H258137   3.964   0.489  14.005  0.2861 -1.2476 -1.6261
12216TIP3   OH258138   1.071   6.298   2.590  1.0236 -0.9138 -0.1296
12216TIP3    H158139   1.116   6.335   2.515 -1.5502 -0.7014 -1.7141
12216TIP3    H258140   0.997   6.358   2.606  0.3269 -2.0492  1.2535
12217TIP3   OH258141   4.498   2.174   5.626 -0.2127 -0.3333 -0.0381
12217TIP3    H158142   4.503   2.265   5.597 -0.6424  0.1595  1.3398
12217TIP3    H258143   4.497   2.180   5.722  1.3503 -1.8729  0.1138
12218TIP3   OH258144   2.790   4.345   0.036 -0.1236  0.4153  0.1071
12218TIP3    H158145   2.768   4.438   0.036  0.3955  0.5461 -0.7938
12218TIP3    H258146   2.872   4.340  -0.013  0.2261 -0.4323  0.7656
12219TIP3   OH258147   2.360   4.516   1.728  0.4275 -0.6374 -0.6498
12219TIP3    H158148   2.384   4.505   1.820 -2.2357  0.9725  0.3444
12219TIP3    H258149   2.298   4.446   1.710  1.4568 -1.3714 -1.4879
12220TIP3   OH258150   6.279   4.821  12.182  0.3648  0.2761  0.3222
12220TIP3    H158151   6.372   4.807  12.165  0.1650  0.7346 -1.3788
12220TIP3    H258152   6.253   4.888  12.119 -1.7092 -1.8332 -1.2468
12221TIP3   OH258153   5.579   2.285   0.149 -0.3370 -0.6252 -0.2032
12221TIP3    H158154   5.576   2.271   0.054  0.5003 -0.1438 -0.3159
12221TIP3    H258155   5.553   2.201   0.187 -1.8379 -0.4753 -0.8567
12222TIP3   OH258156   2.583   2.350   2.844  0.1885 -0.6990  0.2631
12222TIP3    H158157   2.607   2.401   2.921  0.1861 -1.8803  1.0699
12222TIP3    H258158   2.541   2.272   2.879 -0.9660 -0.6819 -0.9769
12223TIP3   OH258159   3.361   6.035  17.168  0.3072 -0.0544  0.2045
12223TIP3    H158160   3.350   5.966  17.103 -1.6001  0.5144 -0.1218
12223TIP3    H258161   3.441   6.081  17.140 -0.9760  0.7847 -2.3662
12224TIP3   OH258162   3.672   0.534  11.479 -0.7548 -0.1575  0.0543
12224TIP3    H158163   3.735   0.498  11.541 -0.7434 -1.0785 -0.4767
12224TIP3    H258164   3.620   0.596  11.531  0.4019  0.4202  0.5537
12225TIP3   OH258165   0.003   1.046   3.304 -0.5194  0.4985  0.1508
12225TIP3    H158166   0.069   1.044   3.235  0.2945 -1.6418  0.8909
12225TIP3    H258167  -0.042   1.130   3.293  0.6617  0.9177 -1.9272
12226TIP3   OH258168   5.415   6.028  15.822 -0.0544 -0.2737  0.1969
12226TIP3    H158169   5.361   5.987  15.755  0.5414  0.3431 -0.6791
12226TIP3    H258170   5.503   5.992  15.808  0.0030 -0.4416  0.9088
12227TIP3   OH258171   5.838   2.093   2.997  0.6137 -0.3536 -0.1694
12227TIP3    H158172   5.760   2.148   2.996 -1.2848 -2.7694  1.4279
12227TIP3    H258173   5.835   2.046   2.913 -0.7298 -1.6831  0.5662
12228TIP3   OH258174   5.016   4.789  11.831 -0.4338  0.0375  0.0840
12228TIP3    H158175   4.955   4.723  11.800  1.6522 -1.3443 -1.2848
12228TIP3    H258176   5.000   4.865  11.775  0.1922 -0.8967 -1.4184
12229TIP3   OH258177   0.580   0.791  15.878  0.8673  0.3071  0.1461
12229TIP3    H158178   0.517   0.863  15.881  1.4258  0.8078 -0.1193
12229TIP3    H258179   0.575   0.758  15.788 -1.0095 -1.4609  0.8107
12230TIP3   OH258180   5.916   4.367   2.156 -0.1539  0.1644  0.1773
12230TIP3    H158181   5.929   4.294   2.218 -1.7970 -0.2406  0.0900
12230TIP3    H258182   5.907   4.324   2.071 -1.7868  0.3718  0.2096
12231TIP3   OH258183   0.696   4.455  12.047 -0.3732  0.0033 -0.1516
12231TIP3    H158184   0.677   4.450  12.141  1.0514  1.0900  0.2385
12231TIP3    H258185   0.615   4.486  12.007 -0.6726  0.5714  0.8690
12232TIP3   OH258186   4.913   3.759  14.538  0.1129 -0.3256  0.0111
12232TIP3    H158187   4.999   3.753  14.580  1.2928 -3.3031 -2.4273
12232TIP3    H258188   4.923   3.827  14.472  1.1921 -1.5994 -1.2161
12233TIP3   OH258189   5.525   3.374   2.032 -0.1920 -0.0862  0.1678
12233TIP3    H158190   5.505   3.429   1.955  0.1767  0.6841  0.6153
12233TIP3    H258191   5.528   3.435   2.105  1.2360 -0.5512  0.5301
12234TIP3   OH258192   0.936   4.665  16.383 -0.2999 -0.0322 -0.4757
12234TIP3    H158193   0.984   4.740  16.417 -0.7507 -0.3024  0.7995
12234TIP3    H258194   0.860   4.703  16.339 -0.8801  0.2710  0.7362
12235TIP3   OH258195   4.106   1.735   1.613  1.2434  0.1202 -0.4332
12235TIP3    H158196   4.145   1.755   1.698 -1.9839 -0.0943  1.2737
12235TIP3    H258197   4.050   1.811   1.594  0.1775 -0.8336 -1.2333
12236TIP3   OH258198   1.879   4.573  16.526  0.2441 -0.4985 -0.3516
12236TIP3    H158199   1.857   4.666  16.525 -0.1130 -0.5833 -0.6512
12236TIP3    H258200   1.914   4.557  16.614 -1.2852 -0.4477  0.2980
12237TIP3   OH258201   4.934   0.353  10.668  0.1657 -0.4508  0.4193
12237TIP3    H158202   4.944   0.342  10.574  2.6204 -0.3002  0.5779
12237TIP3    H258203   4.862   0.295  10.692  1.8171 -3.3509 -1.0679
12238TIP3   OH258204   0.668   2.792   4.778 -0.2231  0.0691  0.0992
12238TIP3    H158205   0.610   2.787   4.701 -0.8195 -1.8707  0.6228
12238TIP3    H258206   0.612   2.766   4.851  0.5872  0.9867  1.0629
12239TIP3   OH258207   6.649   3.762  14.277 -0.0780 -0.3081  0.0026
12239TIP3    H158208   6.661   3.667  14.283  0.2644 -0.2091  1.2726
12239TIP3    H258209   6.574   3.774  14.219  0.7498 -1.2950 -1.3355
12240TIP3   OH258210   5.713   0.545   3.327  0.2858  0.1563  0.1835
12240TIP3    H158211   5.707   0.635   3.359  3.5826 -0.8463  4.5521
12240TIP3    H258212   5.624   0.511   3.334 -1.0569  2.9484 -1.6264
12241TIP3   OH258213   3.998   0.089   0.543  0.0825 -0.5793 -0.5382
12241TIP3    H158214   3.919   0.081   0.489  0.9283 -2.2959 -1.6040
12241TIP3    H258215   4.057   0.143   0.491  0.1133 -0.4107 -0.3309
12242TIP3   OH258216   4.763   1.893   0.366  0.1288  0.2012 -0.3420
12242TIP3    H158217   4.790   1.924   0.280  0.7096  1.4607  0.2746
12242TIP3    H258218   4.718   1.968   0.406 -0.2027 -0.3905  0.4225
12243TIP3   OH258219   6.085   5.008   2.024 -0.0719 -0.0526 -0.4598
12243TIP3    H158220   6.003   4.969   2.054  0.3385  0.1843  1.0882
12243TIP3    H258221   6.062   5.055   1.944 -1.4127 -0.1315 -0.1400
12244TIP3   OH258222   6.420   4.290  12.566 -0.5917 -0.6124  0.2135
12244TIP3    H158223   6.354   4.235  12.609  0.0449 -1.1456  0.5200
12244TIP3    H258224   6.488   4.229  12.538 -0.3378 -0.0972 -0.3202
12245TIP3   OH258225   0.790   0.803  13.742  0.0592  0.1015  0.2170
12245TIP3    H158226   0.871   0.813  13.792  0.2139  0.9467 -0.1766
12245TIP3    H258227   0.782   0.885  13.692 -1.7058  0.6204  1.2233
12246TIP3   OH258228   2.634   4.600  16.940 -0.1398 -0.0594  0.2292
12246TIP3    H158229   2.728   4.610  16.955 -0.4810  1.4465  1.6309
12246TIP3    H258230   2.625   4.595  16.845  1.2327  1.2767 -0.0027
12247TIP3   OH258231   1.897   4.994   4.638 -0.8882  0.1202  0.1681
12247TIP3    H158232   1.824   4.938   4.663  0.8769 -2.4452 -0.0071
12247TIP3    H258233   1.970   4.963   4.691 -0.1679  3.5908  1.4708
12248TIP3   OH258234   0.757   3.475   1.591 -0.0580 -0.0728 -0.2402
12248TIP3    H158235   0.693   3.491   1.661  1.6632 -0.6957  1.5836
12248TIP3    H258236   0.764   3.380   1.586  0.2801 -0.0217 -0.8553
12249TIP3   OH258237   1.948   1.759  15.439  0.0523 -0.2665  0.5694
12249TIP3    H158238   1.960   1.854  15.436 -0.2284 -0.2587 -0.7133
12249TIP3    H258239   1.968   1.730  15.351 -1.6795 -1.1821  0.4385
12250TIP3   OH258240   4.374   5.671  13.987  0.2171  0.4584 -0.1857
12250TIP3    H158241   4.322   5.739  14.030 -1.6421 -1.9683  1.6894
12250TIP3    H258242   4.310   5.615  13.943  1.7035 -0.0116 -1.8996
12251TIP3   OH258243   4.634   3.627  13.425  0.3629  0.1227  0.1463
12251TIP3    H158244   4.605   3.711  13.461 -0.0568 -0.6653  1.7437
12251TIP3    H258245   4.554   3.578  13.409  0.6459 -0.3972  0.2919
12252TIP3   OH258246   5.121   5.718   5.248 -0.0568 -0.2637 -0.0817
12252TIP3    H158247   5.203   5.758   5.219 -0.4869  0.4165 -0.3642
12252TIP3    H258248   5.149   5.646   5.305  0.7703 -0.9248 -1.2811
12253TIP3   OH258249   2.851   2.662  11.057 -0.3401  0.2875 -0.1609
12253TIP3    H158250   2.768   2.707  11.038 -0.7468  0.1720  1.2213
12253TIP3    H258251   2.857   2.664  11.152  0.3495 -1.3294 -0.1532
12254TIP3   OH258252   3.564   3.723   1.423 -0.2667 -0.6554  0.0563
12254TIP3    H158253   3.650   3.765   1.421 -0.2643 -0.5351  1.5144
12254TIP3    H258254   3.535   3.732   1.514 -3.2770  2.1945 -1.0032
12255TIP3   OH258255   4.946   6.411  16.575  0.0820 -0.3675  0.1003
12255TIP3    H158256   4.861   6.400  16.617 -0.6905  2.2223 -0.6355
12255TIP3    H258257   4.927   6.461  16.496  2.2996  0.2603 -0.0829
12256TIP3   OH258258   3.061   1.532   0.238  0.2425 -0.2267 -0.2755
12256TIP3    H158259   3.081   1.618   0.201  0.4821 -0.7980 -1.5280
12256TIP3    H258260   3.143   1.483   0.230  0.2189 -0.4549  0.7865
12257TIP3   OH258261   5.777   6.374  12.529  0.6931 -0.1410 -0.4009
12257TIP3    H158262   5.735   6.453  12.494 -0.2948 -0.4282  0.0910
12257TIP3    H258263   5.871   6.389  12.516  0.5473  1.2396 -0.0704
12258TIP3   OH258264   1.898   0.628   1.589  0.3130 -0.0665 -0.2725
12258TIP3    H158265   1.900   0.698   1.523 -0.3289  1.1051  0.8920
12258TIP3    H258266   1.817   0.644   1.638  1.1046 -0.4752  1.2275
12259TIP3   OH258267   2.356   1.461   3.132 -0.0616 -0.5947 -0.5314
12259TIP3    H158268   2.379   1.542   3.177 -3.7236 -0.5317  1.6194
12259TIP3    H258269   2.382   1.476   3.041  2.3337  1.6001  0.3817
12260TIP3   OH258270   1.194   4.951   2.656 -0.2413  0.1883  0.4529
12260TIP3    H158271   1.120   4.905   2.617  0.7672 -0.7319 -0.4739
12260TIP3    H258272   1.176   5.044   2.640  0.3402 -0.1266 -2.8006
12261TIP3   OH258273   3.451   4.115   0.236 -0.2460 -0.5050  0.2825
12261TIP3    H158274   3.530   4.062   0.244  0.0329 -0.6578 -2.4212
12261TIP3    H258275   3.482   4.205   0.248  0.4233 -0.5496 -0.9369
12262TIP3   OH258276   3.171   4.727   1.146 -0.5027 -0.0671 -0.1294
12262TIP3    H158277   3.096   4.785   1.146 -0.9717 -0.6593 -0.4530
12262TIP3    H258278   3.151   4.661   1.080 -0.5087 -1.2634  1.0149
12263TIP3   OH258279   0.231   2.669   1.723  0.1527 -0.3175 -0.2602
12263TIP3    H158280   0.312   2.721   1.729  0.3185 -0.5828 -0.1859
12263TIP3    H258281   0.244   2.598   1.786 -0.3892 -0.0243  0.1947
12264TIP3   OH258282   5.690   1.917  14.420  0.2843  0.4242  0.1302
12264TIP3    H158283   5.760   1.980  14.436 -0.7540  1.7155 -0.1748
12264TIP3    H258284   5.689   1.907  14.325 -0.7328  1.4308 -0.0024
12265TIP3   OH258285   6.357   3.504   4.080  0.2175 -0.1458 -0.4322
12265TIP3    H158286   6.371   3.434   4.145 -2.5075 -0.3103  0.1155
12265TIP3    H258287   6.352   3.584   4.132 -1.9677 -0.2758 -0.3446
12266TIP3   OH258288   1.825   3.550   5.484 -0.0186 -0.0386 -0.0665
12266TIP3    H158289   1.852   3.459   5.481  0.3059 -0.0850  2.4704
12266TIP3    H258290   1.730   3.547   5.498 -0.0154  0.0157 -0.0308
12267TIP3   OH258291   6.288   3.169  13.323  0.4009 -0.2471  0.4755
12267TIP3    H158292   6.341   3.106  13.372 -0.8750 -1.6671  0.0750
12267TIP3    H258293   6.282   3.245  13.381  0.4630 -1.1849  1.7421
12268TIP3   OH258294   4.843   4.783   7.086  0.6993 -0.5947  0.0271
12268TIP3    H158295   4.838   4.798   6.991  1.1425 -1.4084 -0.1328
12268TIP3    H258296   4.755   4.753   7.110  0.4089  0.2001 -0.0106
12269TIP3   OH258297   6.758   0.583   0.959 -0.0240  0.6207  0.3284
12269TIP3    H158298   6.747   0.612   1.049  0.6996 -2.7732  1.6749
12269TIP3    H258299   6.852   0.590   0.943  0.3275 -1.4982  1.0298
12270TIP3   OH258300   1.060   2.214  10.895 -1.1497 -0.2052  0.5480
12270TIP3    H158301   1.145   2.184  10.862 -1.6656 -1.4135  0.2670
12270TIP3    H258302   1.068   2.309  10.897 -0.2708 -0.2153 -0.8270
12271TIP3   OH258303   2.067   6.242   3.171  0.3062 -0.0914  0.5654
12271TIP3    H158304   2.099   6.184   3.241  1.4123 -0.1130  0.0723
12271TIP3    H258305   2.062   6.328   3.212 -0.5419 -0.3712  1.0789
12272TIP3   OH258306   0.556   5.045   1.687 -0.0564  0.0871  0.9101
12272TIP3    H158307   0.482   5.048   1.748 -0.9772  0.6339 -0.2109
12272TIP3    H258308   0.591   5.134   1.687  0.8659 -0.2540  1.7169
12273TIP3   OH258309   0.784   4.574   4.709  0.0250  0.6704  0.1191
12273TIP3    H158310   0.845   4.512   4.668 -1.7424 -2.8096  2.2207
12273TIP3    H258311   0.697   4.542   4.683 -1.0526  0.1907  3.7324
12274TIP3   OH258312   4.229   0.538  16.867 -0.0410  0.1840  0.0214
12274TIP3    H158313   4.206   0.620  16.824  1.0478  0.0340 -0.9128
12274TIP3    H258314   4.193   0.470  16.809 -1.0960 -0.0097  0.8825
12275TIP3   OH258315   1.172   0.364   5.613 -0.0414 -0.0473 -0.6564
12275TIP3    H158316   1.100   0.415   5.576 -1.2584 -0.2320  1.3004
12275TIP3    H258317   1.134   0.322   5.691  1.6005 -1.9216 -0.7868
12276TIP3   OH258318   0.787   3.959  12.796 -0.2889  0.1530 -0.6659
12276TIP3    H158319   0.806   4.008  12.876 -0.6398  0.3194 -0.6816
12276TIP3    H258320   0.780   3.868  12.825  0.0392  0.1559 -0.5815
12277TIP3   OH258321   0.596   0.830  17.144 -0.5887 -0.4744 -0.0590
12277TIP3    H158322   0.598   0.746  17.098 -0.3009 -0.3438 -0.2815
12277TIP3    H258323   0.685   0.865  17.136 -1.0906  0.5833 -1.3153
12278TIP3   OH258324   1.800   0.349   0.944  0.5645  0.6342  0.3660
12278TIP3    H158325   1.878   0.355   0.998  0.9472 -0.3550 -0.0423
12278TIP3    H258326   1.834   0.339   0.854  0.0443 -1.3043  0.3243
12279TIP3   OH258327   2.557   1.969   5.236  0.3033  0.4941 -0.0108
12279TIP3    H158328   2.533   1.963   5.329  0.7007 -2.0045  0.0010
12279TIP3    H258329   2.512   1.895   5.195  5.2824 -2.7940 -0.4979
12280TIP3   OH258330   3.188   0.404   3.011  0.4339  0.3998 -0.7886
12280TIP3    H158331   3.273   0.432   3.046  0.4312  0.3122 -0.7119
12280TIP3    H258332   3.178   0.314   3.041 -0.4490  0.9383  0.6427
12281TIP3   OH258333   1.678   1.618  16.619  0.1527 -0.1653  0.3589
12281TIP3    H158334   1.716   1.687  16.673 -0.0954 -0.5827  1.0731
12281TIP3    H258335   1.740   1.545  16.626 -0.3882 -0.5779  0.9085
12282TIP3   OH258336   1.735   0.040  14.808  0.3725  0.0394  0.8920
12282TIP3    H158337   1.707  -0.004  14.888  0.1830 -0.9722  0.2791
12282TIP3    H258338   1.780  -0.027  14.757  0.0610  0.5359 -0.0737
12283TIP3   OH258339   5.212   2.548   6.625 -0.6626 -0.2772  0.4553
12283TIP3    H158340   5.265   2.468   6.624 -1.0552 -0.5499 -1.0416
12283TIP3    H258341   5.231   2.588   6.710 -0.2774 -1.8341  1.1469
12284TIP3   OH258342   1.555   1.659   2.036  0.3984  0.0955  0.7055
12284TIP3    H158343   1.510   1.720   2.094 -0.3977  0.2323 -0.0448
12284TIP3    H258344   1.546   1.697   1.949  0.5464 -0.7155  0.3275
12285TIP3   OH258345   3.528   1.587  16.336  0.1001  0.3074  0.0121
12285TIP3    H158346   3.549   1.641  16.412  0.2818 -1.3644  1.1983
12285TIP3    H258347   3.476   1.644  16.280 -0.1712  1.5344  1.4520
12286TIP3   OH258348   4.945   1.407  16.377  0.3383 -0.1138 -0.4231
12286TIP3    H158349   4.908   1.380  16.293 -0.4880  1.5384 -0.6335
12286TIP3    H258350   4.978   1.496  16.361 -0.9989  0.7453  1.2856
12287TIP3   OH258351   3.061   2.190  15.095  0.1796  0.2275  0.6166
12287TIP3    H158352   3.153   2.194  15.120  0.1602  1.9108  0.5428
12287TIP3    H258353   3.052   2.258  15.028 -0.5832 -1.6127 -1.2305
12288TIP3   OH258354   4.299   3.880   1.362 -0.7055 -0.1214 -0.1256
12288TIP3    H158355   4.245   3.868   1.441  0.1355 -0.5172  0.3999
12288TIP3    H258356   4.366   3.812   1.368 -0.2221  0.2804 -0.8403
12289TIP3   OH258357   4.293   1.621   4.836  0.4063  0.2321  0.2897
12289TIP3    H158358   4.268   1.532   4.862  0.5748 -0.4487 -1.7353
12289TIP3    H258359   4.225   1.648   4.773  0.5702  1.3953  0.5792
12290TIP3   OH258360   5.541   4.398  12.745  0.5689 -0.4165  0.4405
12290TIP3    H158361   5.473   4.435  12.801  0.1288  0.8697 -0.8637
12290TIP3    H258362   5.551   4.308  12.774 -0.1990 -0.0141  2.0343
12291TIP3   OH258363   5.447   4.416  17.012 -1.0574 -0.0683  0.0078
12291TIP3    H158364   5.455   4.420  17.107 -1.7937 -0.7098  0.0975
12291TIP3    H258365   5.507   4.346  16.986 -1.4957 -0.4673  0.0763
12292TIP3   OH258366   5.092   4.977   5.284  0.5163 -0.1249 -0.4230
12292TIP3    H158367   5.048   4.919   5.347  1.7861 -1.3448 -0.6277
12292TIP3    H258368   5.024   5.040   5.259 -1.0786 -1.8075 -0.5600
12293TIP3   OH258369   3.118   0.118   4.311 -0.3966 -0.3876 -0.2721
12293TIP3    H158370   3.134   0.030   4.345  1.1253 -0.2272 -0.5363
12293TIP3    H258371   3.094   0.170   4.388 -0.0141 -0.7377  0.0842
12294TIP3   OH258372   6.156   4.383  12.833 -0.3547  0.0398 -0.6920
12294TIP3    H158373   6.150   4.308  12.892  0.5583  0.5585  0.1019
12294TIP3    H258374   6.250   4.399  12.826 -0.5389  1.0577 -0.9054
12295TIP3   OH258375   0.252   0.137   1.704 -0.6696  0.5878 -0.6465
12295TIP3    H158376   0.229   0.229   1.695 -1.7199  0.4734  0.5437
12295TIP3    H258377   0.232   0.098   1.619 -2.8065  0.9573 -0.3668
12296TIP3   OH258378   2.435   4.300   0.434  0.0210  1.0059 -0.3582
12296TIP3    H158379   2.373   4.229   0.414 -0.8493  1.0253  1.9215
12296TIP3    H258380   2.504   4.291   0.369 -1.7887  0.2499 -2.2979
12297TIP3   OH258381   0.261   3.409  16.475  0.3322  0.0473  0.2399
12297TIP3    H158382   0.265   3.352  16.552  0.4319 -2.6130 -1.6237
12297TIP3    H258383   0.342   3.460  16.480 -0.7857  1.8515  3.1303
12298TIP3   OH258384   3.505   1.453   4.105  1.1594 -0.3008  0.4514
12298TIP3    H158385   3.502   1.428   4.013  1.3405  0.6224  0.1852
12298TIP3    H258386   3.552   1.537   4.106  0.2677  0.2139  1.2710
12299TIP3   OH258387   3.081   0.295   1.139 -0.3563 -0.0147 -0.0965
12299TIP3    H158388   3.176   0.297   1.153 -0.1454 -1.4678 -1.0749
12299TIP3    H258389   3.052   0.219   1.190 -1.0975  0.7411  0.6374
12300TIP3   OH258390   3.927   4.097  11.935  0.2278 -0.1664  0.8487
12300TIP3    H158391   3.942   4.144  12.017  1.3275  0.8388  0.1075
12300TIP3    H258392   3.871   4.155  11.884  1.1549  0.1223  0.1329
12301TIP3   OH258393   3.698   2.692  14.830 -0.1725 -0.6468 -0.9938
12301TIP3    H158394   3.723   2.638  14.755  1.8898  1.1475 -1.6728
12301TIP3    H258395   3.671   2.776  14.792  1.8111  0.6239  0.2450
12302TIP3   OH258396   3.266   6.168   2.322 -0.5787  0.4699 -0.5999
12302TIP3    H158397   3.251   6.076   2.344  0.4248  0.6765  1.1108
12302TIP3    H258398   3.186   6.212   2.352  0.2790  0.5746  1.7396
12303TIP3   OH258399   6.184   1.365  16.294  0.1096 -0.2334  0.3856
12303TIP3    H158400   6.185   1.366  16.198 -0.5131 -1.3296  0.3588
12303TIP3    H258401   6.208   1.276  16.318 -1.9183 -0.6098  1.1908
12304TIP3   OH258402   5.671   3.282  12.265  0.1594 -0.0457  0.3552
12304TIP3    H158403   5.610   3.282  12.192 -1.2615  0.9432  1.5062
12304TIP3    H258404   5.617   3.272  12.343  1.5897 -0.5242  1.3453
12305TIP3   OH258405   5.836   6.144   5.667  0.2039  0.3187  0.6028
12305TIP3    H158406   5.880   6.195   5.599 -1.1824 -1.0271 -1.4546
12305TIP3    H258407   5.896   6.072   5.687 -0.0131 -0.1650 -0.4154
12306TIP3   OH258408   1.184   3.732   1.801 -0.2331 -1.0479 -0.1533
12306TIP3    H158409   1.234   3.662   1.842  0.3204 -0.8746 -0.5235
12306TIP3    H258410   1.094   3.716   1.829 -0.3138 -2.5834 -1.1508
12307TIP3   OH258411   5.412   0.112  15.004 -1.0223 -0.8521  0.2461
12307TIP3    H158412   5.420   0.033  14.950  0.9914 -0.3505 -0.3177
12307TIP3    H258413   5.437   0.183  14.945 -0.2642 -0.1045  1.4218
12308TIP3   OH258414   4.860   0.267  11.740  0.6871  0.6527  0.7606
12308TIP3    H158415   4.777   0.296  11.778  0.1831 -0.4339  0.5205
12308TIP3    H258416   4.909   0.230  11.814 -0.2837 -1.4401  0.4189
12309TIP3   OH258417   5.231   6.349   5.393 -0.3729  0.2802 -0.0266
12309TIP3    H158418   5.191   6.296   5.461 -2.8053 -3.0787 -3.5998
12309TIP3    H258419   5.315   6.306   5.374 -0.2474  0.4830  0.0675
12310TIP3   OH258420   0.679   1.648  11.596 -0.0286  0.1953 -0.4170
12310TIP3    H158421   0.762   1.661  11.642 -0.2187 -0.3069  0.0824
12310TIP3    H258422   0.690   1.568  11.545 -0.7517 -0.8470  0.9845
12311TIP3   OH258423   3.670   1.834   2.000 -0.4341 -0.0155  0.4913
12311TIP3    H158424   3.691   1.793   2.084 -0.6173 -4.8472 -1.4926
12311TIP3    H258425   3.754   1.861   1.963 -0.2791  1.3519  1.7423
12312TIP3   OH258426   4.121   0.555  13.795  0.5761 -0.3979  0.1393
12312TIP3    H158427   4.060   0.606  13.848 -1.2347 -1.2006 -1.1161
12312TIP3    H258428   4.087   0.466  13.797  0.6989 -0.5405 -1.9674
12313TIP3   OH258429   5.786   3.610   1.200  0.6323 -0.2420 -0.6131
12313TIP3    H158430   5.787   3.671   1.126 -0.3090  0.6472  0.0841
12313TIP3    H258431   5.770   3.665   1.276 -3.5367 -1.6408 -0.2644
12314TIP3   OH258432   3.990   2.205  15.324 -0.0585 -0.8080  0.6947
12314TIP3    H158433   3.970   2.294  15.352 -0.1998 -0.8752  0.8106
12314TIP3    H258434   3.953   2.199  15.235 -0.4833 -0.9021  0.8726
12315TIP3   OH258435   6.420   2.543  13.587  0.5569  0.3262 -0.2337
12315TIP3    H158436   6.406   2.558  13.493 -0.4081 -0.6210 -0.2668
12315TIP3    H258437   6.511   2.515  13.594  1.0548  1.7514 -0.7009
12316TIP3   OH258438   2.144   3.436  17.020  0.3905 -0.1436 -0.0253
12316TIP3    H158439   2.222   3.401  17.062 -0.0388 -0.5040  0.4841
12316TIP3    H258440   2.102   3.489  17.087  1.6042  2.3452 -1.0954
12317TIP3   OH258441   3.732   1.779   5.291  0.1374 -0.1186  0.0039
12317TIP3    H158442   3.687   1.695   5.296  1.5547 -0.8739  0.5940
12317TIP3    H258443   3.824   1.757   5.278  0.5952  1.3283  0.5736
12318TIP3   OH258444   0.127   2.140   4.415 -0.0172 -0.1035 -0.0154
12318TIP3    H158445   0.149   2.053   4.384  1.7299  0.0028  0.7922
12318TIP3    H258446   0.038   2.132   4.448 -0.9339 -0.8672 -2.4629
12319TIP3   OH258447   3.486   6.179  13.518 -0.3339  0.0241  0.4335
12319TIP3    H158448   3.517   6.099  13.476 -1.6971  0.0279 -0.6719
12319TIP3    H258449   3.558   6.242  13.507  0.3695 -0.7664  0.4618
12320TIP3   OH258450   0.184   5.451  15.651  0.2525 -0.1690  0.1275
12320TIP3    H158451   0.189   5.487  15.562  0.5955 -2.0001 -0.6419
12320TIP3    H258452   0.273   5.457  15.685  0.7000 -1.7567 -0.6553
12321TIP3   OH258453   2.600   5.884  11.311  0.1080  0.1756 -0.3347
12321TIP3    H158454   2.662   5.903  11.240  1.4976  0.6267  0.9386
12321TIP3    H258455   2.514   5.900  11.273  0.7556 -0.4734 -2.1774
12322TIP3   OH258456   5.631   3.770   6.312  0.2237 -0.6443 -0.3012
12322TIP3    H158457   5.663   3.741   6.226 -0.0560  1.2005 -1.0745
12322TIP3    H258458   5.707   3.812   6.352  0.1137 -0.7223 -0.0111
12323TIP3   OH258459   0.063   6.124   2.068 -0.1072  0.1425  0.1211
12323TIP3    H158460  -0.017   6.072   2.065  0.8409 -1.6401  2.6200
12323TIP3    H258461   0.113   6.097   1.991 -0.8262 -0.6388 -0.0770
12324TIP3   OH258462   6.541   3.834   1.430 -0.0374  0.3993 -0.4054
12324TIP3    H158463   6.626   3.873   1.411  0.8184 -0.7222  0.8786
12324TIP3    H258464   6.534   3.760   1.370  1.1209 -1.0608  1.1164
12325TIP3   OH258465   0.846   6.480  16.073  0.4400 -0.8334 -0.7402
12325TIP3    H158466   0.751   6.481  16.085  0.5598  1.4079  0.6233
12325TIP3    H258467   0.882   6.501  16.160  2.0679  0.5986 -1.6807
12326TIP3   OH258468   5.814   4.307  16.044  0.3001 -0.1001  0.1257
12326TIP3    H158469   5.763   4.297  16.125 -2.0182  0.3398 -1.1791
12326TIP3    H258470   5.854   4.393  16.052  1.8619 -0.8983  1.6672
12327TIP3   OH258471   0.372   3.698  12.753  0.3108  0.4502  0.0719
12327TIP3    H158472   0.397   3.762  12.821  2.9291  1.7683 -1.9548
12327TIP3    H258473   0.293   3.735  12.714  0.4492  1.2207  0.4969
12328TIP3   OH258474   5.142   0.373  16.138  0.3687 -0.2241 -0.2345
12328TIP3    H158475   5.103   0.421  16.065  1.3488 -0.4581 -0.9296
12328TIP3    H258476   5.176   0.440  16.196 -0.0603 -0.0416 -0.1938
12329TIP3   OH258477   1.596   1.883   0.504  0.2041  0.1180  0.5412
12329TIP3    H158478   1.561   1.904   0.417 -2.7037  0.3749  1.6459
12329TIP3    H258479   1.657   1.811   0.488 -0.7395 -0.3064 -1.6423
12330TIP3   OH258480   3.738   6.128  14.594 -0.5132  0.4132  0.0046
12330TIP3    H158481   3.821   6.113  14.640 -0.5224  0.3859  0.0121
12330TIP3    H258482   3.698   6.202  14.640 -0.4714  0.4565 -0.0289
12331TIP3   OH258483   5.088   5.496  12.983 -0.4137 -0.1088  0.0229
12331TIP3    H158484   5.130   5.567  13.033  0.7122 -0.1812 -0.7913
12331TIP3    H258485   4.996   5.499  13.011 -0.3199  1.4366  0.2839
12332TIP3   OH258486   6.409   3.796  16.889  0.0891  0.1479  0.4300
12332TIP3    H158487   6.469   3.866  16.863 -0.5997  1.3298  1.8785
12332TIP3    H258488   6.376   3.760  16.806  3.1307 -0.9227 -0.4381
12333TIP3   OH258489   5.841   3.172  17.101  0.0864 -0.3081 -1.0372
12333TIP3    H158490   5.880   3.253  17.133 -0.7262 -0.1493 -0.4023
12333TIP3    H258491   5.768   3.200  17.047 -2.0238 -0.5391  1.4653
12334TIP3   OH258492   2.715   5.405   2.959 -0.5702  0.1218  0.1505
12334TIP3    H158493   2.645   5.466   2.985 -1.1931  0.1276 -1.4241
12334TIP3    H258494   2.669   5.329   2.925  0.0604  0.9865 -2.9662
12335TIP3   OH258495   6.647   4.249  13.753 -0.5062 -0.5520 -0.2639
12335TIP3    H158496   6.696   4.214  13.678 -0.4455  0.3420 -0.6463
12335TIP3    H258497   6.694   4.328  13.779 -0.1336 -1.2058  1.1590
12336TIP3   OH258498   2.288   0.603  15.855  0.5295 -0.6845 -0.1752
12336TIP3    H158499   2.336   0.670  15.807  1.6969 -0.5724  1.0952
12336TIP3    H258500   2.198   0.634  15.856 -0.1176 -1.8815 -4.3796
12337TIP3   OH258501   5.542   4.182   1.030  0.0269  0.4493  1.0719
12337TIP3    H158502   5.591   4.211   1.107 -1.0945  0.9541  1.6184
12337TIP3    H258503   5.497   4.261   0.999  1.3533  0.5347 -0.8212
12338TIP3   OH258504   6.141   3.743   6.248  0.2619 -0.0931 -0.3143
12338TIP3    H158505   6.201   3.793   6.303 -1.6715  0.3528  1.5334
12338TIP3    H258506   6.084   3.810   6.209  1.1503 -0.4656 -2.3716
12339TIP3   OH258507   5.306   5.321   6.248 -0.4839  0.1678  0.4675
12339TIP3    H158508   5.324   5.311   6.342  0.6085 -0.9202  0.1659
12339TIP3    H258509   5.309   5.415   6.233 -1.0723  0.3881  1.5944
12340TIP3   OH258510   6.306   1.402   4.042  0.3400 -0.0351 -0.3724
12340TIP3    H158511   6.241   1.437   4.103  0.6627  0.4335 -0.2966
12340TIP3    H258512   6.285   1.309   4.037  0.3751 -0.1002  0.5332
12341TIP3   OH258513   6.343   0.721  16.539 -0.3534 -0.4853 -0.5666
12341TIP3    H158514   6.413   0.750  16.480 -2.0500  2.3862 -1.3526
12341TIP3    H258515   6.347   0.625  16.537  0.6670 -0.4761 -4.1209
12342TIP3   OH258516   0.856   6.454  12.383 -0.2582 -0.1753 -0.0577
12342TIP3    H158517   0.873   6.494  12.298  0.0264  1.5883  0.7767
12342TIP3    H258518   0.821   6.367  12.363 -1.5260  0.7254 -1.9741
12343TIP3   OH258519   2.686   2.567   2.492 -0.6274 -0.7744 -0.0145
12343TIP3    H158520   2.708   2.529   2.407  2.5083 -2.8748  1.5351
12343TIP3    H258521   2.599   2.533   2.512 -1.7817  0.3871 -2.5890
12344TIP3   OH258522   0.497   1.928  15.918 -0.0972 -0.4298 -0.3509
12344TIP3    H158523   0.559   1.888  15.979  0.9243  0.3206 -0.8859
12344TIP3    H258524   0.411   1.898  15.950  0.5357 -1.8027  0.1551
12345TIP3   OH258525   4.576   0.527   2.461  0.2705 -0.1786 -0.5799
12345TIP3    H158526   4.584   0.431   2.463  4.0300 -0.0340 -0.9474
12345TIP3    H258527   4.561   0.547   2.369  1.6700 -0.4128 -0.8922
12346TIP3   OH258528   0.749   2.513   0.427  0.1576  0.6523  0.5703
12346TIP3    H158529   0.710   2.531   0.513 -0.5031  1.5632  0.0982
12346TIP3    H258530   0.737   2.595   0.378  0.6030  0.1696 -0.3606
12347TIP3   OH258531   2.695   5.432  12.490 -0.7326  0.1694  0.0640
12347TIP3    H158532   2.628   5.501  12.495  1.0693  1.9540  1.2642
12347TIP3    H258533   2.775   5.475  12.520  1.0096 -1.8522 -1.4290
12348TIP3   OH258534   6.705   6.067   3.878  0.1204 -0.1111  0.1175
12348TIP3    H158535   6.742   6.146   3.916 -0.7556  0.4461 -0.1555
12348TIP3    H258536   6.779   6.007   3.869  0.5423  0.1299  1.7077
12349TIP3   OH258537   4.629   1.200  11.532  0.5179  0.2060 -0.0207
12349TIP3    H158538   4.595   1.235  11.450  0.4099 -0.4841 -0.2746
12349TIP3    H258539   4.708   1.152  11.507  0.6134  0.1931  0.3060
12350TIP3   OH258540   6.368   3.050   0.536 -0.1446  0.0185 -0.7567
12350TIP3    H158541   6.420   3.119   0.495  0.8253  0.3780  0.9824
12350TIP3    H258542   6.277   3.079   0.525  0.1396  0.6447 -1.6168
12351TIP3   OH258543   4.793   2.241   0.880  0.1997 -0.0074  0.3180
12351TIP3    H158544   4.881   2.241   0.844  0.9793  0.5041  2.0772
12351TIP3    H258545   4.741   2.292   0.818  2.4869  4.9855  1.9653
12352TIP3   OH258546   1.108   0.791   3.947 -0.1284  0.0587  0.3253
12352TIP3    H158547   1.127   0.878   3.911 -0.7100  0.2977  0.5699
12352TIP3    H258548   1.063   0.809   4.030  1.3731 -0.4830  1.3002
12353TIP3   OH258549   3.064   6.380  11.048 -0.5920 -0.0586 -0.0121
12353TIP3    H158550   3.073   6.467  11.085  0.8858  1.5408 -3.6645
12353TIP3    H258551   3.145   6.366  10.999 -2.6003 -1.4846 -3.2614
12354TIP3   OH258552   0.108   4.003  10.312  0.4656  0.1426 -0.4673
12354TIP3    H158553   0.129   4.086  10.353  0.8712  0.1589 -0.7069
12354TIP3    H258554   0.191   3.971  10.276  0.7453 -1.3193  1.3214
12355TIP3   OH258555   3.258   4.443   3.974 -0.4087  0.2793 -0.5412
12355TIP3    H158556   3.228   4.507   3.910 -0.6003 -0.6475 -1.3964
12355TIP3    H258557   3.281   4.495   4.051 -2.7693  1.1833 -0.3690
12356TIP3   OH258558   0.968   3.456   0.467 -0.0523 -0.2766  0.2438
12356TIP3    H158559   1.028   3.384   0.451  0.6703  0.6745 -1.5843
12356TIP3    H258560   0.903   3.449   0.397  0.0263  0.8189  0.0427
12357TIP3   OH258561   4.141   4.573   0.124 -0.2448 -0.4364 -0.1713
12357TIP3    H158562   4.149   4.508   0.055  3.6232 -1.5632  1.1262
12357TIP3    H258563   4.230   4.586   0.157 -1.3421  2.8690  2.0993
12358TIP3   OH258564   2.201   1.136  16.973  0.3652 -0.0508 -0.1186
12358TIP3    H158565   2.291   1.111  16.993 -0.1654 -1.5615  0.5215
12358TIP3    H258566   2.188   1.218  17.021  1.2514 -0.0426  0.1313
12359TIP3   OH258567   3.445   0.986  16.488 -0.2804 -0.2882 -0.0755
12359TIP3    H158568   3.522   0.934  16.509 -1.5344 -1.1421  2.9839
12359TIP3    H258569   3.469   1.076  16.510  0.9321  0.1013 -2.6219
12360TIP3   OH258570   2.227   0.839   5.020  0.2960  0.0094 -0.3601
12360TIP3    H158571   2.304   0.828   5.076  0.0227 -0.1322 -0.0047
12360TIP3    H258572   2.228   0.762   4.963 -0.1202 -0.5053  0.3088
12361TIP3   OH258573   5.447   5.274   2.436  0.0430  0.2810  0.0046
12361TIP3    H158574   5.407   5.189   2.456 -0.0775 -0.3301 -2.4948
12361TIP3    H258575   5.382   5.338   2.467 -1.3064 -0.6146 -0.8549
12362TIP3   OH258576   2.748   5.263   4.899 -0.0443 -0.3082 -0.0902
12362TIP3    H158577   2.738   5.336   4.960  0.6184  0.0907 -0.4381
12362TIP3    H258578   2.843   5.257   4.885 -0.0389 -1.6145  0.3807
12363TIP3   OH258579   3.668   3.841  13.738 -0.0382 -0.1074  0.7275
12363TIP3    H158580   3.729   3.906  13.774  2.4124 -1.9943  0.2368
12363TIP3    H258581   3.656   3.868  13.647  2.0409 -1.0026  0.1438
12364TIP3   OH258582   4.412   2.770  10.403 -0.2609 -0.1884 -0.3556
12364TIP3    H158583   4.470   2.823  10.348 -0.3263  2.2317  1.7318
12364TIP3    H258584   4.453   2.772  10.490 -2.2254 -0.4310  0.6200
12365TIP3   OH258585   2.112   0.260  11.875 -0.3361  0.1634 -0.4537
12365TIP3    H158586   2.206   0.277  11.872 -0.4727  0.9656 -0.3317
12365TIP3    H258587   2.105   0.165  11.877  0.5258  0.0992  1.1561
12366TIP3   OH258588   0.534   6.198   2.205  0.7370 -0.2507  0.2472
12366TIP3    H158589   0.488   6.115   2.219 -1.0948  0.5283 -0.7850
12366TIP3    H258590   0.556   6.198   2.111  2.1114 -0.2259  0.5542
12367TIP3   OH258591   6.332   4.943  12.521  0.1084 -0.0840 -0.3297
12367TIP3    H158592   6.280   5.021  12.541 -1.5841 -0.7278 -1.8698
12367TIP3    H258593   6.272   4.870  12.535  1.4544 -1.0794  0.4289
12368TIP3   OH258594   4.665   2.286  12.741 -0.2444  0.7830 -0.5809
12368TIP3    H158595   4.638   2.265  12.830  1.0862 -0.9364 -0.5116
12368TIP3    H258596   4.712   2.369  12.749 -0.9432  1.1206  0.1458
12369TIP3   OH258597   6.000   5.645   6.599  0.2321 -0.2282  0.6540
12369TIP3    H158598   5.941   5.575   6.568  0.8381 -0.5458  0.1991
12369TIP3    H258599   6.076   5.598   6.632  1.2505  0.2503 -0.9232
12370TIP3   OH258600   2.446   2.828   5.093 -0.2072  0.3094  0.3893
12370TIP3    H158601   2.430   2.922   5.101  0.4505  0.4296  0.3690
12370TIP3    H258602   2.518   2.811   5.155 -0.0630 -0.1103  0.1108
12371TIP3   OH258603   5.663   4.195   2.149  0.0152 -0.8676 -0.0703
12371TIP3    H158604   5.720   4.179   2.073 -0.1841  0.3178 -0.4997
12371TIP3    H258605   5.723   4.202   2.223  0.3382 -0.6590 -0.3479
12372TIP3   OH258606   4.853   4.407   2.234  0.6775  0.1642 -0.2666
12372TIP3    H158607   4.857   4.332   2.293 -0.0707 -0.3996 -0.9269
12372TIP3    H258608   4.937   4.452   2.247  1.3249 -1.0345 -0.2052
12373TIP3   OH258609   0.853   4.573   0.904 -0.1727  0.2684  0.1415
12373TIP3    H158610   0.780   4.632   0.890 -2.3141 -2.1183  0.4851
12373TIP3    H258611   0.869   4.534   0.818 -1.8917 -1.8975  0.7039
12374TIP3   OH258612   2.475   5.209   3.968  0.3675 -0.5467  0.1293
12374TIP3    H158613   2.424   5.203   4.049  0.6396 -1.5995  0.2369
12374TIP3    H258614   2.419   5.171   3.901  0.0608  0.5146 -0.2330
12375TIP3   OH258615   5.534   6.497  15.301  0.1265  0.1627  0.0192
12375TIP3    H158616   5.573   6.486  15.215 -0.2176  0.6691 -0.2091
12375TIP3    H258617   5.606   6.527  15.357  0.9094 -2.3894  0.4913
12376TIP3   OH258618   2.766   3.670  10.953  0.1374 -0.1793 -0.4082
12376TIP3    H158619   2.704   3.693  11.022 -0.3007 -2.3134 -0.0303
12376TIP3    H258620   2.728   3.706  10.873 -0.6942  0.0291  0.0759
12377TIP3   OH258621   1.912   1.197  15.695  0.0627  0.3874  0.2538
12377TIP3    H158622   2.001   1.209  15.662 -0.4759 -0.2785 -1.5833
12377TIP3    H258623   1.914   1.113  15.740  0.4092  0.4817  0.4166
12378TIP3   OH258624   1.659   3.079   0.668 -0.4284 -0.1949 -0.0210
12378TIP3    H158625   1.583   3.055   0.720 -1.3672  0.6598 -0.9316
12378TIP3    H258626   1.661   3.016   0.596 -0.6664  0.1600 -0.3457
12379TIP3   OH258627   4.530   0.594   4.972  0.1518 -0.1348 -0.2568
12379TIP3    H158628   4.509   0.527   5.038  1.2062 -0.1713  0.0540
12379TIP3    H258629   4.470   0.665   4.992 -0.3907 -0.6408 -0.0409
12380TIP3   OH258630   2.916   4.088   4.208 -0.2778  0.1638 -0.6410
12380TIP3    H158631   2.865   4.024   4.257  0.2772 -0.0396 -0.3206
12380TIP3    H258632   2.904   4.063   4.116 -0.7235  0.0998 -0.5681
12381TIP3   OH258633   6.326   1.949  13.321 -0.8684 -0.1433  0.1022
12381TIP3    H158634   6.378   1.873  13.292 -0.7957 -1.2347  2.7987
12381TIP3    H258635   6.367   2.024  13.278  2.1073 -1.1146  1.0025
12382TIP3   OH258636   0.954   4.064   3.553  0.2233 -0.3179  0.6869
12382TIP3    H158637   0.870   4.019   3.566  1.2462 -2.7158 -0.4058
12382TIP3    H258638   0.930   4.151   3.521 -1.8488 -0.3745  1.9000
12383TIP3   OH258639   1.801   2.772  13.664  0.4305  0.2387  0.6634
12383TIP3    H158640   1.719   2.820  13.653  0.7675  0.5562 -0.6514
12383TIP3    H258641   1.775   2.688  13.702 -0.1568  1.4390  3.1459
12384TIP3   OH258642   1.369   4.960   3.897  0.4618  0.3481 -0.1121
12384TIP3    H158643   1.396   5.052   3.893  0.4470  0.4631  1.5677
12384TIP3    H258644   1.275   4.963   3.881  0.4167  0.6695  0.1819
12385TIP3   OH258645   1.544   0.003  13.673 -0.2068 -0.1363 -0.1171
12385TIP3    H158646   1.516  -0.038  13.755 -0.7126 -0.3663 -0.3954
12385TIP3    H258647   1.599   0.077  13.700  0.7931 -1.0394  0.3889
12386TIP3   OH258648   0.778   1.160   2.737 -0.2528 -0.4148 -0.6932
12386TIP3    H158649   0.756   1.125   2.824  0.4311  0.0695 -0.3177
12386TIP3    H258650   0.774   1.255   2.747 -0.5427 -0.3559 -1.2994
12387TIP3   OH258651   2.668   0.037   6.087 -0.8857 -0.4551  0.0285
12387TIP3    H158652   2.622   0.052   6.005 -1.3850 -0.9544  0.2083
12387TIP3    H258653   2.608  -0.018   6.138 -0.1388 -1.0201  0.3106
12388TIP3   OH258654   1.193   4.417  12.310 -0.1740 -0.3929  0.0362
12388TIP3    H158655   1.133   4.491  12.317 -1.5799 -1.1381 -2.8519
12388TIP3    H258656   1.277   4.451  12.342 -1.4864  1.4470  1.7213
12389TIP3   OH258657   1.642   2.948   0.438 -0.0637 -0.1312  0.3163
12389TIP3    H158658   1.627   2.853   0.437  0.2280 -0.1779  0.2144
12389TIP3    H258659   1.627   2.975   0.347 -0.0402 -0.0959  0.3233
12390TIP3   OH258660   3.739   1.041  13.920 -0.1177 -0.2893  0.2557
12390TIP3    H158661   3.774   1.130  13.919 -1.0459  0.1019 -1.2131
12390TIP3    H258662   3.711   1.027  14.010 -0.4463  1.1089  0.3989
12391TIP3   OH258663   3.779   6.652  14.297 -0.7469 -0.3053  0.5935
12391TIP3    H158664   3.842   6.580  14.304  0.2845  0.5061 -0.0456
12391TIP3    H258665   3.818   6.723  14.347 -0.9953  0.3079 -0.0635
12392TIP3   OH258666   4.707   5.897  12.994  0.1242 -0.3490 -0.0875
12392TIP3    H158667   4.687   5.915  12.902  2.0578 -0.7964 -0.6405
12392TIP3    H258668   4.802   5.885  12.996  0.2013  0.2613  2.0915
12393TIP3   OH258669   5.653   4.441  13.645  0.5315  0.1190 -0.2800
12393TIP3    H158670   5.589   4.377  13.615 -0.1956  1.1733 -1.0715
12393TIP3    H258671   5.733   4.419  13.598 -0.6274  1.8746 -3.3854
12394TIP3   OH258672   0.908   1.933  15.268  0.3806  0.0009  0.2246
12394TIP3    H158673   0.985   1.890  15.304  0.3861  0.5398  0.8729
12394TIP3    H258674   0.886   1.882  15.189  0.2585 -1.3168  1.0795
12395TIP3   OH258675   0.738   2.228  14.907 -0.1312 -0.2904  0.2833
12395TIP3    H158676   0.661   2.279  14.933 -0.1805 -1.0543  1.7736
12395TIP3    H258677   0.813   2.280  14.935 -0.0634  0.5792 -1.4110
12396TIP3   OH258678   0.115   3.396   2.719 -0.4649  0.5189 -0.5316
12396TIP3    H158679   0.079   3.373   2.805 -0.0889 -1.5783 -0.8855
12396TIP3    H258680   0.207   3.416   2.736 -0.0070 -1.3562 -0.5966
12397TIP3   OH258681   2.404   2.177   2.987  0.0839 -0.3758  0.6556
12397TIP3    H158682   2.310   2.191   3.000 -0.3156 -1.9765 -0.2238
12397TIP3    H258683   2.417   2.085   3.008  1.1061 -0.6488 -1.0092
12398TIP3   OH258684   3.549   6.516  12.607 -1.1412  0.1473  0.1714
12398TIP3    H158685   3.484   6.496  12.540  0.2084 -0.3119 -1.0582
12398TIP3    H258686   3.547   6.441  12.666 -1.5251  0.0184 -0.0013
12399TIP3   OH258687   3.535   3.539   0.192 -0.0678 -0.0517 -0.2455
12399TIP3    H158688   3.531   3.633   0.173  2.0258  0.3503  1.0483
12399TIP3    H258689   3.490   3.530   0.276 -0.3744 -0.2345 -0.4282
12400TIP3   OH258690   2.417   3.606  11.272 -0.5221  0.0882  0.2613
12400TIP3    H158691   2.368   3.551  11.211 -0.6415  2.1841 -1.6801
12400TIP3    H258692   2.482   3.548  11.310 -0.3716 -1.3311 -1.9681
12401TIP3   OH258693   4.737   2.884   0.804  1.2327 -0.9825 -0.3641
12401TIP3    H158694   4.736   2.975   0.776 -0.3595 -0.8446  0.0217
12401TIP3    H258695   4.708   2.887   0.895 -2.7286 -2.0922 -1.3921
12402TIP3   OH258696   4.536   0.938  15.763 -0.1513  0.1532 -0.4474
12402TIP3    H158697   4.449   0.976  15.777  0.6225  1.4605  1.0462
12402TIP3    H258698   4.518   0.852  15.724 -2.0161  1.1985 -2.0417
12403TIP3   OH258699   6.583   1.787   0.938  0.3909  0.1527  1.0399
12403TIP3    H158700   6.578   1.708   0.993  1.6688 -0.0292  0.9194
12403TIP3    H258701   6.675   1.812   0.940  0.6444 -0.2666 -1.5606
12404TIP3   OH258702   2.242   3.690  15.784  0.6685 -0.0798  0.3925
12404TIP3    H158703   2.214   3.737  15.862 -0.3019  0.5549 -0.3229
12404TIP3    H258704   2.165   3.686  15.728  0.8170 -2.2251  0.2598
12405TIP3   OH258705   1.189   5.348  10.392  0.2091  0.4903  0.4044
12405TIP3    H158706   1.201   5.254  10.403 -0.7508  0.3965  0.7250
12405TIP3    H258707   1.248   5.387  10.457 -0.0656  0.0910  0.8976
12406TIP3   OH258708   5.111   5.128  15.394 -0.3809  0.2033  0.2793
12406TIP3    H158709   5.167   5.133  15.471  0.2909  0.0911 -0.1930
12406TIP3    H258710   5.083   5.037  15.391  0.1974  0.0261 -0.0172
12407TIP3   OH258711   0.415   0.080   2.497 -0.4467 -0.0087 -0.1766
12407TIP3    H158712   0.344   0.078   2.562  0.0343  1.6805  0.4435
12407TIP3    H258713   0.484   0.130   2.539  0.0451  0.7626 -1.8372
12408TIP3   OH258714   6.437   6.308   1.146  0.1002  0.1165 -0.3725
12408TIP3    H158715   6.411   6.272   1.061  2.5643 -1.1057 -0.7163
12408TIP3    H258716   6.492   6.383   1.124 -1.1761  1.2534  0.2418
12409TIP3   OH258717   0.712   6.296  13.135 -0.5000 -0.2349  0.0312
12409TIP3    H158718   0.661   6.254  13.066 -2.7766  1.1963  0.7156
12409TIP3    H258719   0.773   6.353  13.089 -3.1284  2.0165 -0.9490
12410TIP3   OH258720   2.435   1.206   4.301 -1.2322 -0.1311 -0.2431
12410TIP3    H158721   2.468   1.269   4.237  0.9229 -1.6908 -0.7536
12410TIP3    H258722   2.371   1.256   4.352 -1.7594  1.6451 -2.4599
12411TIP3   OH258723   3.097   6.652  12.186 -0.5957 -0.6428 -0.5655
12411TIP3    H158724   3.085   6.559  12.205  0.0601 -1.0073 -1.8259
12411TIP3    H258725   3.179   6.675  12.231  0.0253 -1.0616 -1.4532
12412TIP3   OH258726   5.269   0.580   6.118 -0.0799 -0.0767  0.3139
12412TIP3    H158727   5.311   0.496   6.102 -1.6687 -0.6633 -1.0120
12412TIP3    H258728   5.183   0.558   6.154 -1.2455  0.8619 -1.7209
12413TIP3   OH258729   0.816   6.618  16.532 -0.2058  0.1714  0.7424
12413TIP3    H158730   0.885   6.554  16.550  0.2293  0.3859 -0.1284
12413TIP3    H258731   0.736   6.566  16.528  0.3254 -0.5829 -1.3943
12414TIP3   OH258732   4.579   1.543  12.806  0.5953 -0.1285  0.6793
12414TIP3    H158733   4.605   1.589  12.885  2.3073 -1.2518  0.8173
12414TIP3    H258734   4.499   1.497  12.830  0.1514  0.8947  1.2151
12415TIP3   OH258735   1.968   4.842   5.072 -0.0278 -0.3375  0.5799
12415TIP3    H158736   2.004   4.913   5.019 -1.0226 -0.9109 -0.9070
12415TIP3    H258737   2.045   4.799   5.110  0.6218  1.1127  0.9942
12416TIP3   OH258738   1.771   1.742  15.102  0.2681 -1.0128  0.2833
12416TIP3    H158739   1.821   1.666  15.131 -1.6523 -2.1341  0.8286
12416TIP3    H258740   1.692   1.741  15.157 -0.7036  0.2509 -1.0205
12417TIP3   OH258741   4.772   1.787   4.559  0.8291 -0.1383 -0.0660
12417TIP3    H158742   4.757   1.877   4.531 -1.9948 -0.7503 -0.7807
12417TIP3    H258743   4.698   1.767   4.617  1.1750 -2.1129 -0.2370
12418TIP3   OH258744   0.496   3.605  14.043 -0.3986 -0.4388  0.0716
12418TIP3    H158745   0.441   3.678  14.072 -1.2105  0.1625 -2.5943
12418TIP3    H258746   0.439   3.555  13.984  1.3945 -0.6952 -1.5701
12419TIP3   OH258747   2.542   3.591  12.325 -0.1414  0.0004 -0.2845
12419TIP3    H158748   2.598   3.527  12.370  0.7313  0.0721 -1.2142
12419TIP3    H258749   2.548   3.566  12.232 -0.3176  1.0280 -0.5842
12420TIP3   OH258750   4.406   6.768  12.333  0.1864  0.2414 -0.0063
12420TIP3    H158751   4.431   6.699  12.273 -0.7052 -0.1817  0.0899
12420TIP3    H258752   4.485   6.821  12.344  1.0518 -1.0874  0.3733
12421TIP3   OH258753   2.829   1.947  11.323  0.0445 -0.0958 -0.0550
12421TIP3    H158754   2.766   1.983  11.385  0.7595 -0.3497  0.8373
12421TIP3    H258755   2.780   1.879  11.276 -0.3480 -0.3068  0.6469
12422TIP3   OH258756   4.536   0.935   1.054 -0.0706 -0.0011 -0.0455
12422TIP3    H158757   4.495   0.960   0.971 -0.5525 -0.2299  0.1219
12422TIP3    H258758   4.571   1.017   1.088 -0.4332  0.2095 -0.1684
12423TIP3   OH258759   0.877   6.814  11.738 -0.0987 -0.0140  0.0106
12423TIP3    H158760   0.953   6.870  11.725 -0.7890  0.7625 -0.7363
12423TIP3    H258761   0.817   6.867  11.791 -0.6212 -0.1689 -0.4234
12424TIP3   OH258762   1.247   6.419   1.636 -0.1623 -0.3320 -0.1258
12424TIP3    H158763   1.271   6.456   1.551 -0.0077 -0.2642 -0.0522
12424TIP3    H258764   1.156   6.446   1.649  0.0997  0.4160  0.1453
12425TIP3   OH258765   6.038   1.769   3.266  0.0968  0.7916  0.6033
12425TIP3    H158766   6.090   1.788   3.188 -0.7481 -1.5143 -0.5938
12425TIP3    H258767   5.947   1.772   3.236 -0.1928 -1.4102  1.1478
12426TIP3   OH258768   5.328   2.501   0.656 -0.0995  0.3275  0.1255
12426TIP3    H158769   5.366   2.588   0.649  0.8732  0.0689  1.8032
12426TIP3    H258770   5.402   2.441   0.643 -0.1412 -0.1910  1.9959
12427TIP3   OH258771   4.685   6.238   1.714 -0.2106  0.7085  0.0405
12427TIP3    H158772   4.755   6.210   1.773 -0.7293  1.2360  0.9329
12427TIP3    H258773   4.729   6.258   1.632  0.5532  0.1204  0.2978
12428TIP3   OH258774   4.339   2.695  12.676 -0.1036 -0.0313  0.1058
12428TIP3    H158775   4.386   2.682  12.758 -1.2165  0.6361  0.8723
12428TIP3    H258776   4.291   2.613  12.662 -1.2397  0.4530  1.0265
12429TIP3   OH258777   1.130   1.173   0.405  0.3277  0.4279 -0.3532
12429TIP3    H158778   1.128   1.257   0.360  1.0708  1.1699  0.9447
12429TIP3    H258779   1.223   1.152   0.412  0.3817  1.2671  2.4329
12430TIP3   OH258780   0.739   5.878  12.611  0.4509 -0.4877 -0.5646
12430TIP3    H158781   0.702   5.790  12.602  1.2402 -0.8947  0.0775
12430TIP3    H258782   0.718   5.921  12.528  1.2803 -1.7496 -1.4634
12431TIP3   OH258783   2.989   5.191   4.218 -0.1214  0.2501 -0.3369
12431TIP3    H158784   2.941   5.211   4.137  3.3191  0.2471 -2.6071
12431TIP3    H258785   3.077   5.226   4.202  1.7616 -2.9949  1.8816
12432TIP3   OH258786   3.156   4.462  14.739  0.4842 -0.1229 -0.3903
12432TIP3    H158787   3.074   4.431  14.702 -0.3459  0.9423  0.4823
12432TIP3    H258788   3.131   4.534  14.797  2.0304  0.2102 -0.0782
12433TIP3   OH258789   5.010   2.911   6.561  0.4671  0.2141  0.4789
12433TIP3    H158790   5.076   2.919   6.492  1.0079 -3.1917  0.4054
12433TIP3    H258791   4.928   2.936   6.519  0.9990 -0.4682 -1.0273
12434TIP3   OH258792   0.532   6.507   4.723 -0.6064  0.5075 -0.1456
12434TIP3    H158793   0.583   6.449   4.667 -0.8709  0.2852 -0.1615
12434TIP3    H258794   0.569   6.593   4.708  0.6587  0.1587  0.8704
12435TIP3   OH258795   0.010   6.330  15.752 -0.4521 -0.3089 -0.5384
12435TIP3    H158796  -0.006   6.238  15.731  1.5866 -1.3084  1.7805
12435TIP3    H258797   0.104   6.341  15.741 -0.4798  1.1540  0.3992
12436TIP3   OH258798   4.355   4.753   0.198 -0.1055 -0.1086  0.3755
12436TIP3    H158799   4.396   4.759   0.111 -0.6434  0.9508  0.1791
12436TIP3    H258800   4.405   4.815   0.251  0.3336 -0.8825  0.8859
12437TIP3   OH258801   0.001   5.916  16.100  0.3534  0.2304  0.3164
12437TIP3    H158802  -0.022   5.944  16.188 -0.1692 -0.1481  0.3072
12437TIP3    H258803  -0.080   5.880  16.064  0.9180 -0.9686  0.2117
12438TIP3   OH258804   1.914   0.770  12.226 -0.3610 -0.4856 -0.5555
12438TIP3    H158805   1.874   0.857  12.221  0.1539 -0.2365 -0.4256
12438TIP3    H258806   1.982   0.771  12.159  0.4409 -0.3583  0.2311
12439TIP3   OH258807   4.604   1.799  12.703  0.4583 -0.4029 -0.1297
12439TIP3    H158808   4.556   1.796  12.620 -1.0776  0.3664  0.6917
12439TIP3    H258809   4.608   1.707  12.732  0.1676 -0.5616 -0.5891
12440TIP3   OH258810   1.855   5.016  13.226  0.1540 -0.1976  0.3745
12440TIP3    H158811   1.915   5.034  13.299 -0.8172 -1.2431  1.4767
12440TIP3    H258812   1.794   5.090  13.226 -0.7400 -0.9106  1.6011
12441TIP3   OH258813   3.295   2.418  12.466 -0.2444  0.0909  0.4674
12441TIP3    H158814   3.334   2.444  12.383  0.6313  0.2158  0.9012
12441TIP3    H258815   3.219   2.475  12.476  0.5573  1.1883  0.5036
12442TIP3   OH258816   2.845   3.031   0.200  0.4371  0.2623  0.3407
12442TIP3    H158817   2.890   3.112   0.174  2.2730 -0.9061 -0.3440
12442TIP3    H258818   2.765   3.032   0.148  0.4870  1.5681  0.2363
12443TIP3   OH258819   3.525   2.409   2.943  0.3091  0.3858 -0.0271
12443TIP3    H158820   3.526   2.490   2.995  0.7306  0.6824 -0.4879
12443TIP3    H258821   3.551   2.437   2.855  0.9903 -0.3270 -0.0638
12444TIP3   OH258822   6.824   3.929   2.821 -0.6761  0.4448 -0.8353
12444TIP3    H158823   6.835   3.854   2.880  1.2373  0.6110 -0.9309
12444TIP3    H258824   6.753   3.902   2.762  0.0281 -1.3416 -0.9326
12445TIP3   OH258825   6.369   3.406   4.807 -0.3855  0.3798 -0.3709
12445TIP3    H158826   6.460   3.384   4.788 -0.1046  1.1279  0.0730
12445TIP3    H258827   6.337   3.448   4.728 -0.4446 -0.1609 -0.6404
12446TIP3   OH258828   6.725   0.695  14.741  0.5589  0.6371  0.0956
12446TIP3    H158829   6.666   0.767  14.764  0.1370  0.1399  0.5991
12446TIP3    H258830   6.668   0.618  14.739  1.6002 -0.3266  3.1066
12447TIP3   OH258831   3.439   1.794  15.828 -0.2909 -0.3846  0.0355
12447TIP3    H158832   3.362   1.759  15.784 -1.2690  0.5693  0.9422
12447TIP3    H258833   3.490   1.717  15.853 -1.2900 -1.0603  0.0129
12448TIP3   OH258834   6.058   5.435   0.843  0.0954  0.6932 -0.2467
12448TIP3    H158835   5.965   5.420   0.825  0.1565  1.3254 -1.1778
12448TIP3    H258836   6.104   5.379   0.780  0.3254  1.1895 -0.5353
12449TIP3   OH258837   4.311   3.515  15.377  0.0169 -0.0939 -0.4820
12449TIP3    H158838   4.346   3.428  15.394  1.7458  0.4456 -1.0742
12449TIP3    H258839   4.216   3.501  15.368  0.1517 -1.7613  0.2447
12450TIP3   OH258840   2.072   6.741  15.600  0.3045 -0.6460  0.6533
12450TIP3    H158841   2.028   6.807  15.653 -1.5528 -1.5946  0.3784
12450TIP3    H258842   2.020   6.661  15.613  1.1588 -1.4739 -0.7610
12451TIP3   OH258843   4.071   5.975  11.385  0.3185 -0.4287  0.0562
12451TIP3    H158844   4.041   6.059  11.420  0.6014 -0.6351  0.7951
12451TIP3    H258845   4.043   5.977  11.293 -1.1864 -0.2371  0.4890
12452TIP3   OH258846   6.527   6.185   1.566  0.2750 -0.0104 -0.3105
12452TIP3    H158847   6.564   6.229   1.490 -1.9410  0.5891 -1.1321
12452TIP3    H258848   6.561   6.096   1.561  1.2979  0.4111 -1.1938
12453TIP3   OH258849   3.553   1.798  16.542 -0.6935  0.3651  0.4281
12453TIP3    H158850   3.520   1.865  16.482 -2.5061 -0.6650  0.2239
12453TIP3    H258851   3.540   1.836  16.629  1.4385  1.6297  0.2871
12454TIP3   OH258852   1.655   2.199  15.632  0.2307  0.0822 -0.2605
12454TIP3    H158853   1.618   2.244  15.708  1.2361 -1.1262  0.9929
12454TIP3    H258854   1.719   2.139  15.668 -0.1892 -1.4929 -1.9767
12455TIP3   OH258855   5.288   2.544  12.317 -0.4252  0.4221  0.0136
12455TIP3    H158856   5.272   2.626  12.271 -0.4051 -0.8941 -2.5368
12455TIP3    H258857   5.227   2.482  12.277  1.1827 -1.3568  0.1661
12456TIP3   OH258858   3.054   3.690  11.352  0.2781  0.1467  0.0851
12456TIP3    H158859   2.968   3.715  11.385  0.2956  2.4594 -1.3999
12456TIP3    H258860   3.088   3.630  11.418 -1.8344  0.3654  1.4795
12457TIP3   OH258861   5.114   5.732   3.442 -0.4291 -0.1189 -0.8945
12457TIP3    H158862   5.197   5.749   3.397  0.0556 -1.1494 -0.4213
12457TIP3    H258863   5.074   5.819   3.452  0.4195  0.3504 -1.4580
12458TIP3   OH258864   4.974   3.390   4.816 -0.3971 -0.0883  0.1730
12458TIP3    H158865   4.929   3.465   4.777 -2.2688 -1.1763  0.0676
12458TIP3    H258866   5.017   3.347   4.742 -0.1563  0.3286  0.0690
12459TIP3   OH258867   2.164   4.870   5.301  0.3582  0.1123 -0.0112
12459TIP3    H158868   2.246   4.893   5.345  1.3813 -0.3281 -1.5997
12459TIP3    H258869   2.130   4.953   5.269  0.2194  0.2869  0.5788
12460TIP3   OH258870   4.725   3.480   0.956  0.4206 -0.0077 -0.1529
12460TIP3    H158871   4.768   3.556   0.917  0.1347 -0.5091 -1.5119
12460TIP3    H258872   4.675   3.442   0.884 -2.3915  0.5945  1.3414
12461TIP3   OH258873   2.743   3.516   5.852  0.4514  0.4221  0.2864
12461TIP3    H158874   2.820   3.560   5.889 -1.9142  3.2124  2.3579
12461TIP3    H258875   2.688   3.498   5.928 -1.4091 -0.5553 -1.2133
12462TIP3   OH258876   1.369   3.834  12.187 -0.0931  0.3637  0.1946
12462TIP3    H158877   1.368   3.886  12.106  0.1473 -0.2206 -0.1961
12462TIP3    H258878   1.317   3.884  12.249  1.4093  1.8521  0.3147
12463TIP3   OH258879   4.291   2.024  14.021 -0.0559 -0.0812  0.3132
12463TIP3    H158880   4.285   2.049  14.113  1.9862  2.5217 -0.1522
12463TIP3    H258881   4.304   2.106  13.974 -0.4089 -1.3849 -2.2595
12464TIP3   OH258882   5.700   2.076  11.252  0.0706 -0.4333  0.4528
12464TIP3    H158883   5.618   2.112  11.219  0.5548 -0.2249 -0.5663
12464TIP3    H258884   5.692   2.081  11.347 -1.7345 -1.8670  0.4347
12465TIP3   OH258885   3.406   1.023   5.613 -0.0179 -0.1154 -0.3107
12465TIP3    H158886   3.433   0.967   5.686 -0.5816 -1.0427 -0.8012
12465TIP3    H258887   3.323   1.062   5.643 -0.8295 -1.3582 -0.8695
12466TIP3   OH258888   0.779   2.369   3.074  0.1010 -0.2562 -0.4078
12466TIP3    H158889   0.692   2.399   3.046  0.6703  1.0459 -0.8860
12466TIP3    H258890   0.780   2.381   3.169 -0.2183 -0.2159 -0.4101
12467TIP3   OH258891   1.596   0.240   5.953 -0.4170 -0.4840  0.6821
12467TIP3    H158892   1.635   0.184   6.020 -0.1169  1.1674  1.9423
12467TIP3    H258893   1.617   0.329   5.981 -1.2166  0.2912 -1.0482
12468TIP3   OH258894   6.686   5.220  14.966 -0.7571 -0.0331  0.0899
12468TIP3    H158895   6.647   5.287  14.909  0.0882  0.9551  0.6298
12468TIP3    H258896   6.716   5.269  15.042  0.5366 -0.9255  0.1758
12469TIP3   OH258897   4.105   5.822   3.753  0.0800 -0.2745 -0.0939
12469TIP3    H158898   4.139   5.742   3.792  0.6068  0.8442  1.9306
12469TIP3    H258899   4.010   5.814   3.760  0.0573 -1.3594 -1.3574
12470TIP3   OH258900   2.854   1.125   3.657  0.2540  0.5554  0.1814
12470TIP3    H158901   2.857   1.056   3.590  0.4028  1.1384 -0.4120
12470TIP3    H258902   2.864   1.077   3.739  1.3922 -0.0383 -0.2778
12471TIP3   OH258903   0.608   0.215   5.901  0.2230 -0.0077  0.9766
12471TIP3    H158904   0.539   0.280   5.911  0.7878  0.7580  0.1028
12471TIP3    H258905   0.607   0.166   5.983 -1.1763  0.1459  1.0788
12472TIP3   OH258906   0.128   0.758  17.129  0.6451  0.0638 -0.0727
12472TIP3    H158907   0.072   0.816  17.078 -0.5004 -0.7914  0.1707
12472TIP3    H258908   0.100   0.771  17.220  0.0982 -1.1419 -0.0521
12473TIP3   OH258909   4.370   1.316  13.623  0.0762  0.0677 -0.2820
12473TIP3    H158910   4.299   1.277  13.674  0.6423  0.4098  0.7974
12473TIP3    H258911   4.409   1.242  13.576 -0.2952 -0.3033 -0.0147
12474TIP3   OH258912   4.834   4.490  11.444  0.1225  1.1158 -0.4863
12474TIP3    H158913   4.876   4.534  11.519  0.8578  1.3545 -1.0284
12474TIP3    H258914   4.905   4.474  11.383 -0.3419  0.1829 -0.7932
12475TIP3   OH258915   4.061   2.966   0.466 -0.2028  0.3775 -0.1009
12475TIP3    H158916   4.010   3.028   0.519 -3.5930 -1.5059 -0.8851
12475TIP3    H258917   4.038   2.987   0.376  0.9192 -0.1667 -0.5302
12476TIP3   OH258918   0.427   2.402  10.994  0.0022  0.3137 -0.5025
12476TIP3    H158919   0.347   2.445  10.963  0.6533  2.2040  0.2615
12476TIP3    H258920   0.448   2.338  10.926 -1.6966  0.3592 -1.1179
12477TIP3   OH258921   3.925   3.178  12.869 -0.0068  0.2074  0.0597
12477TIP3    H158922   3.917   3.144  12.780 -0.1076  0.4170 -0.0128
12477TIP3    H258923   3.946   3.270  12.857 -0.0063  0.2321  0.2541
12478TIP3   OH258924   0.233   1.535  15.604  0.4458 -0.2908  0.1157
12478TIP3    H158925   0.316   1.552  15.648  0.5858  0.0128 -0.2637
12478TIP3    H258926   0.223   1.607  15.542  0.6236 -1.1008 -0.8946
12479TIP3   OH258927   5.512   2.066   1.332 -0.0809  1.3639 -0.2527
12479TIP3    H158928   5.443   2.078   1.267 -0.2917  2.8100  0.2086
12479TIP3    H258929   5.592   2.094   1.288  0.4191 -0.9934 -1.0384
12480TIP3   OH258930   3.701   6.572   5.286 -0.0438 -0.3552  0.2741
12480TIP3    H158931   3.620   6.561   5.236 -0.0469 -0.7731  0.3701
12480TIP3    H258932   3.770   6.571   5.220 -0.0088 -1.3885  0.3124
12481TIP3   OH258933   0.649   4.849   6.050 -0.0486  0.2290  0.0180
12481TIP3    H158934   0.593   4.777   6.079 -0.3328 -0.0500 -1.1922
12481TIP3    H258935   0.658   4.905   6.128  0.1787 -1.0960  0.9730
12482TIP3   OH258936   5.845   0.105  15.544  0.0156 -0.3384 -0.1527
12482TIP3    H158937   5.889   0.078  15.625  0.7669  0.0578 -0.4176
12482TIP3    H258938   5.897   0.065  15.474 -0.9370 -1.1241 -0.4349
12483TIP3   OH258939   1.918   1.888  13.837 -1.0230  0.1825  0.0662
12483TIP3    H158940   1.919   1.804  13.791 -2.4618  0.7821 -1.1371
12483TIP3    H258941   1.994   1.935  13.803  0.0569 -0.7563  1.0741
12484TIP3   OH258942   0.920   5.716  12.119  0.0170  0.4863  0.0595
12484TIP3    H158943   0.851   5.654  12.143  0.1530  0.7357  1.1718
12484TIP3    H258944   0.984   5.664  12.071 -0.2402 -0.0699  0.3175
12485TIP3   OH258945   1.279   3.461   5.922  0.2190 -0.6782 -0.4873
12485TIP3    H158946   1.257   3.401   5.993 -0.5554  0.3424  0.1436
12485TIP3    H258947   1.205   3.456   5.862  1.1053 -1.9499 -1.5442
12486TIP3   OH258948   1.686   5.312   6.040  0.1605  0.3405 -0.2917
12486TIP3    H158949   1.661   5.361   5.962  1.9476  0.1447 -1.0312
12486TIP3    H258950   1.704   5.379   6.106 -0.4214  0.5454 -0.3377
12487TIP3   OH258951   0.606   2.704   0.929  0.1007  0.0123 -0.1431
12487TIP3    H158952   0.532   2.646   0.907  0.2924 -0.4620  0.4545
12487TIP3    H258953   0.628   2.745   0.845  0.2061 -1.0696 -0.6773
12488TIP3   OH258954   1.998   5.627   3.100  0.0295 -0.1081 -0.0753
12488TIP3    H158955   2.071   5.567   3.114 -0.9170 -0.5850  3.6794
12488TIP3    H258956   1.923   5.585   3.142 -2.0215  1.2718 -2.0936
12489TIP3   OH258957   2.047   3.927   3.651  0.3505 -0.0818  0.1257
12489TIP3    H158958   2.073   3.998   3.594  1.2194  0.8907  1.6690
12489TIP3    H258959   1.957   3.906   3.624  0.0015  1.7274 -0.2304
12490TIP3   OH258960   1.319   6.233  12.635 -0.2740 -0.4886  0.4185
12490TIP3    H158961   1.271   6.309  12.669 -2.5036 -1.3046 -0.6969
12490TIP3    H258962   1.294   6.161  12.692 -1.2153 -1.1267 -0.7539
12491TIP3   OH258963   1.620   6.153   2.033 -0.1740  0.0106 -0.0728
12491TIP3    H158964   1.714   6.142   2.041 -0.2271 -0.7742 -0.3952
12491TIP3    H258965   1.607   6.192   1.947 -0.0606  1.5938  0.5943
12492TIP3   OH258966   4.566   3.834   0.414  0.1334  0.3086  0.1433
12492TIP3    H158967   4.647   3.798   0.379  0.6254  0.7384  0.8104
12492TIP3    H258968   4.518   3.865   0.337  0.8788  0.6011 -0.2159
12493TIP3   OH258969   2.069   6.513  11.795 -0.6374 -0.1651  0.0286
12493TIP3    H158970   1.993   6.476  11.750  0.6603 -1.2439 -1.3484
12493TIP3    H258971   2.083   6.455  11.870 -0.5645 -0.5776 -0.3000
12494TIP3   OH258972   2.379   0.206   1.003 -0.5116  0.0604 -0.2906
12494TIP3    H158973   2.430   0.174   1.077  0.2153 -1.7150 -1.5036
12494TIP3    H258974   2.308   0.142   0.993 -2.3848  1.8921  0.6801
12495TIP3   OH258975   1.870   1.917  11.806 -0.7694  0.1239 -0.7446
12495TIP3    H158976   1.932   1.946  11.873 -1.2542  2.1161 -1.0973
12495TIP3    H258977   1.914   1.844  11.762  0.6562  0.4849  0.0279
12496TIP3   OH258978   0.627   6.580  15.572  0.4951 -0.1836  0.1015
12496TIP3    H158979   0.674   6.544  15.497  1.7641  0.2374  0.6651
12496TIP3    H258980   0.545   6.612  15.535  0.7022 -0.7961 -0.9445
12497TIP3   OH258981   5.944   0.700   2.479 -0.2194 -0.1284  0.4726
12497TIP3    H158982   5.871   0.736   2.429  0.0637 -1.2080 -0.7903
12497TIP3    H258983   5.905   0.629   2.531 -0.3032  0.1824  0.8327
12498TIP3   OH258984   6.419   1.967   3.611 -0.1299 -0.5176 -0.0547
12498TIP3    H158985   6.476   1.952   3.686 -0.3144  0.8030  0.3728
12498TIP3    H258986   6.475   2.012   3.547 -0.1360 -1.1114 -0.4964
12499TIP3   OH258987   6.586   4.852   5.168  0.0436 -0.3078  0.1828
12499TIP3    H158988   6.668   4.806   5.185 -0.2691 -1.1371 -0.4611
12499TIP3    H258989   6.557   4.818   5.083 -1.8914 -1.4467  1.2106
12500TIP3   OH258990   2.339   1.510   2.566  0.2183  0.6998  0.2505
12500TIP3    H158991   2.328   1.553   2.652  0.6402 -0.1772  0.7538
12500TIP3    H258992   2.339   1.417   2.586  0.1957  0.4850 -0.7347
12501TIP3   OH258993   6.180   2.626   3.243 -0.0254 -0.7095  0.1505
12501TIP3    H158994   6.156   2.589   3.158  1.2499  2.5003 -1.8305
12501TIP3    H258995   6.102   2.675   3.270  0.5121  0.8020 -0.8452
12502TIP3   OH258996   6.361   1.649   3.574  0.0414  0.3940 -0.1532
12502TIP3    H158997   6.339   1.565   3.532 -1.1188  0.9876 -0.7936
12502TIP3    H258998   6.359   1.630   3.668  1.3258 -0.6475 -0.3112
12503TIP3   OH258999   6.104   4.637  15.849 -0.5577  0.4268 -0.2266
12503TIP3    H159000   6.140   4.721  15.876 -0.2102  0.4715 -0.8013
12503TIP3    H259001   6.145   4.619  15.765 -1.7662  0.4056 -0.8452
12504TIP3   OH259002   6.773   2.909  17.004  0.4268 -0.0979 -0.1354
12504TIP3    H159003   6.784   2.818  17.032  0.5711  0.1124  0.5030
12504TIP3    H259004   6.810   2.961  17.076  1.0549  0.4446 -0.8377
12505TIP3   OH259005   6.225   2.892  15.542  0.1989  0.7723  0.5046
12505TIP3    H159006   6.208   2.827  15.610 -1.2740  1.1106  0.5025
12505TIP3    H259007   6.318   2.883  15.523  0.3834 -0.1615  1.6996
12506TIP3   OH259008   5.727   5.042   0.235  0.3786 -0.1149 -0.4795
12506TIP3    H159009   5.650   5.037   0.179  1.4191 -1.0158 -1.9138
12506TIP3    H259010   5.768   4.955   0.228  0.6763 -0.1841  1.5316
12507TIP3   OH259011   1.176   4.460  16.804 -0.2240  0.0752 -0.1408
12507TIP3    H159012   1.258   4.481  16.761 -1.1819 -0.6744 -2.4831
12507TIP3    H259013   1.130   4.402  16.743 -0.7401 -3.0501  2.8583
12508TIP3   OH259014   6.368   0.147  12.698  0.0647  0.5144 -0.2416
12508TIP3    H159015   6.353   0.233  12.661 -0.7799  0.9457  1.0206
12508TIP3    H259016   6.460   0.148  12.726  0.2417  0.7523 -0.8111
12509TIP3   OH259017   5.152   4.607  13.933 -0.4857  0.1355 -0.1032
12509TIP3    H159018   5.181   4.623  13.843 -2.2335  0.8756 -0.5744
12509TIP3    H259019   5.139   4.694  13.970 -2.2060 -0.1458  0.0169
12510TIP3   OH259020   6.162   4.011  11.888 -0.6208  0.5558 -0.0188
12510TIP3    H159021   6.115   3.963  11.956  1.9839 -0.4860  1.1862
12510TIP3    H259022   6.196   4.089  11.932 -2.0931  1.9181 -1.1622
12511TIP3   OH259023   1.667   3.507   4.170 -0.4724  0.2643 -0.0329
12511TIP3    H159024   1.646   3.433   4.227 -1.8563 -0.9378 -1.9860
12511TIP3    H259025   1.761   3.501   4.155 -0.2835 -0.0631  1.1561
12512TIP3   OH259026   1.073   2.686  13.468 -0.3461  0.4332 -0.2915
12512TIP3    H159027   1.024   2.655  13.392  0.9338 -0.0039 -0.9716
12512TIP3    H259028   1.164   2.669  13.446  0.0570  0.2172  1.3884
12513TIP3   OH259029   6.065   0.752  13.813  0.2387 -0.3059  0.0159
12513TIP3    H159030   6.003   0.687  13.779  0.9932 -1.0797  0.0922
12513TIP3    H259031   6.015   0.833  13.816 -0.7414 -0.8940 -0.0259
12514TIP3   OH259032   2.844   1.216  13.802  0.0115 -0.2931  0.2964
12514TIP3    H159033   2.799   1.281  13.856  2.8929 -0.7329  3.5882
12514TIP3    H259034   2.932   1.251  13.790  1.2201 -2.8616  0.9487
12515TIP3   OH259035   3.402   2.425   5.315 -0.1264 -0.2532  0.2421
12515TIP3    H159036   3.366   2.340   5.342 -0.3789 -0.0529  0.5435
12515TIP3    H259037   3.358   2.444   5.232 -1.8983  0.7059  1.3469
12516TIP3   OH259038   6.249   6.526   4.744 -0.2256  0.0459  0.4620
12516TIP3    H159039   6.206   6.561   4.667  2.7403  0.1931 -1.2913
12516TIP3    H259040   6.206   6.442   4.760 -1.0599  0.1191 -1.1994
12517TIP3   OH259041   6.617   4.760  11.515 -0.5515 -0.7264 -0.3835
12517TIP3    H159042   6.565   4.761  11.434 -0.3834  3.3633 -0.6395
12517TIP3    H259043   6.559   4.722  11.580 -1.6218 -1.7945 -1.8824
12518TIP3   OH259044   4.774   2.609   4.190 -0.5233 -0.7366 -0.2770
12518TIP3    H159045   4.749   2.524   4.226 -1.0269 -0.1172  0.9221
12518TIP3    H259046   4.691   2.651   4.167 -0.4332  0.0793  0.7536
12519TIP3   OH259047   1.159   0.370  15.951 -0.1197 -0.2854 -0.1757
12519TIP3    H159048   1.178   0.277  15.966 -1.2501 -0.2439  1.9138
12519TIP3    H259049   1.210   0.415  16.018 -0.4540  0.5136 -0.4575
12520TIP3   OH259050   6.632   3.538   6.231 -0.6925  0.3317 -0.1010
12520TIP3    H159051   6.720   3.526   6.267 -0.8842  0.1108  0.2933
12520TIP3    H259052   6.647   3.573   6.143 -0.2279  1.2846  0.3440
12521TIP3   OH259053   3.691   0.343   0.883  0.0783  0.2377  0.0014
12521TIP3    H159054   3.644   0.288   0.945  0.8665  0.7139  1.0449
12521TIP3    H259055   3.653   0.321   0.798 -0.0928 -1.4074  0.4729
12522TIP3   OH259056   4.880   6.091  10.992  0.5428 -0.4820  0.5265
12522TIP3    H159057   4.830   6.018  11.030  1.8880 -1.4377  0.5159
12522TIP3    H259058   4.894   6.066  10.901 -1.0626  0.9531 -0.1746
12523TIP3   OH259059   5.436   6.436  11.158 -0.4463 -0.1161  0.2421
12523TIP3    H159060   5.381   6.480  11.222  0.3909 -0.4678  1.2409
12523TIP3    H259061   5.388   6.357  11.135  0.0266 -0.9114  1.8358
12524TIP3   OH259062   5.049   5.415  16.315 -0.0928  0.0383  0.4547
12524TIP3    H159063   5.135   5.413  16.356  0.0059  2.5088  0.4904
12524TIP3    H259064   5.013   5.328  16.332  3.2539 -1.9726 -1.5748
12525TIP3   OH259065   3.461   2.122  11.284 -0.2011 -0.3858 -0.4885
12525TIP3    H159066   3.499   2.181  11.350 -1.9955 -0.0700  0.3123
12525TIP3    H259067   3.533   2.105  11.224  1.5848 -0.8106  1.6184
12526TIP3   OH259068   3.716   3.049  13.382 -0.0475 -0.0803  0.3219
12526TIP3    H159069   3.722   3.006  13.467  0.7866 -0.0281  0.2997
12526TIP3    H259070   3.710   2.977  13.319  1.4736 -0.2057  0.2744
12527TIP3   OH259071   5.094   0.335  13.410  0.1152  0.2800  0.1509
12527TIP3    H159072   5.020   0.293  13.453  1.7686 -1.6481  1.2852
12527TIP3    H259073   5.103   0.289  13.327 -0.0144  0.5808 -0.0310
12528TIP3   OH259074   4.978   4.350  16.331 -0.2262  0.7314 -0.0121
12528TIP3    H159075   4.960   4.440  16.306  0.3528  1.0569  0.7230
12528TIP3    H259076   5.060   4.329  16.287 -0.2243  0.6465  0.0313
12529TIP3   OH259077   6.250   5.196   2.356 -0.5968 -0.7278  0.3231
12529TIP3    H159078   6.227   5.263   2.421 -2.9958  0.1501 -1.3232
12529TIP3    H259079   6.238   5.239   2.272 -0.2303 -2.6556 -0.7656
12530TIP3   OH259080   2.449   0.054   4.421 -0.2286  0.2578 -0.4427
12530TIP3    H159081   2.503  -0.005   4.368  0.9223  0.7384  0.1475
12530TIP3    H259082   2.493   0.055   4.507 -0.7077  1.3251 -0.2022
12531TIP3   OH259083   3.592   6.548  13.793 -0.5459  0.0590 -0.0302
12531TIP3    H159084   3.514   6.493  13.787 -1.2130  0.7816  1.4163
12531TIP3    H259085   3.586   6.588  13.880  0.2106  1.9488 -0.7968
12532TIP3   OH259086   5.163   1.019  16.746  0.2157  0.2740  0.1682
12532TIP3    H159087   5.213   1.056  16.674  1.2957  1.6866  1.5792
12532TIP3    H259088   5.072   1.025  16.717  0.6096  1.0230 -0.9760
12533TIP3   OH259089   5.444   2.123  15.115 -0.2659 -0.0707 -0.1515
12533TIP3    H159090   5.465   2.033  15.088 -3.0998 -0.1595 -2.6130
12533TIP3    H259091   5.510   2.177  15.073 -1.2075 -0.7381 -2.7246
12534TIP3   OH259092   3.104   6.036  12.424  0.2710  0.0787  0.2388
12534TIP3    H159093   3.143   6.122  12.439  2.3287 -0.0898 -3.1754
12534TIP3    H259094   3.145   5.979  12.488  3.7611  0.5153 -1.3776
12535TIP3   OH259095   3.744   2.705   1.598 -0.4960 -0.6269 -0.1807
12535TIP3    H159096   3.649   2.705   1.609 -0.3238  1.5530  2.1136
12535TIP3    H259097   3.774   2.624   1.641 -1.1159  0.3982  2.3590
12536TIP3   OH259098   4.692   2.830   1.105  0.4602 -0.3476 -0.3663
12536TIP3    H159099   4.692   2.816   1.199  0.6396  0.4240 -0.2462
12536TIP3    H259100   4.782   2.809   1.078  0.3929 -0.6253 -0.3764
12537TIP3   OH259101   3.133   1.735  14.888 -0.1014  0.3710  0.2099
12537TIP3    H159102   3.201   1.717  14.953 -0.4176  0.5872  0.6021
12537TIP3    H259103   3.126   1.830  14.885 -0.8215  0.3356  0.6268
12538TIP3   OH259104   6.496   6.621   6.697 -0.3080  0.6263 -0.1488
12538TIP3    H159105   6.466   6.694   6.750 -0.7977 -0.1590  0.6813
12538TIP3    H259106   6.416   6.584   6.660 -0.0894  0.3427 -0.3386
12539TIP3   OH259107   6.253   3.294  14.463  0.2523 -0.2387  0.1508
12539TIP3    H159108   6.223   3.290  14.373  0.3915  2.5479 -0.1211
12539TIP3    H259109   6.331   3.239  14.465  0.3866 -0.1517 -1.4930
12540TIP3   OH259110   0.095   2.611  10.575 -0.2802  0.1757  0.1566
12540TIP3    H159111   0.066   2.548  10.510 -1.6896 -0.2629  1.1719
12540TIP3    H259112   0.026   2.677  10.578  1.5461  2.3328 -1.5185
12541TIP3   OH259113   1.978   2.347  15.310  0.1985 -0.4417 -0.2369
12541TIP3    H159114   1.900   2.327  15.258 -0.3454  1.3159 -0.1599
12541TIP3    H259115   1.944   2.380  15.393  1.0423 -0.6534  0.2021
12542TIP3   OH259116   4.330   0.167   5.059 -0.5332  0.0458  0.5891
12542TIP3    H159117   4.329   0.157   4.964  1.7150 -0.3846  0.5555
12542TIP3    H259118   4.405   0.115   5.088 -0.7528  0.7269  2.5410
12543TIP3   OH259119   0.616   2.420   1.494 -0.1753 -0.7423  0.2299
12543TIP3    H159120   0.640   2.509   1.469  0.2410 -0.9559 -0.1309
12543TIP3    H259121   0.610   2.422   1.590 -1.4859  0.0070  0.1496
12544TIP3   OH259122   2.769   5.395  13.679 -0.2668 -0.3649  0.3374
12544TIP3    H159123   2.767   5.320  13.739 -0.7809 -1.1398 -0.6202
12544TIP3    H259124   2.681   5.431  13.682  0.1868  0.6922  1.3790
12545TIP3   OH259125   2.325   5.116  10.966 -0.2368  0.4777  0.1591
12545TIP3    H159126   2.303   5.049  10.902  1.7158 -2.0041  1.8841
12545TIP3    H259127   2.261   5.186  10.951 -1.7749 -1.3195 -2.3789
12546TIP3   OH259128   3.590   5.469  14.541 -0.2148  0.2783  0.1159
12546TIP3    H159129   3.514   5.494  14.489 -0.5031 -0.5522  0.1130
12546TIP3    H259130   3.579   5.513  14.625 -1.4878 -0.9868  0.6530
12547TIP3   OH259131   4.770   5.671   1.827  0.0381 -0.1774 -0.1247
12547TIP3    H159132   4.795   5.752   1.871 -1.6635  0.4623 -0.2615
12547TIP3    H259133   4.719   5.698   1.751 -1.6578 -1.3411  0.5143
12548TIP3   OH259134   1.100   2.002   0.606 -0.0034  0.1891  0.7373
12548TIP3    H159135   1.039   2.069   0.636  1.2296  1.6920  0.0153
12548TIP3    H259136   1.147   1.975   0.685 -0.0297  0.6922  0.9273
12549TIP3   OH259137   5.463   4.278  12.477  1.0211  0.0436 -0.3262
12549TIP3    H159138   5.555   4.258  12.457  2.3284  1.1534  3.6040
12549TIP3    H259139   5.463   4.301  12.570 -3.4702 -0.8692  0.1308
12550TIP3   OH259140   5.535   4.218   5.674  0.1970  0.1866  0.3952
12550TIP3    H159141   5.514   4.311   5.685 -2.0606 -0.3099  0.7793
12550TIP3    H259142   5.474   4.188   5.606  0.0300 -1.2693  1.1507
12551TIP3   OH259143   2.715   5.987   0.545  0.0268 -0.3316 -0.3976
12551TIP3    H159144   2.712   5.900   0.505  0.2374 -0.2019 -0.6964
12551TIP3    H259145   2.632   6.028   0.520 -0.5086 -0.7960  0.5537
12552TIP3   OH259146   6.230   5.776   3.003  0.3965  0.0578 -0.4106
12552TIP3    H159147   6.253   5.736   3.087  0.1358 -1.0577 -0.8577
12552TIP3    H259148   6.274   5.721   2.938  0.2628  0.6752 -1.0277
12553TIP3   OH259149   5.169   4.300   3.636 -0.0642  0.0698  0.6275
12553TIP3    H159150   5.189   4.386   3.599 -1.9539  1.0501  1.7355
12553TIP3    H259151   5.194   4.307   3.728  1.2516 -1.1438  0.3958
12554TIP3   OH259152   5.309   3.336   5.817 -0.4340  0.6729  0.2303
12554TIP3    H159153   5.359   3.412   5.847  0.5015 -0.4915  1.8212
12554TIP3    H259154   5.350   3.311   5.734  0.1125  1.1318  0.3602
12555TIP3   OH259155   0.220   5.247  14.861  0.0029 -0.4359 -0.0101
12555TIP3    H159156   0.286   5.257  14.930  1.0381 -1.6073 -0.7846
12555TIP3    H259157   0.169   5.171  14.888  1.7932 -2.2855 -1.5315
12556TIP3   OH259158   5.699   0.276   1.690  0.5328 -0.1749 -0.5400
12556TIP3    H159159   5.711   0.243   1.779  1.2918  1.2401 -0.0831
12556TIP3    H259160   5.778   0.250   1.643 -1.0480 -3.4859 -1.7396
12557TIP3   OH259161   1.664   3.168   5.522  0.1253 -0.0689  0.2947
12557TIP3    H159162   1.594   3.199   5.465 -1.0228 -0.5789  1.3897
12557TIP3    H259163   1.680   3.241   5.582 -0.9469 -0.6949  1.3761
12558TIP3   OH259164   2.848   4.108  14.219 -0.2578 -0.0787 -0.7469
12558TIP3    H159165   2.864   4.196  14.253  1.4387 -0.8977  0.8209
12558TIP3    H259166   2.803   4.121  14.136  0.9638  2.3163 -1.1181
12559TIP3   OH259167   2.619   5.298   5.389 -0.0177  0.3267  0.0673
12559TIP3    H159168   2.541   5.256   5.354  0.9615 -0.3697 -1.3481
12559TIP3    H259169   2.681   5.227   5.402  0.8225  1.0277 -0.0255
12560TIP3   OH259170   4.503   5.510   1.350 -0.0679  0.3541 -0.5629
12560TIP3    H159171   4.442   5.571   1.309 -0.7878  0.8980  1.2068
12560TIP3    H259172   4.577   5.506   1.290 -1.3065  0.6221 -2.1818
12561TIP3   OH259173   5.815   2.933  10.680  0.1767  0.2937 -0.6242
12561TIP3    H159174   5.851   3.021  10.669  0.9594 -0.0438 -0.8816
12561TIP3    H259175   5.839   2.887  10.599 -2.3076  0.5186 -1.5656
12562TIP3   OH259176   4.304   6.760   1.714  0.5085 -0.5124 -0.5541
12562TIP3    H159177   4.344   6.825   1.772  0.3358 -0.7660 -0.1382
12562TIP3    H259178   4.305   6.800   1.628  1.7211 -0.5350 -0.5733
12563TIP3   OH259179   3.014   0.837  15.463  0.2543  0.0842 -0.4404
12563TIP3    H159180   2.974   0.797  15.386 -1.5872  1.5862 -0.3321
12563TIP3    H259181   3.054   0.763  15.509 -2.7883 -1.7174 -0.3524
12564TIP3   OH259182   2.658   4.720  16.076 -0.3875 -1.0757  0.0647
12564TIP3    H159183   2.627   4.649  16.021 -1.8728  0.1157 -0.6909
12564TIP3    H259184   2.644   4.799  16.024  1.3276 -0.2050  0.8318
12565TIP3   OH259185   1.341   5.376  13.958 -0.5692 -0.2851 -0.3287
12565TIP3    H159186   1.365   5.284  13.975  0.8577 -0.0183 -0.7311
12565TIP3    H259187   1.341   5.417  14.044 -1.3829 -0.6866 -0.1263
12566TIP3   OH259188   5.343   4.735   3.866  0.2705 -0.3333 -0.2909
12566TIP3    H159189   5.359   4.815   3.816 -1.1171 -0.8511 -1.6447
12566TIP3    H259190   5.251   4.742   3.892  0.5101 -0.8694  0.7797
12567TIP3   OH259191   4.320   2.725   4.068  0.4836  0.1677 -0.4399
12567TIP3    H159192   4.387   2.749   4.132 -0.8230 -0.4588  1.2475
12567TIP3    H259193   4.238   2.725   4.118 -0.5318 -0.8703 -2.0079
12568TIP3   OH259194   3.767   3.522  12.321  0.1852 -0.2587  0.3167
12568TIP3    H159195   3.799   3.558  12.404  1.7231 -1.8301  0.4565
12568TIP3    H259196   3.676   3.498  12.338 -0.0302  0.9473  1.0218
12569TIP3   OH259197   4.448   0.664  12.847 -0.6724  0.8155 -0.4913
12569TIP3    H159198   4.435   0.577  12.885  1.0224  1.1456  0.9894
12569TIP3    H259199   4.536   0.689  12.875 -2.0540  4.1142  1.4798
12570TIP3   OH259200   4.487   0.056   2.362  1.1269 -0.3001 -0.1107
12570TIP3    H159201   4.551  -0.015   2.370  0.4655 -0.7005  3.0824
12570TIP3    H259202   4.408   0.023   2.405  0.4521  1.9440  0.5300
12571TIP3   OH259203   6.676   4.189   5.635 -0.0264  0.5169  0.1911
12571TIP3    H159204   6.608   4.130   5.668  0.8016  0.0159  1.0487
12571TIP3    H259205   6.628   4.256   5.586 -1.0689 -0.2669  0.1082
12572TIP3   OH259206   4.341   2.277  13.877 -0.2407 -0.0211 -0.2046
12572TIP3    H159207   4.300   2.364  13.875 -1.0092 -0.3413  0.6872
12572TIP3    H259208   4.432   2.293  13.854 -0.5932  0.8841 -1.0267
12573TIP3   OH259209   6.122   6.445   2.787 -0.2468 -0.6738 -0.5668
12573TIP3    H159210   6.122   6.540   2.800  0.0256 -0.5313 -1.5585
12573TIP3    H259211   6.044   6.414   2.833 -0.7886  0.1267 -0.9412
12574TIP3   OH259212   6.175   1.842  16.543 -0.2241  0.3203  0.4278
12574TIP3    H159213   6.255   1.837  16.596 -0.2658 -1.4549  0.3836
12574TIP3    H259214   6.138   1.753  16.547 -1.4041  0.7279 -0.7724
12575TIP3   OH259215   6.414   3.224  13.986 -0.1611 -0.4871 -0.2049
12575TIP3    H159216   6.339   3.234  13.928 -0.8120 -1.3583  0.4617
12575TIP3    H259217   6.403   3.292  14.052 -0.1184 -0.3293 -0.3597
12576TIP3   OH259218   4.811   1.011  13.739  0.0620 -0.0090 -0.2676
12576TIP3    H159219   4.762   0.932  13.716 -1.7530  0.8206  0.4984
12576TIP3    H259220   4.830   1.001  13.832  1.0313 -0.1404 -0.4750
12577TIP3   OH259221   1.208   3.148  16.931 -0.3796  0.6132  0.3195
12577TIP3    H159222   1.126   3.170  16.974  0.4851  3.0187  0.8812
12577TIP3    H259223   1.272   3.145  17.002 -0.0154 -1.8725 -0.0164
12578TIP3   OH259224   1.585   1.178  15.737  0.0415  0.4397  0.1127
12578TIP3    H159225   1.552   1.167  15.647 -1.9050  1.0957  0.6852
12578TIP3    H259226   1.627   1.264  15.737  0.1882  0.3694 -0.2093
12579TIP3   OH259227   0.777   2.562   2.795  0.1635 -0.6188 -0.3417
12579TIP3    H159228   0.852   2.576   2.852  0.7952 -2.2448 -0.7321
12579TIP3    H259229   0.739   2.649   2.783  0.7028 -0.0875  1.5882
12580TIP3   OH259230   0.687   5.131  11.783  0.8059 -0.6597 -0.4877
12580TIP3    H159231   0.737   5.211  11.763  0.0550 -0.2488 -0.7673
12580TIP3    H259232   0.661   5.098  11.697  0.4269 -0.7600 -0.3329
12581TIP3   OH259233   1.149   6.136   4.280  0.2340 -0.2302 -0.1312
12581TIP3    H159234   1.196   6.060   4.315  0.1944  0.0708  0.5831
12581TIP3    H259235   1.058   6.122   4.304  0.4902  1.0198  1.8623
12582TIP3   OH259236   5.474   6.083  14.025 -0.1010 -0.1304 -0.0341
12582TIP3    H159237   5.520   6.163  14.050  1.7640 -0.7816 -1.2217
12582TIP3    H259238   5.506   6.063  13.937 -1.7607 -1.3179 -0.4158
12583TIP3   OH259239   3.132   5.018   5.301  0.6777 -0.1421  0.0530
12583TIP3    H159240   3.202   5.043   5.241 -0.3032 -1.2912 -1.6742
12583TIP3    H259241   3.089   4.944   5.258  0.3685 -1.5130  2.5642
12584TIP3   OH259242   5.306   5.909   4.912  0.0998 -0.2683 -0.4016
12584TIP3    H159243   5.281   5.883   4.823  1.5080 -2.3974 -0.2568
12584TIP3    H259244   5.362   5.985   4.900 -0.6113  0.1532 -1.2217
12585TIP3   OH259245   2.364   5.123   0.472  0.1389 -0.1416  0.2571
12585TIP3    H159246   2.320   5.202   0.440 -0.6316 -0.1667  1.1904
12585TIP3    H259247   2.362   5.063   0.398 -0.5829  0.1975 -0.0149
12586TIP3   OH259248   0.232   1.621   3.584 -0.1064 -1.0464  0.0788
12586TIP3    H159249   0.211   1.535   3.622 -0.3639 -1.3740 -0.7736
12586TIP3    H259250   0.265   1.601   3.496  0.3479 -0.2995  0.0689
12587TIP3   OH259251   2.650   5.216  12.986 -0.6322  0.0276  0.0187
12587TIP3    H159252   2.668   5.125  12.963 -0.3368  0.0836  0.0124
12587TIP3    H259253   2.701   5.230  13.066  0.0088  0.4297 -0.4505
12588TIP3   OH259254   3.816   1.518  15.011 -0.0468 -0.2666  0.2223
12588TIP3    H159255   3.871   1.470  15.073 -0.1264  1.5293  1.7625
12588TIP3    H259256   3.876   1.575  14.964 -0.2922  0.0430  0.2802
12589TIP3   OH259257   2.296   3.969   0.447 -0.4884  0.6177  0.3107
12589TIP3    H159258   2.209   3.930   0.442 -0.0295 -0.6497  1.5240
12589TIP3    H259259   2.351   3.913   0.392 -0.4619  1.5438 -0.6320
12590TIP3   OH259260   4.089   6.350   3.882 -0.4252 -0.5533 -0.3216
12590TIP3    H159261   4.158   6.374   3.943  0.9970 -0.4695 -1.8865
12590TIP3    H259262   4.078   6.256   3.895  0.3407 -0.6609 -0.3861
12591TIP3   OH259263   3.208   1.383   2.745 -0.0070 -0.6177 -0.0505
12591TIP3    H159264   3.154   1.305   2.737  0.1938 -0.6438 -1.5078
12591TIP3    H259265   3.194   1.430   2.663 -1.7619  1.9799  1.5873
12592TIP3   OH259266   4.666   5.274   6.290 -0.5611  0.2771  0.1210
12592TIP3    H159267   4.585   5.280   6.341  0.3514  0.4994  1.6215
12592TIP3    H259268   4.683   5.180   6.284  0.9307  0.2119  3.0656
12593TIP3   OH259269   6.326   0.689  13.786  0.6334  0.0124  0.0256
12593TIP3    H159270   6.238   0.724  13.801  1.5759  1.7256  2.0444
12593TIP3    H259271   6.356   0.735  13.707 -0.8535 -1.9477 -1.8149
12594TIP3   OH259272   3.751   1.698   4.632 -0.3700 -0.7019  0.4497
12594TIP3    H159273   3.698   1.710   4.554 -0.6191 -0.3594  0.6706
12594TIP3    H259274   3.799   1.617   4.616  1.4846  0.6218 -1.1347
12595TIP3   OH259275   4.495   5.521  16.997 -0.5060 -0.1539 -0.1238
12595TIP3    H159276   4.544   5.518  17.079 -1.9996 -0.7521  0.7894
12595TIP3    H259277   4.431   5.591  17.010  1.4284  2.1846 -2.1449
12596TIP3   OH259278   5.525   0.946  13.761 -0.1414  0.2186 -0.0952
12596TIP3    H159279   5.451   0.896  13.727 -1.3160  0.9545  1.2532
12596TIP3    H259280   5.562   0.990  13.685 -0.8690 -0.4346 -0.8462
12597TIP3   OH259281   5.859   3.962   1.114 -0.2809 -0.8012  0.1675
12597TIP3    H159282   5.913   4.034   1.083  2.4267 -2.9264 -0.4463
12597TIP3    H259283   5.843   3.982   1.207 -0.1690  0.8734 -0.1522
12598TIP3   OH259284   6.707   3.445   2.400  0.3398 -0.0097  0.3864
12598TIP3    H159285   6.770   3.374   2.414  1.8559  1.2736  0.3118
12598TIP3    H259286   6.746   3.521   2.443 -0.4566  1.1638 -0.8776
12599TIP3   OH259287   1.259   2.385  15.089  0.2467 -0.3488 -0.0057
12599TIP3    H159288   1.215   2.426  15.164  0.2382 -0.7648  0.2173
12599TIP3    H259289   1.301   2.458  15.043  0.7788 -0.1749  0.7515
12600TIP3   OH259290   6.092   1.797  13.984  0.0423  0.3873  0.1218
12600TIP3    H159291   6.068   1.729  13.921  1.8882 -0.5380  0.3706
12600TIP3    H259292   6.080   1.879  13.936 -0.9930 -0.1536 -0.5872
12601TIP3   OH259293   1.233   4.103  17.232  0.0210  0.0620 -0.0065
12601TIP3    H159294   1.303   4.079  17.292  0.9461  0.8436 -0.7482
12601TIP3    H259295   1.267   4.081  17.145 -0.9280 -0.1858 -0.3285
12602TIP3   OH259296   1.861   0.407  15.839 -0.4529  0.3331  0.3053
12602TIP3    H159297   1.782   0.375  15.796 -0.6466 -1.1444  1.6426
12602TIP3    H259298   1.830   0.453  15.917 -0.0179  0.1224  0.6086
12603TIP3   OH259299   6.223   4.227   3.623  0.0140 -0.1755 -0.4997
12603TIP3    H159300   6.288   4.202   3.557  1.4007 -0.7638  1.0276
12603TIP3    H259301   6.236   4.321   3.634 -0.2902 -0.0563 -1.1165
12604TIP3   OH259302   5.141   6.749   3.488 -0.4318  0.6024 -0.2052
12604TIP3    H159303   5.164   6.664   3.451 -0.3883  1.7509 -2.9983
12604TIP3    H259304   5.184   6.750   3.574  0.7094 -1.6290 -0.6830
12605TIP3   OH259305   6.674   2.593  15.730 -0.3454 -0.7037 -0.0721
12605TIP3    H159306   6.749   2.556  15.685 -1.4518 -1.7342 -1.1473
12605TIP3    H259307   6.700   2.597  15.822  0.6275 -2.0314 -0.2723
12606TIP3   OH259308   5.317   5.515  11.137  0.1579 -0.0479  0.2398
12606TIP3    H159309   5.283   5.528  11.048  1.4779  0.4672 -0.2224
12606TIP3    H259310   5.412   5.507  11.125  0.2934 -0.6724  1.5403
12607TIP3   OH259311   6.355   4.736   3.384 -0.3564  0.3625 -0.2831
12607TIP3    H159312   6.410   4.716   3.460 -1.1493 -1.0004 -0.0379
12607TIP3    H259313   6.389   4.680   3.314 -1.1390 -0.1745 -0.2485
12608TIP3   OH259314   0.832   1.216  11.167 -0.0557  0.5274  0.0117
12608TIP3    H159315   0.899   1.282  11.149 -1.0777  1.4189 -0.6778
12608TIP3    H259316   0.791   1.200  11.082  1.7679 -2.9021 -0.3847
12609TIP3   OH259317   5.692   3.251   5.830  0.4381 -0.4109 -0.0847
12609TIP3    H159318   5.635   3.291   5.764  0.2341  0.1393  0.4116
12609TIP3    H259319   5.687   3.310   5.905  1.7529 -0.2982 -0.0632
12610TIP3   OH259320   5.994   0.182   5.117 -0.4068  0.3208  0.5558
12610TIP3    H159321   5.963   0.180   5.207  0.3448  2.2869  0.9188
12610TIP3    H259322   6.081   0.143   5.120 -1.2913 -1.7968  0.2047
12611TIP3   OH259323   3.347   6.574  11.578 -0.9692  0.0557  0.4699
12611TIP3    H159324   3.433   6.601  11.547 -1.8934  0.8649 -1.5538
12611TIP3    H259325   3.354   6.480  11.589  0.0094  0.0314 -0.2044
12612TIP3   OH259326   0.356   1.515  13.446 -0.2555  0.0135 -0.4925
12612TIP3    H159327   0.396   1.512  13.359 -1.3912 -0.2723 -1.0213
12612TIP3    H259328   0.327   1.606  13.456  0.8402  0.3178  0.0517
12613TIP3   OH259329   2.354   3.674  14.303 -0.1646 -0.4881 -0.0165
12613TIP3    H159330   2.364   3.601  14.365  2.6137  1.4259  2.0445
12613TIP3    H259331   2.304   3.739  14.352 -0.3002  0.0365 -0.8380
12614TIP3   OH259332   6.691   5.747   4.473  0.3955  0.3841  0.0132
12614TIP3    H159333   6.702   5.689   4.549  1.0840  0.8694  0.2870
12614TIP3    H259334   6.677   5.833   4.511  1.7115  0.8062 -0.4095
12615TIP3   OH259335   5.394   0.183  14.658 -0.2389 -0.4602  0.3408
12615TIP3    H159336   5.301   0.201  14.642  0.2738  1.1384 -1.1505
12615TIP3    H259337   5.420   0.247  14.724 -0.0632 -0.5593  0.3701
12616TIP3   OH259338   2.090   3.112   3.611  0.3325  0.2955  0.1474
12616TIP3    H159339   2.007   3.154   3.588 -0.9836 -1.1698  1.9430
12616TIP3    H259340   2.134   3.174   3.668 -0.4427  0.2754  0.7687
12617TIP3   OH259341   0.310   2.686  12.073 -0.2900 -0.1673  0.2578
12617TIP3    H159342   0.313   2.662  12.166  2.5765  0.2931  0.3881
12617TIP3    H259343   0.281   2.777  12.074  0.2910  0.0291  0.7996
12618TIP3   OH259344   1.105   0.821  15.517  0.2154 -0.0798  0.0817
12618TIP3    H159345   1.105   0.865  15.602  1.5125  0.3217 -0.1066
12618TIP3    H259346   1.190   0.842  15.479  0.6981 -2.3440 -0.2353
12619TIP3   OH259347   6.825   5.297  11.892  0.3030  0.0695 -0.1185
12619TIP3    H159348   6.831   5.369  11.954 -0.3113 -0.0385  0.0681
12619TIP3    H259349   6.818   5.218  11.946  0.3011 -0.0734 -0.3227
12620TIP3   OH259350   3.178   4.882   0.405 -0.2228  0.7291 -0.3006
12620TIP3    H159351   3.097   4.835   0.428  0.9615 -1.3063 -0.0156
12620TIP3    H259352   3.216   4.830   0.334  1.4975  0.8631  0.4890
12621TIP3   OH259353   5.590   4.984  17.187  0.0927  0.6335 -0.2699
12621TIP3    H159354   5.540   4.902  17.190  0.6689  0.2982  0.6698
12621TIP3    H259355   5.529   5.048  17.149 -0.1195 -0.3862 -1.7599
12622TIP3   OH259356   2.596   0.974   4.312 -0.3976  0.8520  0.3054
12622TIP3    H159357   2.536   1.048   4.325  1.6194  2.5589  0.3584
12622TIP3    H259358   2.628   0.986   4.222  0.9096  0.7984  0.7580
12623TIP3   OH259359   1.203   1.961  17.047 -0.4180  0.4025  0.7810
12623TIP3    H159360   1.114   1.987  17.070 -0.7011 -0.1666  0.3639
12623TIP3    H259361   1.197   1.867  17.029  0.6959 -0.1245  2.8134
12624TIP3   OH259362   3.152   3.198   4.158 -0.4943  0.1416 -0.0050
12624TIP3    H159363   3.239   3.219   4.125 -1.2168  0.3193 -1.9255
12624TIP3    H259364   3.162   3.197   4.253  1.2768  1.6252 -0.1145
12625TIP3   OH259365   6.435   4.296  11.414 -0.0535 -0.0812 -0.3765
12625TIP3    H159366   6.400   4.337  11.335 -0.3003  1.1483  0.3450
12625TIP3    H259367   6.530   4.298  11.402 -0.0541  0.8727 -0.2790
12626TIP3   OH259368   6.732   3.230  16.118 -0.0933  0.9107  0.6091
12626TIP3    H159369   6.819   3.244  16.156  0.9486  2.7441 -2.1178
12626TIP3    H259370   6.751   3.197  16.030 -2.1154  2.1126 -0.3320
12627TIP3   OH259371   4.085   3.001  14.266 -0.1290 -0.2574  0.0798
12627TIP3    H159372   4.145   2.999  14.340  0.4448 -1.4031 -0.3954
12627TIP3    H259373   4.128   3.059  14.202  0.0319 -0.3666  0.0911
12628TIP3   OH259374   1.134   6.172   0.765 -0.0525  0.0133  0.3373
12628TIP3    H159375   1.207   6.126   0.808 -0.1513  0.8776  1.4561
12628TIP3    H259376   1.148   6.264   0.785 -2.4244  0.0795  2.1360
12629TIP3   OH259377   5.685   4.814   1.449 -0.1041 -0.8093  0.3711
12629TIP3    H159378   5.599   4.847   1.421  0.4078 -0.2711 -0.6294
12629TIP3    H259379   5.698   4.734   1.399  0.7052  0.0215 -0.8086
12630TIP3   OH259380   0.833   5.832   3.250 -0.1146  0.5508  0.5037
12630TIP3    H159381   0.907   5.771   3.257  0.8550  1.3745 -1.6247
12630TIP3    H259382   0.844   5.892   3.324  0.7443  0.0197  0.8249
12631TIP3   OH259383   4.351   5.992  11.848  0.8426  0.0442  0.0131
12631TIP3    H159384   4.422   5.943  11.888 -0.2483 -2.9874 -1.4163
12631TIP3    H259385   4.354   5.967  11.755 -0.2395  2.2187 -0.6797
12632TIP3   OH259386   6.453   1.309  15.039  0.1234  0.0591  0.2056
12632TIP3    H159387   6.370   1.346  15.068  1.0715  2.3386  0.2694
12632TIP3    H259388   6.511   1.320  15.115  1.0085  0.4671 -0.5071
12633TIP3   OH259389   6.057   1.209   0.461  0.0818 -0.3998 -0.2189
12633TIP3    H159390   6.150   1.212   0.483 -0.0974  1.0974  0.4716
12633TIP3    H259391   6.055   1.212   0.365  0.7600 -1.4330 -0.2744
12634TIP3   OH259392   6.109   5.221  15.449 -0.0282  0.7281  0.0334
12634TIP3    H159393   6.053   5.155  15.488  0.1199  0.0453 -0.8647
12634TIP3    H259394   6.050   5.271  15.392  0.2337  0.0732 -0.8343
12635TIP3   OH259395   3.061   1.333   5.656 -0.0541 -0.1057  0.2508
12635TIP3    H159396   3.028   1.413   5.615  0.3305 -0.3235 -0.5032
12635TIP3    H259397   3.020   1.332   5.742 -2.9719 -0.9149 -1.0011
12636TIP3   OH259398   2.808   3.986   2.585  0.3006  0.3066 -0.1009
12636TIP3    H159399   2.859   4.067   2.586  0.3549  0.2721 -0.0533
12636TIP3    H259400   2.871   3.917   2.607  0.1324  0.3193  0.4436
12637TIP3   OH259401   1.176   0.692   1.988  0.2836 -0.0598 -0.1058
12637TIP3    H159402   1.204   0.637   1.915 -0.3292 -0.1713 -0.2668
12637TIP3    H259403   1.135   0.632   2.050  1.3827 -0.0566  0.6434
12638TIP3   OH259404   5.409   3.361   2.825 -0.1094 -0.1186  0.4804
12638TIP3    H159405   5.379   3.351   2.734  1.5890  0.2384 -0.1693
12638TIP3    H259406   5.465   3.439   2.822  0.6125 -0.5762  1.6629
12639TIP3   OH259407   3.776   6.043  10.734 -0.0434 -0.2000 -0.0489
12639TIP3    H159408   3.810   6.016  10.820  0.8385  2.2942  0.4546
12639TIP3    H259409   3.719   5.970  10.708  1.5796 -2.1629  1.4850
12640TIP3   OH259410   3.767   1.602  11.286  0.2636  0.2382 -0.7209
12640TIP3    H159411   3.789   1.626  11.196  1.3502  0.1034 -0.5083
12640TIP3    H259412   3.803   1.674  11.339  0.0363  0.0894 -0.3630
12641TIP3   OH259413   2.325   5.464   0.844 -0.5420 -0.2643  0.0910
12641TIP3    H159414   2.229   5.467   0.844 -0.6461  2.8356 -2.5681
12641TIP3    H259415   2.346   5.378   0.807 -2.2653 -1.0879  0.8955
12642TIP3   OH259416   0.876   5.898   4.959  0.3212  0.1919 -0.0097
12642TIP3    H159417   0.867   5.898   4.864  0.2112  0.1702  0.0005
12642TIP3    H259418   0.847   5.810   4.986  1.2701 -0.1396 -0.0430
12643TIP3   OH259419   1.119   1.367  16.526  0.5734  0.3275 -0.3238
12643TIP3    H159420   1.212   1.346  16.535  0.5708  0.3489 -0.2486
12643TIP3    H259421   1.118   1.457  16.493  0.5564  1.3970  2.3617
12644TIP3   OH259422   0.065   3.308   1.655  0.5130 -0.0759 -0.8610
12644TIP3    H159423   0.090   3.392   1.695  0.1568  0.0776 -0.9610
12644TIP3    H259424   0.108   3.242   1.710  0.4157  0.1515 -0.5078
12645TIP3   OH259425   2.539   0.388   5.659 -0.3162 -0.4219 -0.5203
12645TIP3    H159426   2.613   0.435   5.696  0.1273 -0.8792 -0.8019
12645TIP3    H259427   2.556   0.296   5.681 -0.2837 -0.6436 -1.4340
12646TIP3   OH259428   5.639   0.765  16.688 -0.4281  0.2474  0.1707
12646TIP3    H159429   5.734   0.774  16.680 -0.5101  0.9299 -0.1169
12646TIP3    H259430   5.623   0.760  16.782 -0.2683  2.3251  0.3654
12647TIP3   OH259431   1.225   0.368  17.110 -0.1668 -0.6667  0.1847
12647TIP3    H159432   1.133   0.371  17.132 -0.4080 -1.2860 -0.6702
12647TIP3    H259433   1.270   0.407  17.185 -1.1221 -0.2953  0.5705
12648TIP3   OH259434   6.348   5.115  11.564  0.8036 -0.5764  0.6243
12648TIP3    H159435   6.308   5.033  11.591  2.3768 -1.4665  0.3353
12648TIP3    H259436   6.442   5.099  11.567  1.1546  1.2141  0.5575
12649TIP3   OH259437   1.948   4.456  12.300  0.6018  0.3847  0.2465
12649TIP3    H159438   2.009   4.396  12.256 -1.0826 -1.8756  0.7588
12649TIP3    H259439   1.885   4.480  12.232 -0.2762 -0.6984  0.6295
12650TIP3   OH259440   2.325   5.406   6.008  0.0463  0.0516 -0.3135
12650TIP3    H159441   2.334   5.459   5.929  0.9002  0.6961  0.2122
12650TIP3    H259442   2.240   5.430   6.044  0.8797  1.9069  0.5180
12651TIP3   OH259443   1.325   3.526  12.386  0.1547 -0.1833 -0.3980
12651TIP3    H159444   1.365   3.522  12.300  2.4490  0.0188  0.5889
12651TIP3    H259445   1.325   3.619  12.409  1.8358 -0.4222  0.7578
12652TIP3   OH259446   4.274   1.619  15.474  0.0968 -0.3448  0.0681
12652TIP3    H159447   4.324   1.700  15.470  0.3444 -0.4945  0.1507
12652TIP3    H259448   4.186   1.644  15.445  0.7514 -0.5136 -2.3208
12653TIP3   OH259449   6.523   4.516   2.917  0.2096 -0.1743 -0.0430
12653TIP3    H159450   6.434   4.536   2.890  0.6728  0.2085 -1.3361
12653TIP3    H259451   6.518   4.427   2.952 -0.8797  0.2608  0.9572
12654TIP3   OH259452   4.205   1.326  14.622 -0.0604  0.4120 -0.0819
12654TIP3    H159453   4.203   1.309  14.528 -3.1593 -3.1483  0.4225
12654TIP3    H259454   4.225   1.241  14.662  2.2261  2.0152  2.5943
12655TIP3   OH259455   5.647   3.392  15.868 -0.3241 -0.2213 -0.6353
12655TIP3    H159456   5.612   3.401  15.779  1.2140  0.1309 -1.2309
12655TIP3    H259457   5.741   3.408  15.859 -0.0150 -0.9344  0.9373
12656TIP3   OH259458   0.396   6.279  13.744 -0.1969  0.1760  0.5291
12656TIP3    H159459   0.399   6.236  13.659 -1.1854  0.9628  0.0712
12656TIP3    H259460   0.461   6.233  13.797 -0.0994 -0.8110 -0.4201
12657TIP3   OH259461   3.145   3.827   3.604 -0.3035  0.1882  0.2885
12657TIP3    H159462   3.055   3.858   3.604 -0.2098  0.4741 -0.2257
12657TIP3    H259463   3.164   3.807   3.696 -1.5583 -1.8150  0.1886
12658TIP3   OH259464   6.684   4.126   3.207 -0.2473 -0.0837  0.1235
12658TIP3    H159465   6.712   4.163   3.123  1.0407  0.1811  0.6401
12658TIP3    H259466   6.757   4.070   3.233 -1.0672 -0.9598  0.5983
12659TIP3   OH259467   5.360   2.796   6.387  0.0089  0.5620 -0.5377
12659TIP3    H159468   5.286   2.856   6.379 -0.6223 -0.0122  0.7074
12659TIP3    H259469   5.419   2.839   6.449  0.3006  0.6154 -0.8520
12660TIP3   OH259470   5.045   5.456   2.976  0.2780  0.0421  0.0887
12660TIP3    H159471   4.988   5.392   2.932 -0.7532  0.1857  1.1319
12660TIP3    H259472   4.986   5.528   2.999  1.0617  0.5674  0.4939
12661TIP3   OH259473   3.034   2.093   1.826 -0.0700 -0.0733 -0.4183
12661TIP3    H159474   2.957   2.150   1.822  0.6938  0.9461 -1.2132
12661TIP3    H259475   3.080   2.120   1.906 -1.0067 -1.3491  0.5892
12662TIP3   OH259476   2.501   0.338   5.368  0.8410  0.2467 -0.1548
12662TIP3    H159477   2.524   0.337   5.461  0.0699  0.4362  0.0416
12662TIP3    H259478   2.525   0.251   5.336 -2.3640 -1.2126  1.0852
12663TIP3   OH259479   6.321   4.611  14.046  0.2438  0.1965  0.0327
12663TIP3    H159480   6.334   4.653  13.961  1.7245 -2.5841 -1.2284
12663TIP3    H259481   6.278   4.528  14.026  1.0114 -0.7331  1.9495
12664TIP3   OH259482   2.157   5.738  12.965  0.2166 -0.5363  0.0712
12664TIP3    H159483   2.237   5.785  12.989  0.0911  0.7065 -1.7031
12664TIP3    H259484   2.185   5.678  12.896 -0.2073 -0.7274  0.0678
12665TIP3   OH259485   2.437   0.332   0.756 -0.0105 -0.4119 -0.0309
12665TIP3    H159486   2.356   0.317   0.707  1.2857 -2.0857 -1.8228
12665TIP3    H259487   2.417   0.305   0.845 -1.7562  0.4169 -0.1415
12666TIP3   OH259488   5.281   6.647  14.616  0.2154 -0.0317 -0.7318
12666TIP3    H159489   5.255   6.581  14.552  0.2784 -1.0970  0.3142
12666TIP3    H259490   5.199   6.692  14.639  0.1860  0.3365 -1.5008
12667TIP3   OH259491   3.625   3.841   5.274 -0.2347 -0.3329 -0.0112
12667TIP3    H159492   3.707   3.853   5.227 -1.7459  1.7891 -2.3343
12667TIP3    H259493   3.583   3.768   5.230 -0.7056  0.2684 -0.5780
12668TIP3   OH259494   3.628   4.723  12.926  0.4337  0.2593 -0.3474
12668TIP3    H159495   3.635   4.661  12.854 -1.2470 -0.2978 -0.0757
12668TIP3    H259496   3.714   4.720  12.969  0.6504 -1.2942 -0.8171
12669TIP3   OH259497   4.010   4.462  16.230  0.4329 -0.0711 -0.1100
12669TIP3    H159498   4.083   4.416  16.188  1.1953  1.0990 -0.1266
12669TIP3    H259499   4.052   4.516  16.297 -0.5832 -0.4317  0.8398
12670TIP3   OH259500   2.768   5.950  16.031  0.3563 -0.0748 -0.3481
12670TIP3    H159501   2.793   6.028  15.982  1.3847 -1.3169 -1.8814
12670TIP3    H259502   2.836   5.940  16.098  0.6810 -0.1235 -0.6869
12671TIP3   OH259503   5.212   4.717   2.868 -0.0769  0.1792 -0.3434
12671TIP3    H159504   5.203   4.641   2.810 -0.2127 -0.3282  0.3348
12671TIP3    H259505   5.303   4.713   2.898 -0.2890 -0.1466  0.2736
12672TIP3   OH259506   1.375   2.134   0.005 -0.6479 -0.2649  0.3160
12672TIP3    H159507   1.290   2.092   0.016 -0.2801 -1.2856 -0.5785
12672TIP3    H259508   1.436   2.062  -0.009  0.1815  0.5084 -0.1444
12673TIP3   OH259509   4.462   2.012   5.404  0.2741 -0.1887  0.1475
12673TIP3    H159510   4.389   2.040   5.348 -1.4647 -1.3744  1.6992
12673TIP3    H259511   4.469   2.079   5.471  1.7169  0.7266 -0.8523
12674TIP3   OH259512   4.654   5.625  12.513 -0.1242  0.2435  0.0323
12674TIP3    H159513   4.724   5.675  12.555 -1.5407  0.7773  1.9227
12674TIP3    H259514   4.581   5.687  12.505 -0.2761 -0.1472 -2.3476
12675TIP3   OH259515   0.789   1.897  13.583 -0.7902  0.8131  0.0616
12675TIP3    H159516   0.865   1.931  13.631 -0.8578  1.4157 -0.2517
12675TIP3    H259517   0.809   1.914  13.491  0.0259 -1.6797 -0.2964
12676TIP3   OH259518   4.750   2.073  13.780 -0.4010 -0.2477  0.1564
12676TIP3    H159519   4.725   2.050  13.869 -0.4697 -0.6493  0.0359
12676TIP3    H259520   4.846   2.070  13.779 -0.4061 -0.4230  0.1711
12677TIP3   OH259521   2.625   6.316   0.703 -0.3031  0.2990 -0.1918
12677TIP3    H159522   2.671   6.394   0.671 -0.7904  1.7881  2.4640
12677TIP3    H259523   2.548   6.309   0.647 -0.4097  1.9273 -0.3013
12678TIP3   OH259524   5.773   1.129  11.349  0.0822 -0.0661  0.0892
12678TIP3    H159525   5.722   1.208  11.367 -0.4069 -0.5876  1.0763
12678TIP3    H259526   5.844   1.131  11.413 -0.4000 -0.8177  0.6733
12679TIP3   OH259527   1.068   2.111  16.279  0.5498  0.1324  0.5620
12679TIP3    H159528   1.073   2.023  16.318 -0.0443  0.3268  1.0904
12679TIP3    H259529   1.129   2.108  16.206  0.1490 -0.8986  0.2472
12680TIP3   OH259530   0.446   4.424  13.214 -0.1223 -0.5677  0.5516
12680TIP3    H159531   0.352   4.411  13.200 -0.1527 -0.2807  0.4998
12680TIP3    H259532   0.457   4.413  13.309 -0.2296 -0.4555  0.5767
12681TIP3   OH259533   3.867   4.471   2.894  0.0827  0.1440 -0.3088
12681TIP3    H159534   3.956   4.435   2.889  0.2768  0.6751 -0.8021
12681TIP3    H259535   3.823   4.416   2.958  1.3824  1.1628  1.5537
12682TIP3   OH259536   4.653   6.529  13.612  0.2806 -0.0215 -0.0318
12682TIP3    H159537   4.702   6.560  13.688 -0.2983  0.9953 -0.0569
12682TIP3    H259538   4.607   6.451  13.643  1.3206 -0.5695  0.1892
12683TIP3   OH259539   2.921   2.743   3.017 -0.1184  0.3153 -0.0792
12683TIP3    H159540   2.907   2.826   3.063  0.1432  1.6250 -2.2364
12683TIP3    H259541   2.833   2.706   3.007 -0.3641  0.8970 -0.1055
12684TIP3   OH259542   1.069   2.523   5.196  0.2403  0.0971 -0.3299
12684TIP3    H159543   1.148   2.469   5.202 -0.6964 -1.2624  0.1813
12684TIP3    H259544   1.094   2.595   5.139  1.2214 -1.4510 -1.9666
12685TIP3   OH259545   0.503   2.489  15.508  0.5845  0.3009 -0.0370
12685TIP3    H159546   0.422   2.457  15.546 -0.5731  2.3878 -0.6132
12685TIP3    H259547   0.553   2.522  15.582 -0.8456  2.6024  0.0022
12686TIP3   OH259548   0.070   4.215   6.454  0.3670 -0.8517  0.7563
12686TIP3    H159549   0.144   4.161   6.426  1.0928  0.9751 -1.1394
12686TIP3    H259550  -0.007   4.160   6.441  1.3445 -2.9245  3.1006
12687TIP3   OH259551   0.358   3.917   2.401  0.0727 -0.1957  0.0122
12687TIP3    H159552   0.274   3.939   2.442  0.5134  0.8946  0.3585
12687TIP3    H259553   0.334   3.875   2.318 -0.8315  1.4760 -0.6195
12688TIP3   OH259554   2.739   4.081   1.708 -0.0469 -0.3577  0.3817
12688TIP3    H159555   2.658   4.039   1.738  1.4185 -2.4844  1.7021
12688TIP3    H259556   2.766   4.029   1.633 -0.4499  1.0581 -0.7773
12689TIP3   OH259557   5.169   5.149   0.345  0.0015 -0.0041 -0.1510
12689TIP3    H159558   5.125   5.090   0.405  2.6906 -1.3471  0.6708
12689TIP3    H259559   5.184   5.229   0.396 -0.2558 -0.0529  0.0025
12690TIP3   OH259560   6.428   4.467  12.888  0.0536 -0.0896  0.2819
12690TIP3    H159561   6.399   4.556  12.872 -0.0262  0.0544  1.1436
12690TIP3    H259562   6.523   4.471  12.886  0.0663 -0.3777 -1.6035
12691TIP3   OH259563   5.351   6.349  16.827 -0.3305  0.4664 -0.2558
12691TIP3    H159564   5.343   6.269  16.879  0.4488  1.4836  1.5162
12691TIP3    H259565   5.441   6.348  16.795 -0.1692  0.8638  0.1791
12692TIP3   OH259566   5.895   1.375   0.681 -0.1847  0.1376  0.0921
12692TIP3    H159567   5.885   1.299   0.737  0.3238 -0.6873 -0.8949
12692TIP3    H259568   5.985   1.370   0.649 -0.2696  0.9234 -0.2949
12693TIP3   OH259569   0.323   2.074   2.175  0.0025  0.3017  0.1778
12693TIP3    H159570   0.306   2.167   2.158  1.2472  1.0836  2.6480
12693TIP3    H259571   0.417   2.071   2.195 -0.4882 -0.9761  2.7036
12694TIP3   OH259572   1.268   0.635  15.183 -0.0823  0.8961  0.0328
12694TIP3    H159573   1.297   0.684  15.106  0.7221  1.7720  0.8715
12694TIP3    H259574   1.329   0.660  15.252  1.2486 -2.3279  0.1934
12695TIP3   OH259575   0.956   1.499   3.561  0.1200 -0.2700 -0.6874
12695TIP3    H159576   0.874   1.503   3.511 -0.8357 -1.5424  0.7126
12695TIP3    H259577   1.021   1.538   3.502 -1.3797  0.3366 -2.0263
12696TIP3   OH259578   5.440   0.060   6.049  0.0043 -0.4176  0.0332
12696TIP3    H159579   5.435   0.038   6.142 -1.5480 -1.2718 -0.2346
12696TIP3    H259580   5.422  -0.022   6.003 -1.2853  0.3978 -0.9999
12697TIP3   OH259581   4.037   6.149   2.052 -0.5272 -0.1439  0.5104
12697TIP3    H159582   3.988   6.188   1.980 -0.9783 -1.2185  0.2119
12697TIP3    H259583   4.128   6.149   2.023 -0.9107 -2.4327 -1.0163
12698TIP3   OH259584   6.680   1.816   1.519 -0.3660 -0.1205 -0.1880
12698TIP3    H159585   6.677   1.896   1.572  0.8204 -0.0982 -0.1077
12698TIP3    H259586   6.618   1.757   1.561  1.4602 -0.5861  2.1260
12699TIP3   OH259587   2.262   1.852  16.882  0.4019 -0.3397  0.1834
12699TIP3    H159588   2.332   1.787  16.874  0.1797 -0.5816  0.2150
12699TIP3    H259589   2.238   1.850  16.974  2.4695  1.9425  0.8850
12700TIP3   OH259590   4.485   5.305  15.937  0.0878 -0.1960 -0.1356
12700TIP3    H159591   4.411   5.303  15.876 -0.8545 -1.2409  0.9955
12700TIP3    H259592   4.482   5.393  15.976  0.2136  0.1963 -0.9915
12701TIP3   OH259593   3.589   5.682  16.488 -0.1849 -0.4745  0.1919
12701TIP3    H159594   3.582   5.596  16.447 -4.0866 -1.4444  2.3324
12701TIP3    H259595   3.531   5.738  16.436  1.1587  0.5091 -0.2918
12702TIP3   OH259596   0.008   2.681   4.044  0.0488  0.4286 -0.0218
12702TIP3    H159597   0.059   2.759   4.023  1.3397  0.4923  2.8496
12702TIP3    H259598  -0.081   2.703   4.017  0.7797  1.9492 -1.3896
12703TIP3   OH259599   2.335   0.156  16.105  0.7162  0.6911  0.2243
12703TIP3    H159600   2.283   0.178  16.027  0.2884 -1.1268 -0.0411
12703TIP3    H259601   2.334   0.236  16.158 -1.3441  1.0888 -0.3399
12704TIP3   OH259602   2.106   6.247  13.997  0.7397  0.2088 -0.1007
12704TIP3    H159603   2.053   6.168  13.992  1.3585 -0.2419  0.3859
12704TIP3    H259604   2.073   6.302  13.926 -0.7825  0.1949  0.5604
12705TIP3   OH259605   1.567   3.017   0.173  0.0925 -0.0253  0.3066
12705TIP3    H159606   1.592   3.104   0.142  1.1501 -0.6687 -0.7311
12705TIP3    H259607   1.630   2.958   0.132  1.7975 -0.9625  3.8621
12706TIP3   OH259608   6.291   5.716   2.275 -0.2285 -0.8672 -0.7357
12706TIP3    H159609   6.247   5.636   2.250 -2.0102  0.0008 -0.5358
12706TIP3    H259610   6.281   5.774   2.200 -0.4033 -0.2801 -0.2739
12707TIP3   OH259611   5.946   6.731   5.280  0.7960  0.4472  0.1170
12707TIP3    H159612   5.879   6.765   5.220 -1.4174  0.4799  2.4253
12707TIP3    H259613   5.972   6.807   5.333  0.5568 -0.1122  1.0723
12708TIP3   OH259614   5.042   6.580  10.188 -0.2285  0.8902 -0.1065
12708TIP3    H159615   4.995   6.580  10.272 -1.1596 -0.1653 -0.5995
12708TIP3    H259616   5.024   6.493  10.151 -0.2941  1.5339 -1.6574
12709TIP3   OH259617   5.034   4.090  12.538  0.1519  0.3140  0.7081
12709TIP3    H159618   5.045   4.076  12.444  1.0434 -0.4065  0.8997
12709TIP3    H259619   4.946   4.126  12.547  0.2851  0.9743 -0.4545
12710TIP3   OH259620   3.082   2.719   0.527  0.0426  0.0857 -0.5416
12710TIP3    H159621   3.054   2.630   0.508 -1.1019  0.3132  0.0401
12710TIP3    H259622   3.030   2.774   0.468  0.6256  0.3867 -0.7845
12711TIP3   OH259623   0.214   2.539  14.542 -1.0021  0.0924  0.2336
12711TIP3    H159624   0.295   2.591  14.538 -1.0607  0.1180 -1.8063
12711TIP3    H259625   0.222   2.488  14.622  0.6902  0.6593  0.4693
12712TIP3   OH259626   1.528   0.558   1.244 -0.6350  0.1892 -0.4665
12712TIP3    H159627   1.484   0.642   1.230 -1.1812 -0.4025 -2.8820
12712TIP3    H259628   1.621   0.579   1.247 -0.7832  0.9061 -0.8472
12713TIP3   OH259629   6.372   2.956   3.117 -0.5530 -0.2365 -0.3514
12713TIP3    H159630   6.419   3.007   3.183 -1.8421  0.9109 -0.2801
12713TIP3    H259631   6.407   2.867   3.126 -0.8881 -0.1882  2.0495
12714TIP3   OH259632   3.610   5.591   3.422 -0.1612 -0.1254 -0.1032
12714TIP3    H159633   3.683   5.616   3.367  0.8288  2.0518  2.0104
12714TIP3    H259634   3.613   5.495   3.425  0.1469 -0.3021 -3.1099
12715TIP3   OH259635   0.026   2.327  17.123 -0.9779 -0.4994 -0.4097
12715TIP3    H159636  -0.016   2.241  17.116 -0.2485 -0.9524  0.4823
12715TIP3    H259637   0.117   2.310  17.099  0.4761 -1.1395  4.5610
12716TIP3   OH259638   4.973   3.483  16.230 -0.4784 -0.1015  0.1187
12716TIP3    H159639   4.911   3.483  16.157  0.2205  3.0335 -0.6372
12716TIP3    H259640   4.971   3.573  16.262  1.6181 -0.6215  1.8953
12717TIP3   OH259641   3.294   2.163  15.394 -0.4343  0.3176 -0.5418
12717TIP3    H159642   3.291   2.178  15.299 -0.3472  0.7034 -0.4854
12717TIP3    H259643   3.203   2.166  15.422 -0.3289  2.6237 -0.2530
12718TIP3   OH259644   5.538   0.652   3.842  0.0743  0.5050  0.0760
12718TIP3    H159645   5.460   0.645   3.898 -0.3898 -1.4124 -0.7251
12718TIP3    H259646   5.610   0.620   3.897 -0.1241  0.0696  0.0901
12719TIP3   OH259647   1.199   6.522  16.140 -0.7411 -0.2540 -0.5828
12719TIP3    H159648   1.149   6.545  16.061 -3.7633 -1.9741  0.6757
12719TIP3    H259649   1.233   6.434  16.122  3.1876  1.2811 -1.8819
12720TIP3   OH259650   0.851   5.099   2.972  0.2442 -0.6690  0.5585
12720TIP3    H159651   0.790   5.029   2.946 -0.7243  0.2635  0.2453
12720TIP3    H259652   0.877   5.139   2.889 -0.0670  0.0375  0.7945
12721TIP3   OH259653   3.331   5.741  12.315 -0.4243 -0.4514 -0.2018
12721TIP3    H159654   3.298   5.659  12.279 -0.7368 -0.6366  0.4824
12721TIP3    H259655   3.344   5.723  12.408 -1.5372  0.5718  0.1910
12722TIP3   OH259656   4.854   3.167  12.850  0.4854  0.1317 -0.6223
12722TIP3    H159657   4.864   3.247  12.799  0.5564 -0.1807 -1.1021
12722TIP3    H259658   4.907   3.102  12.804 -0.0469 -0.3452 -0.5766
12723TIP3   OH259659   1.394   5.562  14.570  0.0969  0.0011  0.0313
12723TIP3    H159660   1.328   5.514  14.621  2.2896 -1.3855  1.7129
12723TIP3    H259661   1.399   5.514  14.488  1.6581 -2.2994  1.3736
12724TIP3   OH259662   0.037   2.950  12.924 -0.5425 -0.3902 -0.0123
12724TIP3    H159663  -0.059   2.943  12.924 -0.5848 -0.3976  2.1370
12724TIP3    H259664   0.055   3.024  12.982  0.7577 -0.1580 -0.6845
12725TIP3   OH259665   5.973   3.627   5.700  0.1204 -0.0179  0.4086
12725TIP3    H159666   5.964   3.721   5.685  0.6499  0.2600  1.7208
12725TIP3    H259667   6.029   3.596   5.628 -1.4947  0.3139 -1.0610
12726TIP3   OH259668   5.024   6.143  10.287  0.3788 -0.1413  0.3791
12726TIP3    H159669   4.934   6.129  10.317  0.8869 -0.5205  1.8014
12726TIP3    H259670   5.070   6.062  10.310  1.0840  0.0250 -0.3878
12727TIP3   OH259671   0.545   6.653   0.402  0.4382 -0.0971  0.6427
12727TIP3    H159672   0.477   6.710   0.366  0.1010 -1.6256 -1.3478
12727TIP3    H259673   0.621   6.668   0.345  0.7279 -0.7607  0.8477
12728TIP3   OH259674   5.282   2.999   0.452 -0.1636 -0.7473  0.2268
12728TIP3    H159675   5.197   3.006   0.408 -0.0186  0.4712  0.1008
12728TIP3    H259676   5.335   3.068   0.412  0.8302 -1.3715  0.4431
12729TIP3   OH259677   1.597   6.126   2.915  0.4874  0.0004 -0.1680
12729TIP3    H159678   1.515   6.176   2.917 -0.4848 -1.3401 -2.6116
12729TIP3    H259679   1.615   6.106   3.007 -1.0278  1.6901  0.5619
12730TIP3   OH259680   3.119   5.354  12.704 -0.1494  0.0170  0.0800
12730TIP3    H159681   3.031   5.325  12.681  0.9729 -1.8655 -2.3230
12730TIP3    H259682   3.149   5.292  12.770  0.0703 -0.6611 -0.6327
12731TIP3   OH259683   1.946   0.007  13.327  0.2816 -0.2084 -0.0770
12731TIP3    H159684   1.882   0.027  13.395  0.6657 -1.1238  0.5673
12731TIP3    H259685   2.030   0.032  13.365  0.3982  0.2487 -0.6179
12732TIP3   OH259686   3.920   6.781  15.468 -0.4112 -0.5605 -0.3708
12732TIP3    H159687   3.850   6.841  15.492  0.5437  0.3446  0.2384
12732TIP3    H259688   3.994   6.806  15.524  0.8762 -0.4880 -2.0117
12733TIP3   OH259689   3.676   1.717  14.158 -0.1478  0.6277 -0.7274
12733TIP3    H159690   3.631   1.639  14.190 -0.0939  0.9289  0.1082
12733TIP3    H259691   3.611   1.787  14.167  0.0706  0.8291 -0.7037
12734TIP3   OH259692   4.836   1.607  11.525 -0.4843 -0.0666  0.4293
12734TIP3    H159693   4.877   1.539  11.579 -1.9813 -0.8348  0.6408
12734TIP3    H259694   4.820   1.564  11.441 -0.2667  0.4243  0.1339
12735TIP3   OH259695   4.032   5.927  12.028 -0.5375 -0.3916 -0.6476
12735TIP3    H159696   4.088   5.962  12.098  1.3870 -1.3276 -1.6246
12735TIP3    H259697   3.969   5.997  12.010  0.4348  0.8075  0.3998
12736TIP3   OH259698   1.481   0.236   4.919  0.0379 -0.1025  0.7073
12736TIP3    H159699   1.461   0.152   4.877  1.2893  0.0432 -0.2172
12736TIP3    H259700   1.482   0.216   5.013  0.4109 -1.1488  0.4927
12737TIP3   OH259701   3.974   2.749  11.163 -0.6016  0.5901 -0.3308
12737TIP3    H159702   3.947   2.833  11.198  1.3416  0.4478  1.6993
12737TIP3    H259703   3.981   2.692  11.239  1.2968 -0.4661 -1.2163
12738TIP3   OH259704   1.892   0.031   2.562 -0.1993 -0.2828 -0.0188
12738TIP3    H159705   1.841   0.104   2.599 -1.9763 -0.9819 -0.9478
12738TIP3    H259706   1.975   0.071   2.538 -0.1015  0.8335  1.9404
12739TIP3   OH259707   3.752   2.920  16.283 -0.2480 -0.6637  0.1363
12739TIP3    H159708   3.804   2.849  16.244 -0.2331  0.6286 -2.3752
12739TIP3    H259709   3.816   2.979  16.321 -0.0827 -0.6573 -0.1514
12740TIP3   OH259710   5.761   1.122   4.472  0.0543 -0.1727 -0.0020
12740TIP3    H159711   5.825   1.066   4.515 -0.7854 -0.3876  1.0007
12740TIP3    H259712   5.721   1.066   4.406 -0.1197 -0.4844  0.3614
12741TIP3   OH259713   3.252   4.957   5.039  0.4545  0.0013 -0.2123
12741TIP3    H159714   3.259   4.862   5.049 -1.4411 -0.2226 -0.4963
12741TIP3    H259715   3.334   4.992   5.073 -0.0596 -1.5371  2.9625
12742TIP3   OH259716   4.372   6.478  15.142 -0.1259  0.0652 -0.4371
12742TIP3    H159717   4.418   6.424  15.206  0.6340  1.4038  0.2011
12742TIP3    H259718   4.331   6.547  15.194 -0.7166  0.3478 -1.2553
12743TIP3   OH259719   3.718   3.608   1.062  0.1286 -0.3897  0.3237
12743TIP3    H159720   3.685   3.661   0.989  2.8761  2.6912  1.0897
12743TIP3    H259721   3.640   3.589   1.114 -1.2840  1.3536 -1.0121
12744TIP3   OH259722   4.893   4.362   2.950  0.1890  0.3150  0.3073
12744TIP3    H159723   4.834   4.415   3.004 -1.2673 -0.7242 -0.1995
12744TIP3    H259724   4.908   4.416   2.872 -0.4547  0.4090  0.2422
12745TIP3   OH259725   0.065   1.729  16.333 -0.2706  0.2498 -0.5538
12745TIP3    H159726   0.007   1.653  16.340 -0.3727  0.2808 -1.0086
12745TIP3    H259727   0.152   1.695  16.353 -0.2071 -0.1439 -1.4458
12746TIP3   OH259728   4.120   2.979  16.634  0.6464  0.3899  0.3784
12746TIP3    H159729   4.186   2.974  16.703 -0.6283 -0.2942  1.6228
12746TIP3    H259730   4.052   2.917  16.662 -0.7015  1.3607 -0.6086
12747TIP3   OH259731   2.444   6.051  16.586 -0.2286 -0.3632  0.4487
12747TIP3    H159732   2.432   5.981  16.521 -0.2192  0.2944 -0.2811
12747TIP3    H259733   2.526   6.029  16.631 -1.1729 -1.8108  1.5204
12748TIP3   OH259734   6.228   4.285  16.958  0.1353 -0.4542 -0.4072
12748TIP3    H159735   6.267   4.222  16.896 -1.5384 -1.8280 -0.1383
12748TIP3    H259736   6.141   4.300  16.923 -0.7077 -0.9575  1.3899
12749TIP3   OH259737   2.474   6.455   4.120 -0.0663  0.1442  0.7032
12749TIP3    H159738   2.463   6.518   4.192 -0.7488  1.4851 -0.5098
12749TIP3    H259739   2.411   6.483   4.053  1.2303 -0.4128 -0.8388
12750TIP3   OH259740   2.535   4.230  13.416  0.1387 -0.1593 -0.0726
12750TIP3    H159741   2.507   4.303  13.361 -1.0792 -0.0726  0.6094
12750TIP3    H259742   2.606   4.266  13.469 -0.6053  0.6361  0.4291
12751TIP3   OH259743   5.236   1.299   6.317 -0.1294 -0.4184 -0.2002
12751TIP3    H159744   5.315   1.275   6.365 -0.3604 -1.4566 -0.3122
12751TIP3    H259745   5.186   1.217   6.310 -2.9996  0.7526  3.0974
12752TIP3   OH259746   6.751   6.783   2.201 -0.4468  0.1949  0.1810
12752TIP3    H159747   6.722   6.693   2.192 -1.9846  0.7082 -0.1476
12752TIP3    H259748   6.673   6.836   2.186  0.6860  1.6399 -0.9578
12753TIP3   OH259749   0.617   5.581   5.109 -0.0774 -0.0277 -0.3045
12753TIP3    H159750   0.696   5.591   5.056 -0.4591  0.0459 -0.8742
12753TIP3    H259751   0.558   5.530   5.053 -0.0183 -1.0874  0.5619
12754TIP3   OH259752   2.492   4.637  15.500 -0.4014  0.0630  0.3162
12754TIP3    H159753   2.560   4.680  15.450 -0.0372 -1.8452 -0.9232
12754TIP3    H259754   2.539   4.584  15.564 -0.8473  1.7447  2.1406
12755TIP3   OH259755   4.962   2.894   5.906  0.2038  0.0783 -0.0327
12755TIP3    H159756   4.965   2.883   5.811  0.8106  1.6285 -0.2197
12755TIP3    H259757   4.962   2.804   5.941 -0.9694 -0.5326 -1.4909
12756TIP3   OH259758   0.509   2.485   3.079  0.0696 -0.3609  0.1396
12756TIP3    H159759   0.414   2.477   3.072 -0.3147  2.9615  0.0343
12756TIP3    H259760   0.523   2.545   3.152  1.9731  0.8182 -1.1127
12757TIP3   OH259761   4.438   2.546   5.063  0.0836 -0.1348  0.4665
12757TIP3    H159762   4.381   2.472   5.042 -2.3186  1.1504  1.9754
12757TIP3    H259763   4.432   2.604   4.987  2.1376 -1.4733 -0.8100
12758TIP3   OH259764   2.111   2.958   2.570 -0.1222 -0.5558 -0.2636
12758TIP3    H159765   2.182   2.912   2.614  1.3260  1.2859 -0.5877
12758TIP3    H259766   2.154   3.013   2.505 -1.9302 -0.1273 -1.1643
12759TIP3   OH259767   4.701   2.539   6.068  0.5847 -0.0673 -0.2196
12759TIP3    H159768   4.631   2.602   6.050  1.7715  1.0242 -1.3564
12759TIP3    H259769   4.661   2.472   6.122 -1.2551  0.6547 -0.6163
12760TIP3   OH259770   3.389   4.333  15.773  0.0286  0.2493 -0.0277
12760TIP3    H159771   3.377   4.312  15.680 -0.2643 -0.6373  0.2023
12760TIP3    H259772   3.463   4.279  15.800 -3.6236 -4.6264  1.7872
12761TIP3   OH259773   6.806   4.796   1.805  0.0436 -0.3587  0.1072
12761TIP3    H159774   6.797   4.780   1.711 -0.4102 -2.0356  0.3922
12761TIP3    H259775   6.851   4.718   1.839  1.1848  0.6912  1.1460
12762TIP3   OH259776   6.447   4.557  16.513  0.5263  0.1000 -0.5234
12762TIP3    H159777   6.532   4.601  16.522  1.8851 -2.4864  0.5454
12762TIP3    H259778   6.458   4.502  16.434  0.7359 -1.8420  0.7729
12763TIP3   OH259779   1.377   2.569   5.846  0.5520  0.6855 -0.1448
12763TIP3    H159780   1.396   2.545   5.756 -3.1645 -0.3512 -0.8432
12763TIP3    H259781   1.332   2.654   5.839  0.5038  0.7408  0.7484
12764TIP3   OH259782   0.437   3.272   3.801  0.4183  0.2568  0.6153
12764TIP3    H159783   0.462   3.301   3.889  2.4192 -1.2085  0.5793
12764TIP3    H259784   0.520   3.255   3.757 -0.5832 -2.2677 -0.4455
12765TIP3   OH259785   5.669   1.138  12.935  1.0407 -0.2765  0.2562
12765TIP3    H159786   5.587   1.151  12.983  0.9681  3.4567 -0.5949
12765TIP3    H259787   5.738   1.161  12.999  1.0588  2.0360 -0.4912
12766TIP3   OH259788   1.992   5.601  15.712 -0.0293  0.3840 -0.0026
12766TIP3    H159789   1.968   5.643  15.794  0.5454  0.3137  0.2072
12766TIP3    H259790   1.925   5.534  15.699  0.6548 -0.5617  1.1459
12767TIP3   OH259791   0.033   6.645  15.289 -0.0644  0.7601  0.4409
12767TIP3    H159792   0.113   6.680  15.329  1.6975 -1.2553 -1.0675
12767TIP3    H259793  -0.034   6.657  15.355  1.8644  0.9960  2.4768
12768TIP3   OH259794   2.156   2.641   4.351  0.2124  0.2699 -0.2935
12768TIP3    H159795   2.075   2.593   4.371 -0.4787  1.2611 -0.6290
12768TIP3    H259796   2.192   2.664   4.437 -0.2161  0.3887 -0.1421
12769TIP3   OH259797   0.834   6.242  10.950  0.5959  0.1398 -0.1490
12769TIP3    H159798   0.843   6.196  10.867  0.7782  0.9749 -0.6109
12769TIP3    H259799   0.762   6.304  10.934  0.8491  0.5261  0.2116
12770TIP3   OH259800   0.590   3.400   1.209  0.3715 -0.7845 -0.4968
12770TIP3    H159801   0.509   3.450   1.201  0.4501 -0.1925  1.6579
12770TIP3    H259802   0.565   3.321   1.257  0.8120 -1.3513 -1.1770
12771TIP3   OH259803   2.880   5.183  15.031 -0.3544 -0.0490 -0.2840
12771TIP3    H159804   2.908   5.114  15.092 -0.0821 -1.0593 -1.4978
12771TIP3    H259805   2.930   5.164  14.951  0.1328  1.9060 -0.4763
12772TIP3   OH259806   3.883   2.912   2.113 -0.4986  0.4385 -0.0331
12772TIP3    H159807   3.931   2.846   2.064 -1.8136  0.2740 -1.1782
12772TIP3    H259808   3.941   2.988   2.114 -0.1529  0.2192 -1.2875
12773TIP3   OH259809   5.527   3.281   4.490 -0.0184  0.2561  0.1550
12773TIP3    H159810   5.449   3.293   4.543 -0.2329  0.0309 -0.1031
12773TIP3    H259811   5.522   3.349   4.423 -0.6262 -0.5041 -0.5957
12774TIP3   OH259812   0.877   0.374   0.427 -0.6123 -0.2474  0.1743
12774TIP3    H159813   0.959   0.328   0.409 -0.1005  1.4518 -2.3656
12774TIP3    H259814   0.865   0.366   0.522  1.2484 -2.4843  0.3102
12775TIP3   OH259815   4.744   0.942   2.555  0.0159 -0.6475 -0.8797
12775TIP3    H159816   4.653   0.960   2.578  0.4090 -1.7080  1.8260
12775TIP3    H259817   4.739   0.874   2.488 -1.2025 -2.6993  1.1982
12776TIP3   OH259818   2.902   2.822   5.713 -0.2173 -0.0230 -0.3848
12776TIP3    H159819   2.897   2.817   5.808  2.5226  1.1436 -0.0951
12776TIP3    H259820   2.907   2.730   5.685 -0.3632 -0.3586  0.6457
12777TIP3   OH259821   4.797   0.151  15.565 -0.6431  0.0080  0.8235
12777TIP3    H159822   4.812   0.113  15.478  1.1255 -0.0518  1.1119
12777TIP3    H259823   4.730   0.096  15.605  0.2369 -1.4408  0.3822
12778TIP3   OH259824   3.943   5.200   3.182  0.1273  0.5210  0.4518
12778TIP3    H159825   3.921   5.205   3.089 -1.1891  2.4301  0.8129
12778TIP3    H259826   4.002   5.124   3.188 -1.1118 -0.7132 -1.6366
12779TIP3   OH259827   4.725   2.728   3.920 -0.2737  0.2152 -0.2808
12779TIP3    H159828   4.735   2.688   3.834  0.1942  1.2844 -0.7335
12779TIP3    H259829   4.796   2.792   3.926 -0.5419  0.4398  0.7333
12780TIP3   OH259830   4.778   6.550  11.998  0.0125  0.2807  0.4618
12780TIP3    H159831   4.843   6.620  11.988  0.1611  0.2133  0.9307
12780TIP3    H259832   4.765   6.543  12.092  0.2449 -0.5427  0.4455
12781TIP3   OH259833   0.211   4.271  12.033 -0.1632 -0.0496  0.0350
12781TIP3    H159834   0.244   4.266  11.943 -0.7915  0.0257 -0.2101
12781TIP3    H259835   0.176   4.359  12.041  0.1205  0.0285  0.4401
12782TIP3   OH259836   2.928   2.238  14.742 -0.2235  0.1851  0.0011
12782TIP3    H159837   2.835   2.241  14.767 -0.7273 -0.7564 -1.6053
12782TIP3    H259838   2.964   2.320  14.774 -1.0587 -0.3707  2.6610
12783TIP3   OH259839   4.615   4.114  11.885 -0.0234  0.9632 -0.5775
12783TIP3    H159840   4.657   4.030  11.866 -0.7149  0.3297  0.5672
12783TIP3    H259841   4.547   4.123  11.819  0.4036  0.8881 -1.0340
12784TIP3   OH259842   0.010   0.804   6.034  0.5816  0.8491  0.1016
12784TIP3    H159843   0.098   0.835   6.058 -0.6181  3.2763  1.8225
12784TIP3    H259844  -0.028   0.774   6.116  0.2779 -1.7094 -0.9023
12785TIP3   OH259845   2.615   2.696  12.643 -0.1230 -0.6926 -0.3856
12785TIP3    H159846   2.614   2.719  12.550  3.4973  2.1898  0.0643
12785TIP3    H259847   2.551   2.756  12.684  0.1032 -0.2139 -0.7298
12786TIP3   OH259848   5.865   6.664   0.028  0.5752 -0.1203 -0.0155
12786TIP3    H159849   5.787   6.707   0.064 -0.6019 -0.0067 -2.5047
12786TIP3    H259850   5.892   6.602   0.096 -0.2193  1.5196  1.8906
12787TIP3   OH259851   0.975   4.147   5.581  0.1025  0.6051 -0.2963
12787TIP3    H159852   0.940   4.189   5.502  0.9188  1.8732 -0.0087
12787TIP3    H259853   1.053   4.197   5.604 -0.0794  0.2441  1.2935
12788TIP3   OH259854   0.092   6.679  12.848  0.3691  0.5417  1.0920
12788TIP3    H159855   0.142   6.658  12.770 -0.4544  1.2613  0.3509
12788TIP3    H259856   0.140   6.752  12.888 -0.0013  1.1550  0.4437
12789TIP3   OH259857   2.289   5.371   5.124 -0.1716  0.0764 -0.0055
12789TIP3    H159858   2.328   5.319   5.194 -1.0811 -1.3002 -0.4897
12789TIP3    H259859   2.251   5.447   5.168  1.2546  0.4092  0.7003
12790TIP3   OH259860   4.540   2.675  14.511  0.1191  0.5543 -0.0504
12790TIP3    H159861   4.522   2.596  14.562 -0.0862  1.1305  0.7842
12790TIP3    H259862   4.521   2.650  14.421  0.3709 -0.4472  0.1628
12791TIP3   OH259863   2.190   2.003   5.240  0.5320  0.2458 -0.3449
12791TIP3    H159864   2.096   2.017   5.231  0.6873  1.8084  0.0748
12791TIP3    H259865   2.209   2.029   5.330  1.0759 -2.0231  0.2555
12792TIP3   OH259866   3.151   1.667  12.157  0.5011 -0.0835 -0.3450
12792TIP3    H159867   3.218   1.610  12.196 -0.9899 -1.5614  0.1357
12792TIP3    H259868   3.151   1.745  12.213  1.0668 -0.5243  0.2960
12793TIP3   OH259869   3.592   4.778   0.983  0.2573 -0.3370 -0.3191
12793TIP3    H159870   3.519   4.798   0.924  0.8381  1.1196 -0.5841
12793TIP3    H259871   3.669   4.777   0.927  0.4216 -2.5641 -0.1652
12794TIP3   OH259872   5.405   0.812  15.363 -0.2193 -0.5419  0.0660
12794TIP3    H159873   5.410   0.755  15.440 -0.5557  0.1388  0.5982
12794TIP3    H259874   5.497   0.829  15.341 -0.1000  0.3969  1.1838
12795TIP3   OH259875   3.713   4.839   1.860 -0.0030 -0.3730 -0.1355
12795TIP3    H159876   3.694   4.873   1.772 -1.3524  0.1353  0.3258
12795TIP3    H259877   3.804   4.812   1.856 -0.0434 -0.3678 -1.7036
12796TIP3   OH259878   0.610   2.543  11.241 -0.3800  0.6868 -1.0482
12796TIP3    H159879   0.645   2.631  11.228 -1.3337  1.1970 -0.2939
12796TIP3    H259880   0.559   2.526  11.161 -1.3573  1.4145 -0.6054
12797TIP3   OH259881   0.636   1.189  14.800 -0.3521  0.7340  0.5617
12797TIP3    H159882   0.678   1.249  14.739  0.5743  0.0526  0.5029
12797TIP3    H259883   0.684   1.201  14.882 -0.2233  0.1678  0.5767
12798TIP3   OH259884   3.499   3.274   2.309 -0.0425 -0.0980  0.2524
12798TIP3    H159885   3.566   3.250   2.245  0.1904 -0.0559  0.4812
12798TIP3    H259886   3.430   3.209   2.297 -0.9985  1.1711 -1.5552
12799TIP3   OH259887   1.046   0.027  13.634  0.2440 -0.0682  0.0018
12799TIP3    H159888   1.008   0.112  13.655  0.9771 -0.1515  1.8687
12799TIP3    H259889   1.137   0.045  13.614  0.4986 -0.4359  0.7880
12800TIP3   OH259890   6.694   0.395   1.966 -0.0973 -0.0180 -0.1811
12800TIP3    H159891   6.777   0.347   1.958 -0.9439 -1.6263  0.1530
12800TIP3    H259892   6.680   0.402   2.060 -1.1989 -1.4010 -0.2047
12801TIP3   OH259893   5.535   2.361  16.602 -0.3010  0.3461  0.0516
12801TIP3    H159894   5.583   2.392  16.526 -0.1500 -0.2777 -0.1092
12801TIP3    H259895   5.455   2.414  16.603  0.5715  1.7047  0.5779
12802TIP3   OH259896   4.407   0.871  15.343  0.1733  0.0101  0.3091
12802TIP3    H159897   4.354   0.805  15.299 -1.9816  1.3448  0.7383
12802TIP3    H259898   4.449   0.824  15.415 -0.4209 -1.1240 -0.0555
12803TIP3   OH259899   6.025   5.722  15.615  0.0091 -0.5958 -0.4690
12803TIP3    H159900   6.099   5.781  15.626 -0.5917  0.1024 -0.0662
12803TIP3    H259901   6.060   5.648  15.566  0.9631 -0.2678 -0.3001
12804TIP3   OH259902   2.132   3.810  16.661  0.5928 -0.4786 -0.4457
12804TIP3    H159903   2.168   3.760  16.734  0.7307 -0.9160 -0.8097
12804TIP3    H259904   2.048   3.842  16.693  0.2762 -1.3531 -0.3659
12805TIP3   OH259905   1.401   3.796  13.454 -0.0656  0.3627  0.2018
12805TIP3    H159906   1.485   3.768  13.417 -0.6832 -0.1794 -0.8183
12805TIP3    H259907   1.390   3.742  13.532  0.3736  0.2007  0.1566
12806TIP3   OH259908   2.809   5.666  10.330  0.4307 -0.4869 -0.6565
12806TIP3    H159909   2.873   5.627  10.271  0.2632  1.4095 -2.2176
12806TIP3    H259910   2.728   5.667  10.279 -0.0514 -0.0200  0.1108
12807TIP3   OH259911   0.215   4.564  13.814 -0.6378 -0.1104 -0.3779
12807TIP3    H159912   0.286   4.522  13.863  0.8719  2.3834 -0.2274
12807TIP3    H259913   0.252   4.649  13.787 -3.7145  1.5228  0.1148
12808TIP3   OH259914   0.828   2.279  11.161  0.2164  0.1269 -0.1893
12808TIP3    H159915   0.814   2.352  11.221  1.9819  0.1043  0.3297
12808TIP3    H259916   0.919   2.254  11.176 -0.5252 -2.6588  0.1850
12809TIP3   OH259917   6.234   0.293   4.896 -0.1146 -0.0392  0.2296
12809TIP3    H159918   6.312   0.248   4.929 -0.8510 -1.3530  0.2416
12809TIP3    H259919   6.256   0.316   4.806  1.2370  1.9551  1.0027
12810TIP3   OH259920   4.580   5.671   0.909  0.0560  0.2388 -0.4785
12810TIP3    H159921   4.553   5.598   0.964  0.2781 -0.8568 -1.7573
12810TIP3    H259922   4.498   5.706   0.872 -0.2468  1.9271  1.5901
12811TIP3   OH259923   5.789   5.209  13.075 -0.3771 -0.1338  0.1753
12811TIP3    H159924   5.793   5.180  12.984 -0.3519 -0.0173  0.1391
12811TIP3    H259925   5.827   5.137  13.125  0.5607  0.2187 -0.0014
12812TIP3   OH259926   1.757   6.661   6.008 -0.4633  0.3407 -0.5357
12812TIP3    H159927   1.727   6.743   6.047 -2.7072 -1.1376  1.1445
12812TIP3    H259928   1.694   6.643   5.938 -0.2411 -0.1391 -0.6208
12813TIP3   OH259929   0.244   4.604  15.255  0.0670 -0.0254 -0.0583
12813TIP3    H159930   0.329   4.612  15.299 -0.2946  0.3828  0.5772
12813TIP3    H259931   0.243   4.675  15.191 -0.0268  0.3190  0.3240
12814TIP3   OH259932   6.143   2.897  11.634  0.7177  0.0167 -0.3499
12814TIP3    H159933   6.138   2.802  11.635 -0.6600  0.0574  1.5440
12814TIP3    H259934   6.064   2.925  11.588  0.7298  0.2613 -0.2234
12815TIP3   OH259935   5.603   5.251   6.737  0.7103  0.2749 -0.0063
12815TIP3    H159936   5.551   5.199   6.675  0.9323  1.7464 -1.5040
12815TIP3    H259937   5.681   5.198   6.754 -0.6324 -1.4075  1.2935
12816TIP3   OH259938   3.017   5.854  13.303 -0.4340  0.1292  0.6050
12816TIP3    H159939   3.013   5.947  13.281  2.5028  0.0626 -0.7171
12816TIP3    H259940   2.935   5.818  13.270 -0.5089  1.8193 -1.2467
12817TIP3   OH259941   0.972   5.500  14.779  0.4102  0.1129 -0.3958
12817TIP3    H159942   0.920   5.569  14.738  0.2375  0.2070 -0.0313
12817TIP3    H259943   0.906   5.439  14.814  0.5461  0.1378 -0.0928
12818TIP3   OH259944   5.851   4.708  11.448 -0.1867  0.2572 -0.2964
12818TIP3    H159945   5.878   4.712  11.540  1.0897  1.0461 -0.6755
12818TIP3    H259946   5.763   4.747  11.447 -0.3406 -0.0422  0.6155
12819TIP3   OH259947   0.590   5.865   6.272 -0.3975  0.2570  0.2595
12819TIP3    H159948   0.609   5.905   6.357 -0.1135  1.6434 -0.4139
12819TIP3    H259949   0.636   5.781   6.274 -1.2716 -0.2234  1.8546
12820TIP3   OH259950   4.797   6.740  11.724 -0.2939  0.7557  0.2648
12820TIP3    H159951   4.780   6.657  11.768  0.6737  0.4754  0.1359
12820TIP3    H259952   4.782   6.722  11.631  0.8280  0.4443  0.1229
12821TIP3   OH259953   2.482   3.903   4.953 -0.1189 -0.0088 -0.3173
12821TIP3    H159954   2.427   3.976   4.926  0.3066 -0.4098 -2.4663
12821TIP3    H259955   2.422   3.828   4.958 -0.2018  0.0691 -0.1364
12822TIP3   OH259956   5.247   1.087   5.557  0.2030 -0.2981  0.0129
12822TIP3    H159957   5.321   1.090   5.496 -0.7445  2.1969 -1.1657
12822TIP3    H259958   5.186   1.153   5.523 -2.7597 -2.4958  0.7137
12823TIP3   OH259959   6.273   4.721  16.297 -0.7784  0.1539  0.9764
12823TIP3    H159960   6.234   4.704  16.383 -0.2719  0.7794  1.3325
12823TIP3    H259961   6.212   4.782  16.255  0.0568  1.5495  1.7387
12824TIP3   OH259962   6.366   5.574   2.852  0.4857 -0.2882 -0.4404
12824TIP3    H159963   6.360   5.483   2.880  0.8069 -0.7744 -1.8495
12824TIP3    H259964   6.443   5.609   2.897 -0.0248 -0.4946  0.6271
12825TIP3   OH259965   3.695   3.999   2.584 -0.2663 -0.3299 -0.0105
12825TIP3    H159966   3.780   3.955   2.588  0.7999  1.4549 -1.5268
12825TIP3    H259967   3.711   4.086   2.622 -1.3898  0.0645 -0.4107
12826TIP3   OH259968   0.777   2.466  10.795 -0.5146 -0.2011  0.1115
12826TIP3    H159969   0.738   2.536  10.847  3.0501 -0.0442  2.9966
12826TIP3    H259970   0.871   2.475  10.811  0.3522 -3.5926 -2.1687
12827TIP3   OH259971   2.425   1.973  12.755 -0.5004  0.0780  0.4172
12827TIP3    H159972   2.370   1.982  12.833 -1.8233 -0.3572 -0.4374
12827TIP3    H259973   2.423   1.880  12.735 -1.2482  0.3516 -0.8760
12828TIP3   OH259974   1.255   2.838   5.296 -0.2672 -0.0739 -0.1771
12828TIP3    H159975   1.303   2.833   5.213 -2.1516 -1.7439 -1.2520
12828TIP3    H259976   1.293   2.769   5.350 -1.1185 -1.1425 -0.8898
12829TIP3   OH259977   5.488   1.559   3.015 -0.0747 -0.3472 -0.7028
12829TIP3    H159978   5.462   1.639   3.059  1.1523  0.1763 -0.8870
12829TIP3    H259979   5.412   1.534   2.962 -0.2107  1.0969 -1.2162
12830TIP3   OH259980   3.370   2.128  12.432 -0.1992  0.0101 -0.1834
12830TIP3    H159981   3.390   2.222  12.422  2.0115 -0.3257  0.4584
12830TIP3    H259982   3.336   2.120  12.520 -0.2529  0.1934 -0.1857
12831TIP3   OH259983   4.881   5.883  13.746 -0.7525 -0.6932 -0.1721
12831TIP3    H159984   4.974   5.871  13.724 -0.5312  1.0340 -0.3205
12831TIP3    H259985   4.841   5.798  13.727  0.6864 -1.2966 -0.6790
12832TIP3   OH259986   3.911   4.721   3.938 -0.3735 -0.1805 -0.0768
12832TIP3    H159987   3.934   4.742   3.848 -0.9181 -1.6644 -0.5998
12832TIP3    H259988   3.858   4.795   3.967 -0.5876  0.1057 -1.1390
12833TIP3   OH259989   2.410   2.689  17.189 -0.0533  0.1413 -0.3814
12833TIP3    H159990   2.457   2.719  17.111  1.0959 -1.1956 -0.2544
12833TIP3    H259991   2.422   2.594  17.188 -0.1083  0.0885  1.3783
12834TIP3   OH259992   1.476   6.377  12.292 -0.1332 -0.7096  0.1842
12834TIP3    H159993   1.424   6.410  12.219 -0.1936 -0.0433  0.5163
12834TIP3    H259994   1.412   6.344  12.355 -0.0991 -0.9477  0.0935
12835TIP3   OH259995   1.198   6.436   4.228  0.1815  0.7446 -0.6572
12835TIP3    H159996   1.285   6.443   4.268 -0.3013  0.1198  0.5701
12835TIP3    H259997   1.184   6.343   4.215  0.2890  0.9355 -2.2614
12836TIP3   OH259998   0.279   6.081   6.465 -1.0599  0.5053 -0.0592
12836TIP3    H159999   0.257   6.043   6.380 -4.4125 -0.0902  0.9018
12836TIP3    H260000   0.288   6.175   6.449  3.6625 -0.0215 -1.8320
12837TIP3   OH260001   2.757   1.845   0.676  0.3162 -0.3155 -0.0283
12837TIP3    H160002   2.839   1.894   0.683 -0.1204  0.3609  0.6095
12837TIP3    H260003   2.731   1.855   0.584  1.5231 -1.5247 -0.5239
12838TIP3   OH260004   1.651   1.464  14.632  0.6886  0.1164  0.1607
12838TIP3    H160005   1.682   1.391  14.578 -0.8100  0.4891 -1.2815
12838TIP3    H260006   1.596   1.515  14.574 -0.4928  0.9153  1.8974
12839TIP3   OH260007   6.434   2.117  13.123 -0.1680  0.0360 -0.3262
12839TIP3    H160008   6.501   2.101  13.056  0.7172 -0.4504  0.6484
12839TIP3    H260009   6.370   2.174  13.080 -0.2698 -1.2361 -1.9910
12840TIP3   OH260010   3.943   0.679  13.958  0.0955  0.2166 -0.0528
12840TIP3    H160011   3.848   0.688  13.962  0.1394  0.3443  1.1034
12840TIP3    H260012   3.976   0.764  13.988  0.5753  0.1472 -0.3766
12841TIP3   OH260013   2.805   1.547   2.306 -0.1841 -0.5395  0.1390
12841TIP3    H160014   2.739   1.563   2.238 -0.2440  1.3049  0.5765
12841TIP3    H260015   2.763   1.575   2.387  1.4676  1.7986  0.2901
12842TIP3   OH260016   1.899   1.821  14.852 -0.3575  0.1681 -0.1066
12842TIP3    H160017   1.852   1.785  14.928 -0.0832  0.1136  0.0404
12842TIP3    H260018   1.902   1.748  14.790 -1.8643  0.6475 -0.7750
12843TIP3   OH260019   4.560   3.627  15.290 -0.1791  0.0712  0.0712
12843TIP3    H160020   4.584   3.709  15.333  0.5989 -0.1430  0.0737
12843TIP3    H260021   4.471   3.609  15.318 -0.4596  1.0573 -0.1470
12844TIP3   OH260022   5.872   3.622  13.051  0.5322 -0.0559  0.0834
12844TIP3    H160023   5.800   3.613  12.988  0.9291 -0.4382 -0.3270
12844TIP3    H260024   5.829   3.618  13.137 -0.0679  0.9045 -0.1553
12845TIP3   OH260025   4.995   2.586  10.489 -0.7662  0.4311 -0.3424
12845TIP3    H160026   5.073   2.629  10.527 -0.6184  1.2076 -1.4773
12845TIP3    H260027   4.922   2.623  10.538 -0.4556 -0.0885  0.5408
12846TIP3   OH260028   1.844   6.245  12.305 -0.3199 -0.5378 -0.4888
12846TIP3    H160029   1.795   6.312  12.257 -1.3436 -0.4831  0.5849
12846TIP3    H260030   1.891   6.295  12.373 -0.3160 -0.7998 -0.2979
12847TIP3   OH260031   0.478   0.193  11.309 -0.0518  0.1858  0.5747
12847TIP3    H160032   0.534   0.268  11.329 -0.8428  0.8725  0.2569
12847TIP3    H260033   0.405   0.230  11.258 -2.2036 -0.2303  3.1582
12848TIP3   OH260034   1.827   5.277   2.448  0.4162  0.0392  0.1492
12848TIP3    H160035   1.758   5.245   2.390  0.1431  0.3353  0.3037
12848TIP3    H260036   1.908   5.264   2.399  0.1082  1.2360 -0.7309
12849TIP3   OH260037   2.428   1.623  11.794  0.5127  0.2781 -0.5488
12849TIP3    H160038   2.363   1.555  11.779  0.5213  0.2978 -0.6732
12849TIP3    H260039   2.377   1.704  11.800  0.1638 -0.0278  2.3485
12850TIP3   OH260040   4.929   0.665   6.169  0.4436 -0.3059 -0.1032
12850TIP3    H160041   4.855   0.643   6.226  0.8411  0.2549  0.6427
12850TIP3    H260042   4.976   0.733   6.216  1.0267 -0.1344 -0.9153
12851TIP3   OH260043   5.187   0.012  13.838 -0.0185 -0.3220 -0.3350
12851TIP3    H160044   5.260  -0.014  13.781  0.7725 -0.0628  0.5291
12851TIP3    H260045   5.118  -0.052  13.819  0.4058 -0.5391 -1.2056
12852TIP3   OH260046   4.199   0.318  13.148 -0.2718 -0.0859 -0.0984
12852TIP3    H160047   4.121   0.365  13.178 -0.7373 -0.5395 -0.5767
12852TIP3    H260048   4.203   0.337  13.054 -0.0245 -0.3839 -0.1467
12853TIP3   OH260049   2.614   1.249   1.660  0.6524 -0.3386  0.0049
12853TIP3    H160050   2.637   1.333   1.700 -0.4746  0.4289 -0.8887
12853TIP3    H260051   2.698   1.211   1.634  1.1359  0.8656 -0.2609
12854TIP3   OH260052   0.580   5.855   2.685  0.3654  0.1624  0.6044
12854TIP3    H160053   0.569   5.934   2.633  0.9124 -1.3675 -2.0269
12854TIP3    H260054   0.506   5.799   2.661  0.0361 -0.2152  2.3368
12855TIP3   OH260055   3.531   4.830  14.980 -0.2464 -0.3887 -0.3727
12855TIP3    H160056   3.581   4.759  14.939 -1.2458  0.0310 -2.4528
12855TIP3    H260057   3.521   4.802  15.071  0.5931 -2.2381 -0.7972
12856TIP3   OH260058   2.080   3.872   4.921 -0.4407 -0.6245 -0.1852
12856TIP3    H160059   2.131   3.804   4.966  0.3762 -0.2579 -0.5238
12856TIP3    H260060   2.022   3.907   4.988  0.4515 -0.3812  0.4879
12857TIP3   OH260061   3.000   6.775   3.580 -0.0501  0.3077  0.5482
12857TIP3    H160062   2.911   6.789   3.548  0.5293  1.1190 -0.7613
12857TIP3    H260063   3.055   6.777   3.502  1.1719  0.1459  1.3710
12858TIP3   OH260064   2.962   5.106  13.198  0.0932 -0.0607  0.0979
12858TIP3    H160065   3.039   5.084  13.251  0.0069 -0.1224  0.1985
12858TIP3    H260066   2.906   5.156  13.258 -0.6857 -1.4204  0.5252
12859TIP3   OH260067   1.539   5.975  11.288 -0.3162 -0.3360 -0.3219
12859TIP3    H160068   1.573   6.052  11.334 -0.5105 -1.5499  1.9489
12859TIP3    H260069   1.465   6.008  11.237  1.2369  1.4444 -1.5807
12860TIP3   OH260070   1.660   6.327  14.980 -0.4332 -0.3928 -0.0676
12860TIP3    H160071   1.618   6.275  15.049  0.6175 -0.5226  0.4865
12860TIP3    H260072   1.641   6.278  14.899 -0.0653 -1.2616  0.3587
12861TIP3   OH260073   2.984   3.447  15.712 -0.1458 -0.4573  0.1122
12861TIP3    H160074   2.961   3.355  15.702  0.5852 -0.7326  0.8417
12861TIP3    H260075   2.994   3.459  15.806  0.8510  0.0880 -0.0532
12862TIP3   OH260076   3.031   2.216  12.216 -0.3115  0.5117 -0.1590
12862TIP3    H160077   3.124   2.225  12.235 -0.5397  1.1002  0.7974
12862TIP3    H260078   3.017   2.122  12.205  0.5212  0.4869 -1.0836
12863TIP3   OH260079   4.301   0.859   4.209  0.8918 -0.1518 -0.0712
12863TIP3    H160080   4.361   0.927   4.177  1.8517 -0.5994  0.6893
12863TIP3    H260081   4.352   0.778   4.203  0.7641 -0.3977  1.5724
12864TIP3   OH260082   1.297   0.415   5.972 -0.1782 -0.9687  0.7777
12864TIP3    H160083   1.266   0.340   6.024 -1.3670  0.5217  2.3149
12864TIP3    H260084   1.311   0.484   6.036  0.4745  0.2781 -0.6651
12865TIP3   OH260085   4.404   5.597  11.889  0.3291 -0.3200 -0.0711
12865TIP3    H160086   4.386   5.503  11.880 -0.2946 -0.2296  0.1913
12865TIP3    H260087   4.455   5.604  11.969  0.1024 -0.4078  0.0841
12866TIP3   OH260088   0.769   4.029  11.877  0.4243  0.1057  0.3728
12866TIP3    H160089   0.757   3.971  11.801  1.4972 -0.2228  0.4337
12866TIP3    H260090   0.816   3.976  11.941 -2.7892 -0.5133  2.4105
12867TIP3   OH260091   5.426   0.313  15.396  0.4830 -0.3082 -0.2543
12867TIP3    H160092   5.451   0.237  15.448  1.6608 -0.2679 -0.7250
12867TIP3    H260093   5.489   0.314  15.324 -0.6694  0.0550 -1.2808
12868TIP3   OH260094   2.587   6.191   5.105 -0.1322 -0.2973  0.0227
12868TIP3    H160095   2.677   6.172   5.131  0.0995  0.1124 -0.4828
12868TIP3    H260096   2.536   6.120   5.145  0.6194 -1.5934 -1.2313
12869TIP3   OH260097   5.106   3.388  14.384  0.3790  0.5824  0.2279
12869TIP3    H160098   5.054   3.329  14.330  1.0761  0.7706 -0.6722
12869TIP3    H260099   5.180   3.335  14.413  0.4514  0.7185  0.2938
12870TIP3   OH260100   4.817   3.621   5.788  0.0658 -0.1772 -0.3729
12870TIP3    H160101   4.765   3.573   5.852  1.8696 -0.1610  1.1915
12870TIP3    H260102   4.907   3.595   5.806  0.9329  2.2113 -0.8197
12871TIP3   OH260103   6.807   1.833   4.426  0.0116  1.0206  0.3101
12871TIP3    H160104   6.769   1.853   4.340  1.2594  2.6098  0.0792
12871TIP3    H260105   6.749   1.875   4.488 -1.4144 -0.9026  0.3723
12872TIP3   OH260106   4.002   4.471   3.800 -0.4582 -0.2506  0.0942
12872TIP3    H160107   3.924   4.486   3.746 -0.3222  2.6723  0.5438
12872TIP3    H260108   3.987   4.523   3.879  2.6867  2.0194 -0.6013
12873TIP3   OH260109   2.553   2.085   3.310 -0.5307  1.0640  0.1895
12873TIP3    H160110   2.533   2.174   3.282 -0.3970  1.9537  2.6925
12873TIP3    H260111   2.489   2.066   3.379 -0.0416 -0.4629  0.2632
12874TIP3   OH260112   2.685   0.169   2.270  0.1488  0.0277 -0.6548
12874TIP3    H160113   2.646   0.115   2.201 -1.4584  0.9169 -0.4798
12874TIP3    H260114   2.619   0.170   2.339  1.1050  0.4060  0.2743
12875TIP3   OH260115   2.971   5.954  11.995  0.1118 -0.7681 -0.4811
12875TIP3    H160116   3.034   6.016  12.031  0.2684 -0.9350 -0.4665
12875TIP3    H260117   3.004   5.933  11.908 -0.1100 -0.5902 -0.6102
12876TIP3   OH260118   4.263   4.173   6.599  0.0313 -0.4809 -0.3577
12876TIP3    H160119   4.220   4.256   6.579 -1.0947 -0.9706 -0.0425
12876TIP3    H260120   4.191   4.113   6.618  0.8423 -1.4625 -0.3190
12877TIP3   OH260121   5.671   4.532  14.745 -0.1093 -0.0405 -0.0557
12877TIP3    H160122   5.602   4.583  14.703 -1.4523 -2.6149 -1.2302
12877TIP3    H260123   5.639   4.515  14.833 -0.9592 -1.0908 -0.5450
12878TIP3   OH260124   1.117   3.847  13.395 -0.2757 -0.4723 -0.7720
12878TIP3    H160125   1.088   3.763  13.429  1.3162 -1.2086 -1.1663
12878TIP3    H260126   1.212   3.844  13.401 -0.1951  1.4610 -0.4314
12879TIP3   OH260127   1.119   3.946   2.791  0.3195 -0.1365  0.2034
12879TIP3    H160128   1.153   3.905   2.870  0.8128 -0.2172 -0.0473
12879TIP3    H260129   1.174   4.024   2.779 -0.7366  0.7297  0.7939
12880TIP3   OH260130   2.393   2.272  10.192  0.4155  0.6273 -0.6785
12880TIP3    H160131   2.406   2.364  10.172  0.2487  0.7672 -0.1372
12880TIP3    H260132   2.300   2.264  10.212  0.0085 -0.0107 -2.5822
12881TIP3   OH260133   0.747   0.478   5.038 -0.0438  0.3973  0.1549
12881TIP3    H160134   0.769   0.438   4.954 -0.4543  0.9358 -0.2173
12881TIP3    H260135   0.686   0.416   5.079  1.4554 -0.6796  0.8175
12882TIP3   OH260136   0.250   3.731   5.877 -0.5070 -0.7988  0.4950
12882TIP3    H160137   0.183   3.799   5.885  1.8181  1.8773 -1.0776
12882TIP3    H260138   0.313   3.766   5.814  1.1843 -4.1928  0.0696
12883TIP3   OH260139   6.081   1.466   0.396  0.1934 -0.1865  0.5919
12883TIP3    H160140   6.078   1.386   0.448 -0.4813 -0.1681  0.5915
12883TIP3    H260141   6.108   1.438   0.309  0.2247 -0.3764  0.6632
12884TIP3   OH260142   0.369   5.739  17.005 -0.1999 -0.2442  0.0875
12884TIP3    H160143   0.334   5.671  16.948 -0.3439 -0.2885  0.2279
12884TIP3    H260144   0.332   5.821  16.970  1.3575 -0.0299 -1.1598
12885TIP3   OH260145   0.234   0.248  15.415  0.0920  0.5554  0.3130
12885TIP3    H160146   0.208   0.302  15.490 -2.6063  0.3630 -0.3790
12885TIP3    H260147   0.187   0.165  15.428  1.0018 -0.1451 -0.7051
12886TIP3   OH260148   2.981   4.673  13.014 -0.5432 -0.6616 -0.1741
12886TIP3    H160149   2.983   4.741  13.082 -0.7773  1.1228 -1.8499
12886TIP3    H260150   3.031   4.601  13.051 -0.3998  0.3602  1.7642
12887TIP3   OH260151   5.789   2.399  17.164  0.2763 -0.2791 -0.1369
12887TIP3    H160152   5.875   2.422  17.197 -0.0584  0.5884  0.1610
12887TIP3    H260153   5.805   2.328  17.101  1.0814 -0.8358  0.6777
12888TIP3   OH260154   2.625   0.825   2.926  0.1567 -0.6744  0.1907
12888TIP3    H160155   2.590   0.841   2.839  1.0861  0.6285  0.0379
12888TIP3    H260156   2.616   0.908   2.972  1.1818 -0.8750  0.7888
12889TIP3   OH260157   5.430   6.598   3.053 -0.0680  0.1370  0.1295
12889TIP3    H160158   5.461   6.676   3.099  0.4113  0.2611 -0.3887
12889TIP3    H260159   5.340   6.620   3.028 -1.4532 -1.0364  3.5004
12890TIP3   OH260160   1.493   6.025  16.915  0.0637 -0.2669  0.7525
12890TIP3    H160161   1.482   6.009  16.822  2.3542  0.0647  0.3670
12890TIP3    H260162   1.496   6.120  16.923 -1.3962 -0.2502  1.3688
12891TIP3   OH260163   0.812   4.037  13.948 -0.0505 -0.2160 -0.1623
12891TIP3    H160164   0.881   3.973  13.967 -1.5311 -1.7217  0.4611
12891TIP3    H260165   0.766   4.000  13.872 -0.0819  0.8425 -0.6704
12892TIP3   OH260166   6.523   2.672  14.552 -0.1115  0.3695 -0.1808
12892TIP3    H160167   6.492   2.607  14.614 -0.1338  0.9389  0.4150
12892TIP3    H260168   6.498   2.638  14.466  0.6024 -0.7986  0.0654
12893TIP3   OH260169   2.399   1.333  16.698  0.2130  0.0852  0.2188
12893TIP3    H160170   2.456   1.305  16.769 -0.3078  2.8375  1.8904
12893TIP3    H260171   2.446   1.308  16.618  1.8434 -1.2205  1.5148
12894TIP3   OH260172   6.802   1.175   3.909  0.5638 -0.0959  0.1365
12894TIP3    H160173   6.736   1.232   3.871  0.6671 -0.5216 -0.7042
12894TIP3    H260174   6.863   1.234   3.953  0.0662  0.3516  0.2332
12895TIP3   OH260175   3.111   1.365  14.885 -0.0591 -0.5191 -0.2161
12895TIP3    H160176   3.142   1.415  14.809 -0.2590 -1.2995 -0.8271
12895TIP3    H260177   3.039   1.312  14.851  0.1057 -1.1778  0.4242
12896TIP3   OH260178   6.353   2.248   0.571 -0.1287  0.2211 -0.5123
12896TIP3    H160179   6.260   2.253   0.595 -0.1363  0.2339 -0.5462
12896TIP3    H260180   6.374   2.155   0.575 -0.3633  0.1225 -1.3671
12897TIP3   OH260181   1.423   4.277  13.779 -0.0493  0.1974 -0.1409
12897TIP3    H160182   1.455   4.272  13.689  1.1840 -1.8871  0.3522
12897TIP3    H260183   1.451   4.364  13.810 -0.0556  0.7316 -1.5776
12898TIP3   OH260184   1.493   5.465   1.684  0.2684  0.2733 -0.1259
12898TIP3    H160185   1.508   5.415   1.764 -0.0568  0.4786  0.0650
12898TIP3    H260186   1.581   5.486   1.651  0.4395 -1.5844 -0.9496
12899TIP3   OH260187   1.613   4.813   1.193 -0.0235 -0.1724  0.6908
12899TIP3    H160188   1.608   4.908   1.195  1.7571 -0.0571  1.6026
12899TIP3    H260189   1.537   4.784   1.244  0.1116  0.8044  1.4748
12900TIP3   OH260190   0.163   1.448   3.114 -0.2362  0.2553  1.0923
12900TIP3    H160191   0.129   1.506   3.046  0.7527  0.3278  0.6346
12900TIP3    H260192   0.200   1.374   3.065  0.5786  0.3545  1.5391
12901TIP3   OH260193   4.922   5.978  13.486  0.2299 -0.0765  0.0990
12901TIP3    H160194   4.898   5.949  13.574 -1.2866  0.3148 -0.1613
12901TIP3    H260195   4.975   6.056  13.499  1.4608 -0.9752  0.6947
12902TIP3   OH260196   0.713   1.979  16.727  0.3106 -0.2221 -0.3959
12902TIP3    H160197   0.638   2.025  16.691  1.3893 -0.6726 -3.4992
12902TIP3    H260198   0.704   1.889  16.695  1.5756 -0.5554  0.1081
12903TIP3   OH260199   5.673   1.597   6.282  0.2325 -0.4382 -0.1752
12903TIP3    H160200   5.710   1.559   6.362  2.1206 -0.7543 -1.1612
12903TIP3    H260201   5.730   1.670   6.261  0.3285 -0.9315 -1.7382
12904TIP3   OH260202   1.720   5.970   0.578 -0.1997 -0.0106 -0.5722
12904TIP3    H160203   1.693   5.878   0.580  1.8303 -0.6816  1.9781
12904TIP3    H260204   1.648   6.017   0.620 -0.4942 -0.7153 -0.2697
12905TIP3   OH260205   5.864   2.846   4.094 -0.6166 -0.3229  0.2068
12905TIP3    H160206   5.832   2.802   4.015  1.1802 -0.6766 -0.3593
12905TIP3    H260207   5.829   2.935   4.086 -0.6802 -0.4222 -0.8665
12906TIP3   OH260208   0.126   4.385  12.789  0.1562  0.2643  0.3308
12906TIP3    H160209   0.162   4.299  12.808  2.0221 -0.4263 -4.7401
12906TIP3    H260210   0.200   4.445  12.800  1.8801 -0.3932 -4.7926
12907TIP3   OH260211   3.251   1.025  11.964  0.4932 -0.0625  0.1239
12907TIP3    H160212   3.314   1.096  11.954  1.1762 -0.4646  1.3864
12907TIP3    H260213   3.290   0.951  11.918  0.1182  0.1509 -0.5645
12908TIP3   OH260214   1.264   5.570  12.677  0.0273 -0.0697 -0.2345
12908TIP3    H160215   1.245   5.661  12.701  0.8666  0.1429 -0.3382
12908TIP3    H260216   1.355   5.557  12.703  0.6944 -0.1253 -2.3858
12909TIP3   OH260217   3.150   2.833   6.090 -0.3802  0.2714  0.2636
12909TIP3    H160218   3.075   2.887   6.117 -0.5331  0.1928  0.0013
12909TIP3    H260219   3.132   2.811   5.999 -0.3089 -0.2155  0.3647
12910TIP3   OH260220   4.679   1.566   1.708  0.4581 -0.0928 -0.6347
12910TIP3    H160221   4.584   1.563   1.695  0.5632 -0.4344 -1.3555
12910TIP3    H260222   4.690   1.565   1.803 -0.2213 -1.8552 -0.5295
12911TIP3   OH260223   4.899   3.620  15.338  0.1156 -0.3063 -0.2377
12911TIP3    H160224   4.823   3.599  15.392  0.1337  0.9405  0.3227
12911TIP3    H260225   4.881   3.579  15.254 -0.8111 -0.6829  0.1294
12912TIP3   OH260226   5.232   5.388   1.470  0.3800 -0.1982  0.1870
12912TIP3    H160227   5.265   5.473   1.500 -1.2933  0.5386  0.0485
12912TIP3    H260228   5.138   5.391   1.487 -0.0586 -1.1915 -1.7538
12913TIP3   OH260229   3.229   1.573  12.453  0.3120  0.6630  0.2692
12913TIP3    H160230   3.226   1.548  12.545 -0.8239  1.8712  0.5848
12913TIP3    H260231   3.138   1.594  12.430  0.4312 -0.4531 -1.3774
12914TIP3   OH260232   3.643   1.085  11.928  0.3245 -0.3275 -0.2315
12914TIP3    H160233   3.610   1.020  11.991 -1.6834 -0.9997 -1.9025
12914TIP3    H260234   3.589   1.162  11.942 -0.2952 -0.5629 -1.2791
12915TIP3   OH260235   1.485   2.544   4.428 -0.2616  0.3606 -0.0947
12915TIP3    H160236   1.569   2.589   4.432  0.0305 -0.2014  0.1030
12915TIP3    H260237   1.499   2.461   4.473 -1.0030  0.3863  0.2093
12916TIP3   OH260238   2.245   2.200   2.355 -0.4880  0.7010  0.8923
12916TIP3    H160239   2.279   2.112   2.337 -0.3265  0.3446  2.6710
12916TIP3    H260240   2.239   2.203   2.451 -2.7322  1.8000  0.7780
12917TIP3   OH260241   3.462   1.753  14.946 -0.3177  0.2369  0.1300
12917TIP3    H160242   3.521   1.759  15.021 -1.7150  0.7166  1.2312
12917TIP3    H260243   3.459   1.660  14.926  0.3762  0.1478  0.3988
12918TIP3   OH260244   1.110   3.860   3.420 -0.3351 -0.2025 -0.1970
12918TIP3    H160245   1.042   3.917   3.454 -0.5208 -0.8417  0.5257
12918TIP3    H260246   1.192   3.901   3.448 -0.4718 -1.4925  2.4731
12919TIP3   OH260247   2.617   4.977   3.774 -0.1467 -0.3333  0.0580
12919TIP3    H160248   2.599   4.967   3.868 -0.3010  0.7235  0.1463
12919TIP3    H260249   2.689   4.916   3.758  0.1085 -0.2815  0.9409
12920TIP3   OH260250   0.864   0.107   5.026  0.1233  0.4442 -0.0290
12920TIP3    H160251   0.930   0.136   5.089 -0.3282  0.2791  0.5315
12920TIP3    H260252   0.799   0.177   5.026 -1.2441 -0.7320  1.7300
12921TIP3   OH260253   6.648   6.407   3.104  0.7683  0.0507 -0.0747
12921TIP3    H160254   6.665   6.313   3.118 -2.4265 -0.9091 -1.6796
12921TIP3    H260255   6.682   6.449   3.183 -0.6473 -2.8855  2.3302
12922TIP3   OH260256   5.284   5.970  15.282 -0.1099 -0.7730  0.0185
12922TIP3    H160257   5.304   5.891  15.233  0.2298  0.0121 -1.1390
12922TIP3    H260258   5.302   6.041  15.221 -1.1937  0.1706  0.7688
12923TIP3   OH260259   4.700   1.817   3.110 -0.3509 -0.5314  0.1908
12923TIP3    H160260   4.745   1.745   3.154 -1.8526 -1.2377  0.6222
12923TIP3    H260261   4.630   1.842   3.170 -2.5761 -1.6275 -1.7820
12924TIP3   OH260262   2.481   3.957  10.549  0.3647 -0.3229  0.3356
12924TIP3    H160263   2.479   4.019  10.476  0.5052 -0.5846  0.1108
12924TIP3    H260264   2.403   3.904  10.538  0.2208 -0.1623  0.5539
12925TIP3   OH260265   0.812   4.807  17.034  0.4405  0.3694 -0.3022
12925TIP3    H160266   0.892   4.786  17.082 -0.8901  0.4373  2.0840
12925TIP3    H260267   0.751   4.737  17.058 -0.5035  0.7883 -1.3833
12926TIP3   OH260268   5.631   5.593  11.385 -0.4982  0.5052  0.0317
12926TIP3    H160269   5.682   5.672  11.403  1.1890 -0.4556 -0.2910
12926TIP3    H260270   5.551   5.604  11.435 -0.2564  2.3644  0.0813
12927TIP3   OH260271   1.495   3.021  15.262  0.2683 -0.1304 -0.0226
12927TIP3    H160272   1.451   3.105  15.255  0.7141  0.3976  2.3864
12927TIP3    H260273   1.458   2.981  15.341  2.2608 -0.7686  0.6691
12928TIP3   OH260274   2.741   6.471   5.887  0.0864 -0.1499  0.7873
12928TIP3    H160275   2.656   6.513   5.904  0.3365  0.2909  0.9761
12928TIP3    H260276   2.730   6.381   5.918 -0.2363 -0.0269  1.0348
12929TIP3   OH260277   3.204   1.043  10.374  0.3960 -0.3130  0.8749
12929TIP3    H160278   3.190   1.078  10.286  0.8484 -1.9508  0.1017
12929TIP3    H260279   3.299   1.044  10.385  0.5531 -2.5796  0.2132
12930TIP3   OH260280   3.422   0.747   3.991  0.9408  0.3125  0.0633
12930TIP3    H160281   3.501   0.751   4.045  2.2462  1.0750 -1.8156
12930TIP3    H260282   3.362   0.809   4.032  1.0468 -0.6829  1.8379
12931TIP3   OH260283   0.346   2.991  16.680  0.5225  1.3260 -0.1957
12931TIP3    H160284   0.371   3.082  16.694  0.4296  1.1883  0.9823
12931TIP3    H260285   0.250   2.993  16.679  0.4250  0.9946  2.0601
12932TIP3   OH260286   5.469   2.910  14.547 -0.3479  0.0785  0.3333
12932TIP3    H160287   5.520   2.982  14.510 -1.2838  0.1654 -0.8891
12932TIP3    H260288   5.496   2.833  14.496 -2.3491  0.3730 -1.3285
12933TIP3   OH260289   4.560   1.904   5.082 -0.6978  0.5641  0.4274
12933TIP3    H160290   4.509   1.833   5.121 -1.4792  0.9647  0.1652
12933TIP3    H260291   4.630   1.921   5.145  0.4917 -1.4998 -0.2378
12934TIP3   OH260292   1.317   4.335  13.305 -0.1632 -0.3145  0.4175
12934TIP3    H160293   1.315   4.241  13.324 -0.1703 -0.3128  0.4251
12934TIP3    H260294   1.242   4.350  13.247 -0.2339 -0.2921  0.5147
12935TIP3   OH260295   2.021   6.718  12.410 -0.5500 -0.0548  0.4539
12935TIP3    H160296   1.942   6.720  12.464 -1.4731  2.0350 -0.8757
12935TIP3    H260297   2.008   6.786  12.345  1.4541 -1.0796 -1.1326
12936TIP3   OH260298   3.222   3.702  13.814  0.4430  0.0141  0.3243
12936TIP3    H160299   3.186   3.787  13.837  0.5027 -0.3857  2.1084
12936TIP3    H260300   3.312   3.704  13.848  0.4461 -0.7358  0.3890
12937TIP3   OH260301   5.900   0.369  11.770  0.4918  0.3543  0.0535
12937TIP3    H160302   5.916   0.275  11.768  1.3746  0.4609  1.0272
12937TIP3    H260303   5.855   0.388  11.688  1.1274 -0.7771 -0.5817
12938TIP3   OH260304   0.299   1.799   2.660 -0.4895  0.2823 -0.0755
12938TIP3    H160305   0.239   1.766   2.727 -2.2612  3.1538 -0.0632
12938TIP3    H260306   0.340   1.720   2.624 -4.1279 -1.9530  0.0797
12939TIP3   OH260307   4.577   5.604  12.970  0.2540  0.3830  0.4412
12939TIP3    H160308   4.549   5.657  12.895  0.2086 -0.9340 -0.5061
12939TIP3    H260309   4.659   5.564  12.942  0.3393  0.0306  1.1719
12940TIP3   OH260310   0.043   1.097   2.140  0.1227  0.0707  0.3403
12940TIP3    H160311  -0.022   1.077   2.207  1.3567 -1.2045  1.2147
12940TIP3    H260312   0.052   1.016   2.090 -1.3023  1.2017 -1.9098
12941TIP3   OH260313   5.614   4.561   1.293 -0.0449  0.0976 -0.0047
12941TIP3    H160314   5.649   4.475   1.311  0.2460  0.0793 -0.6319
12941TIP3    H260315   5.542   4.545   1.232  0.0989  0.3073 -0.2323
12942TIP3   OH260316   2.514   6.183  12.529  0.0702  0.0297  0.0528
12942TIP3    H160317   2.497   6.197  12.623  0.4990  1.1939 -0.0257
12942TIP3    H260318   2.603   6.148  12.526 -0.1328 -0.4980  0.1061
12943TIP3   OH260319   3.317   4.167   2.572 -0.2894  0.4185 -0.0996
12943TIP3    H160320   3.392   4.216   2.605  0.5064 -0.8242 -0.0077
12943TIP3    H260321   3.322   4.176   2.477  1.4722 -1.6866 -0.2801
12944TIP3   OH260322   5.292   0.857   3.272 -0.8069 -0.3642 -0.8048
12944TIP3    H160323   5.262   0.850   3.362 -0.6890 -1.4721 -0.8412
12944TIP3    H260324   5.326   0.770   3.251  2.5071  0.7497 -0.7461
12945TIP3   OH260325   2.572   1.322  14.429 -0.0162 -0.3368  0.1888
12945TIP3    H160326   2.626   1.358  14.359 -0.4897 -1.6603 -0.8998
12945TIP3    H260327   2.588   1.228  14.427  1.0423 -0.2897  2.8343
12946TIP3   OH260328   6.197   1.101   0.935  0.7971  0.0646 -0.2613
12946TIP3    H160329   6.138   1.154   0.989 -0.1165 -1.1779  0.0254
12946TIP3    H260330   6.143   1.027   0.906  2.3304 -1.3883  0.4014
12947TIP3   OH260331   3.781   0.129  11.419  0.0289 -0.2151 -0.0242
12947TIP3    H160332   3.691   0.162  11.420  0.4157  0.8913 -0.4460
12947TIP3    H260333   3.804   0.124  11.326  1.5726  2.9398  0.0511
12948TIP3   OH260334   6.248   0.443   4.047  0.5270 -0.6045 -0.1604
12948TIP3    H160335   6.336   0.409   4.029  0.5841 -0.9517  0.7561
12948TIP3    H260336   6.212   0.384   4.113  0.5713  1.0058  1.3735
12949TIP3   OH260337   6.345   4.370  11.763 -0.0134  0.0566 -0.0521
12949TIP3    H160338   6.382   4.387  11.850  0.1289  1.0901 -0.2985
12949TIP3    H260339   6.391   4.291  11.733 -0.2298 -0.4433  0.8944
12950TIP3   OH260340   5.295   6.277  13.620  0.4261  0.1089  0.0353
12950TIP3    H160341   5.291   6.370  13.642  0.4351 -0.0026  0.5112
12950TIP3    H260342   5.351   6.274  13.542 -0.4636  0.6139 -0.6420
12951TIP3   OH260343   6.211   2.060  14.613  0.9520 -0.5719  0.2130
12951TIP3    H160344   6.185   2.069  14.705 -0.7432 -0.3510 -0.2546
12951TIP3    H260345   6.220   2.150  14.582  0.7201 -0.6426 -0.0563
12952TIP3   OH260346   6.491   3.967  12.774  0.9764 -0.4481 -0.3929
12952TIP3    H160347   6.480   4.023  12.698  1.5404  0.1453 -0.0547
12952TIP3    H260348   6.451   4.017  12.846  2.5325  0.1001  0.1422
12953TIP3   OH260349   5.596   4.174  15.922  0.1934 -0.1130 -0.1784
12953TIP3    H160350   5.604   4.089  15.965 -1.2312  0.1658  0.7163
12953TIP3    H260351   5.677   4.220  15.944  0.4000 -0.7559  0.4316
12954TIP3   OH260352   6.173   5.160   6.320 -0.4808  0.1402  0.3162
12954TIP3    H160353   6.202   5.196   6.236  1.4334 -1.4257  0.2413
12954TIP3    H260354   6.139   5.073   6.299 -0.2287 -0.1650  1.1266
12955TIP3   OH260355   6.494   4.019   5.790 -0.2089  0.1199 -0.5207
12955TIP3    H160356   6.559   4.042   5.856  0.2840 -0.9099 -0.6230
12955TIP3    H260357   6.505   3.925   5.777 -1.3001  0.0392 -1.0035
12956TIP3   OH260358   3.915   1.311   0.281  0.0301 -0.1404  0.2132
12956TIP3    H160359   3.872   1.364   0.348  1.3248  1.9104 -0.4883
12956TIP3    H260360   3.844   1.260   0.243 -1.3203  1.1066  0.9267
12957TIP3   OH260361   6.587   0.438   0.215 -0.1501 -0.0812 -0.2923
12957TIP3    H160362   6.677   0.423   0.243 -0.8334 -1.1129  1.4446
12957TIP3    H260363   6.568   0.527   0.245  0.0242 -0.1615  0.0624
12958TIP3   OH260364   0.976   4.480   1.352  0.1037 -0.1596 -0.4765
12958TIP3    H160365   0.883   4.489   1.374  0.0054  1.8914 -1.5479
12958TIP3    H260366   0.984   4.516   1.264  1.8662 -0.7029 -0.5805
12959TIP3   OH260367   3.851   6.541   0.371 -0.1912  0.6332 -0.1874
12959TIP3    H160368   3.842   6.607   0.441  0.7170  1.0086 -0.4103
12959TIP3    H260369   3.779   6.480   0.387 -1.1437  1.7441 -0.0483
12960TIP3   OH260370   4.873   3.748   0.369  0.0805 -0.3253  0.1549
12960TIP3    H160371   4.913   3.776   0.451  0.1432 -2.0238  0.7603
12960TIP3    H260372   4.946   3.745   0.307 -0.0656  1.4873 -0.1381
12961TIP3   OH260373   3.037   3.871  14.217 -0.0873  0.5092 -0.1155
12961TIP3    H160374   3.116   3.912  14.253 -0.8718  1.7566  0.2489
12961TIP3    H260375   2.980   3.945  14.194 -0.6697 -0.3254 -1.4986
12962TIP3   OH260376   0.857   6.189   5.728 -0.0919 -0.4540 -0.5133
12962TIP3    H160377   0.830   6.106   5.688 -3.4512  0.6147 -0.7268
12962TIP3    H260378   0.911   6.231   5.660 -1.1190 -1.0575 -1.7478
12963TIP3   OH260379   6.306   3.177   2.960 -0.3537 -0.4568 -0.1395
12963TIP3    H160380   6.396   3.170   2.927 -0.2981 -1.5080  0.1932
12963TIP3    H260381   6.285   3.089   2.990 -2.0133 -0.5810 -1.5234
12964TIP3   OH260382   0.326   3.074   4.250 -0.2748  0.3185 -0.5718
12964TIP3    H160383   0.292   3.164   4.250 -0.3740  0.3053  0.7684
12964TIP3    H260384   0.297   3.038   4.334 -1.9936 -1.6546 -1.9320
12965TIP3   OH260385   1.508   3.455   3.596 -0.2321  0.0408  0.5929
12965TIP3    H160386   1.520   3.405   3.676 -0.5083 -0.4853  0.3131
12965TIP3    H260387   1.560   3.408   3.530 -0.7282 -0.0577  0.2612
12966TIP3   OH260388   4.639   5.459  13.626 -1.0370  0.6106  0.1119
12966TIP3    H160389   4.548   5.490  13.625 -1.4593 -0.5536  0.5053
12966TIP3    H260390   4.634   5.370  13.592  0.2204  1.1176 -1.5534
12967TIP3   OH260391   6.252   2.011  15.155  0.3338 -0.5364 -0.3634
12967TIP3    H160392   6.256   1.930  15.206  2.9148 -0.1094  0.2673
12967TIP3    H260393   6.171   2.053  15.183 -0.0470 -1.9498  0.7955
12968TIP3   OH260394   6.268   0.146   0.491  0.6733  0.0636 -0.0726
12968TIP3    H160395   6.296   0.236   0.471  1.6600 -0.2475 -0.1689
12968TIP3    H260396   6.325   0.092   0.437 -0.2209 -0.6089 -0.3499
12969TIP3   OH260397   4.222   0.625   4.680  0.0381  0.6459  0.1630
12969TIP3    H160398   4.284   0.698   4.680 -0.5533  1.1703  1.0655
12969TIP3    H260399   4.259   0.561   4.741  0.8921 -0.1220 -1.1325
12970TIP3   OH260400   6.253   1.885   4.632  0.7101  0.6187  0.1881
12970TIP3    H160401   6.256   1.864   4.725 -1.3055  1.4613  0.4825
12970TIP3    H260402   6.263   1.980   4.627 -1.1782  0.8366 -0.2550
12971TIP3   OH260403   3.792   5.370  16.837  0.2230  0.3155 -0.0290
12971TIP3    H160404   3.702   5.353  16.809 -0.0563  1.5879  0.0477
12971TIP3    H260405   3.839   5.289  16.818 -1.2843 -0.9823  1.4631
12972TIP3   OH260406   2.829   0.718  12.638  0.3273 -0.3291 -0.2773
12972TIP3    H160407   2.900   0.664  12.605  1.1535 -0.1357  1.0721
12972TIP3    H260408   2.863   0.752  12.721 -0.4426  1.6360 -0.7148
12973TIP3   OH260409   2.862   1.121   5.056 -0.0511  0.0831 -0.7666
12973TIP3    H160410   2.902   1.035   5.069  1.0642  0.5313 -1.0803
12973TIP3    H260411   2.870   1.165   5.141 -0.0480  0.1043 -0.7773
12974TIP3   OH260412   1.512   4.283   3.016 -0.5741  0.0862  0.0617
12974TIP3    H160413   1.574   4.269   2.945  1.6805  1.3229  1.6595
12974TIP3    H260414   1.549   4.356   3.066 -3.8195  1.5638  0.6034
12975TIP3   OH260415   1.356   3.303  14.106  0.0898  0.1406  0.8377
12975TIP3    H160416   1.369   3.228  14.165  0.2345 -0.8945 -0.4722
12975TIP3    H260417   1.261   3.320  14.111  0.1968  0.5418  1.8978
12976TIP3   OH260418   6.271   2.411  16.187 -0.0629  0.1732  0.0230
12976TIP3    H160419   6.297   2.389  16.097 -0.1271 -0.8164  0.2304
12976TIP3    H260420   6.176   2.401  16.188 -0.0814  0.3652  0.1530
12977TIP3   OH260421   2.335   5.138  15.929 -0.5345  0.8667 -0.4893
12977TIP3    H160422   2.344   5.202  16.000 -0.6161  0.0586  0.2635
12977TIP3    H260423   2.352   5.054  15.970 -2.1719  0.2119 -1.0793
12978TIP3   OH260424   6.762   2.703  11.813  0.0939 -0.1846  0.4021
12978TIP3    H160425   6.725   2.779  11.858  2.4256  0.2914  1.6618
12978TIP3    H260426   6.776   2.638  11.882  0.6300 -0.7272 -0.2017
12979TIP3   OH260427   0.334   0.362  12.268 -0.6025 -0.2126 -0.4591
12979TIP3    H160428   0.340   0.456  12.249  1.2189 -0.5379 -1.7797
12979TIP3    H260429   0.263   0.331  12.211 -0.3256  0.1526 -1.0202
12980TIP3   OH260430   5.374   0.562  14.040 -0.3780  0.3391  0.0927
12980TIP3    H160431   5.385   0.492  14.104  1.6855 -0.9359 -1.5234
12980TIP3    H260432   5.315   0.625  14.083 -1.0944 -1.6226  2.1944
12981TIP3   OH260433   1.749   5.051  12.807 -0.5898  0.1537 -0.0323
12981TIP3    H160434   1.678   5.106  12.841 -0.7880  1.0204 -1.7185
12981TIP3    H260435   1.736   4.966  12.848 -1.0881  0.9902  1.6164
12982TIP3   OH260436   1.549   0.651  14.266 -0.1080 -0.6399  0.0017
12982TIP3    H160437   1.464   0.665  14.224  0.8365 -1.1253 -2.2564
12982TIP3    H260438   1.532   0.588  14.336 -1.7835  0.2051  0.3960
12983TIP3   OH260439   6.207   5.921  11.541 -0.3231 -0.6938 -0.4592
12983TIP3    H160440   6.266   5.897  11.612 -1.3811 -3.0485 -0.3102
12983TIP3    H260441   6.128   5.870  11.556 -1.0530 -0.3230 -2.6519
12984TIP3   OH260442   4.438   3.678  12.741  0.6450 -0.2578  0.3914
12984TIP3    H160443   4.485   3.760  12.724  2.0665 -1.3097 -1.1648
12984TIP3    H260444   4.355   3.705  12.779  0.6435  1.9900 -1.0017
12985TIP3   OH260445   1.637   2.495  11.918 -0.0801  0.4908 -0.8307
12985TIP3    H160446   1.573   2.440  11.871  0.3438  0.9628 -1.9934
12985TIP3    H260447   1.621   2.476  12.010 -0.1578 -1.3587 -1.1854
12986TIP3   OH260448   4.075   2.553   1.676  0.3457 -0.6898  0.3971
12986TIP3    H160449   4.112   2.596   1.599 -0.0129 -1.0046  0.0446
12986TIP3    H260450   4.141   2.564   1.744  0.6659 -0.4140  0.0427
12987TIP3   OH260451   3.912   0.348  12.289  0.6299 -0.4760  0.4455
12987TIP3    H160452   3.926   0.425  12.234 -0.3172  0.8585  1.9488
12987TIP3    H260453   3.841   0.301  12.246  1.7878 -1.0079 -0.9505
12988TIP3   OH260454   6.035   1.658  12.073  0.4942  0.2677  0.3031
12988TIP3    H160455   6.118   1.706  12.078 -0.0604  1.1720  0.9799
12988TIP3    H260456   6.011   1.642  12.164 -0.4647  0.6958  0.1377
12989TIP3   OH260457   2.690   4.215  14.021  0.1003 -0.1277 -0.4464
12989TIP3    H160458   2.627   4.250  13.958  0.9815 -0.0244 -1.3062
12989TIP3    H260459   2.694   4.281  14.090  0.6605  0.7901 -1.3280
12990TIP3   OH260460   1.671   2.733  16.403  0.1437  0.1838  0.5787
12990TIP3    H160461   1.591   2.695  16.366 -0.0645  1.5241 -0.4506
12990TIP3    H260462   1.730   2.742  16.327  0.3553  1.4113  0.8565
12991TIP3   OH260463   0.558   2.929  10.044  0.4160  0.1842 -0.1086
12991TIP3    H160464   0.467   2.915  10.069  0.4257 -0.1565 -0.2587
12991TIP3    H260465   0.559   3.015  10.002  0.0703 -0.0337 -0.5690
12992TIP3   OH260466   1.665   6.604  13.810  0.4163  0.0250 -0.0465
12992TIP3    H160467   1.656   6.597  13.715  0.5612 -0.7333 -0.0048
12992TIP3    H260468   1.751   6.645  13.823 -0.0140  1.0281 -0.2596
12993TIP3   OH260469   5.078   5.081   0.719  0.4577  0.3009  0.2480
12993TIP3    H160470   5.083   5.000   0.770  0.3579  0.5307  0.6266
12993TIP3    H260471   5.020   5.060   0.646  0.9077 -0.1452  0.0117
12994TIP3   OH260472   3.008   4.841   3.947  0.3579 -0.6857 -0.1610
12994TIP3    H160473   2.968   4.816   4.030  0.0730 -0.7590 -0.3198
12994TIP3    H260474   3.049   4.761   3.915  1.2073 -0.4563  0.3205
12995TIP3   OH260475   3.365   0.407  13.029  0.8462  0.1812  0.0791
12995TIP3    H160476   3.382   0.315  13.008 -0.2368  0.0724 -0.3970
12995TIP3    H260477   3.439   0.454  12.992  0.5787 -0.3409 -1.1806
12996TIP3   OH260478   1.283   2.062   0.423 -0.3346  0.3073 -0.1495
12996TIP3    H160479   1.256   2.153   0.405 -0.7604  0.2631  0.2235
12996TIP3    H260480   1.206   2.023   0.465  0.6592  0.4851  1.9705
12997TIP3   OH260481   1.338   5.573   2.573  0.1631 -0.6102 -0.1193
12997TIP3    H160482   1.426   5.582   2.536 -0.6363 -1.1924 -2.2955
12997TIP3    H260483   1.339   5.489   2.619  0.7016 -0.6798 -0.2543
12998TIP3   OH260484   3.948   5.679   6.079 -0.0794 -0.3490  0.3380
12998TIP3    H160485   3.871   5.729   6.054 -0.0847 -0.0147  0.9998
12998TIP3    H260486   4.000   5.672   5.999 -1.0112 -0.9808 -0.2316
12999TIP3   OH260487   3.633   3.764   0.860  0.8641 -0.3710  0.0772
12999TIP3    H160488   3.596   3.731   0.778  1.1633  0.1295 -0.2700
12999TIP3    H260489   3.561   3.758   0.923  1.1660 -2.5312  0.2831
13000TIP3   OH260490   2.472   2.090   2.103  0.4008 -0.4891  0.6685
13000TIP3    H160491   2.467   2.182   2.076 -0.2343 -0.9526 -0.8889
13000TIP3    H260492   2.503   2.044   2.026  0.3150 -1.6505  1.3043
13001TIP3   OH260493   0.493   1.757  16.379 -0.3375 -0.4566 -0.6994
13001TIP3    H160494   0.537   1.764  16.463  1.9066 -1.5348 -1.7009
13001TIP3    H260495   0.424   1.692  16.393  0.5140 -1.2031  0.1407
13002TIP3   OH260496   4.869   4.120  11.530  0.0462 -0.1651 -0.3481
13002TIP3    H160497   4.944   4.158  11.485  0.1219  0.5323  0.3432
13002TIP3    H260498   4.873   4.027  11.509  0.9907 -0.1052 -0.4775
13003TIP3   OH260499   2.701   6.503  11.959  0.2950 -0.5066 -0.0324
13003TIP3    H160500   2.730   6.447  12.032 -1.9246 -1.4358  0.2269
13003TIP3    H260501   2.710   6.592  11.993 -2.2329 -0.9373  2.1411
13004TIP3   OH260502   6.373   4.322  11.148 -0.2927 -0.2352  0.5499
13004TIP3    H160503   6.389   4.254  11.082  0.2392 -0.3132  0.7555
13004TIP3    H260504   6.433   4.393  11.124 -1.0366  0.2856  0.1724
13005TIP3   OH260505   2.497   0.300   3.041  0.2602  0.2224 -0.1852
13005TIP3    H160506   2.545   0.376   3.007  0.1025  0.0633 -0.7786
13005TIP3    H260507   2.482   0.320   3.133  2.0586 -0.0192  0.1947
13006TIP3   OH260508   0.618   3.629   0.372  0.5491  0.5506 -0.0728
13006TIP3    H160509   0.558   3.562   0.404  2.2302 -0.0723  1.9625
13006TIP3    H260510   0.618   3.697   0.439 -0.8183  2.5005 -1.9118
13007TIP3   OH260511   1.882   2.716  16.587  0.0286 -0.5729 -0.0119
13007TIP3    H160512   1.821   2.658  16.542  0.7723 -1.5198  0.1443
13007TIP3    H260513   1.827   2.776  16.636 -0.7862 -1.4822  0.2281
13008TIP3   OH260514   3.863   5.703   2.099  0.2534  0.3797  0.5395
13008TIP3    H160515   3.887   5.774   2.159  3.1986  0.4658 -0.5712
13008TIP3    H260516   3.888   5.735   2.013 -2.5715 -0.3114 -0.6582
13009TIP3   OH260517   3.218   6.531  12.508 -0.0421 -0.4052 -0.3256
13009TIP3    H160518   3.275   6.605  12.529 -0.7951 -0.0725  0.6033
13009TIP3    H260519   3.129   6.568  12.512 -0.5141 -1.6277  1.3839
13010TIP3   OH260520   6.027   0.672  15.976  0.2838  0.2520 -0.4447
13010TIP3    H160521   6.020   0.734  16.048  1.5147 -0.2529  0.1503
13010TIP3    H260522   5.987   0.592  16.010  1.3456 -0.1485 -0.1006
13011TIP3   OH260523   3.504   2.791   0.652 -1.0059  0.5505 -0.0764
13011TIP3    H160524   3.468   2.807   0.740  0.6116  0.9071  0.5572
13011TIP3    H260525   3.427   2.783   0.596 -2.0787  0.5522  1.3295
13012TIP3   OH260526   0.190   5.859   5.536  0.1864 -0.5905  0.7554
13012TIP3    H160527   0.275   5.899   5.556 -0.4011  1.5470 -0.6555
13012TIP3    H260528   0.193   5.842   5.442 -1.5384  1.2520  0.2981
13013TIP3   OH260529   1.337   4.286   2.025 -0.1838 -0.5021  0.3190
13013TIP3    H160530   1.357   4.367   2.072 -0.3143 -0.1681 -0.1864
13013TIP3    H260531   1.416   4.270   1.972 -0.1689 -0.6870  0.4004
13014TIP3   OH260532   1.275   1.675  12.193 -0.3734 -0.1896  0.4730
13014TIP3    H160533   1.264   1.602  12.255 -0.3195 -1.2245 -0.7031
13014TIP3    H260534   1.253   1.638  12.108 -0.1680  1.1350 -0.1804
13015TIP3   OH260535   4.289   6.753   4.082 -0.0432 -0.3455  0.1270
13015TIP3    H160536   4.313   6.843   4.101  1.5356 -0.2483 -1.8928
13015TIP3    H260537   4.194   6.753   4.074 -0.0877  1.0396  0.5180
13016TIP3   OH260538   2.882   2.255  16.954 -0.5090 -0.0402  0.1147
13016TIP3    H160539   2.934   2.252  16.873 -0.6673 -2.4729  0.0313
13016TIP3    H260540   2.935   2.307  17.014  0.0044  1.1154 -1.2678
13017TIP3   OH260541   5.606   4.988   5.611  0.5655  0.1748  0.2002
13017TIP3    H160542   5.610   4.959   5.520 -1.9237  1.3232 -0.3567
13017TIP3    H260543   5.648   5.074   5.610 -0.2157  0.5558 -0.0461
13018TIP3   OH260544   4.361   5.346  16.817 -0.0796 -0.3808  0.1393
13018TIP3    H160545   4.429   5.361  16.882  1.0326  0.7808 -1.2242
13018TIP3    H260546   4.333   5.434  16.791 -0.4377 -0.8090 -0.9939
13019TIP3   OH260547   0.915   2.166   3.825  0.1746 -0.0781 -0.3876
13019TIP3    H160548   0.865   2.084   3.833 -0.2113  0.2671  0.9257
13019TIP3    H260549   0.997   2.139   3.784 -0.3204 -0.9745 -0.8267
13020TIP3   OH260550   1.108   6.391   3.944 -0.3591  0.5134 -0.0022
13020TIP3    H160551   1.184   6.443   3.969 -0.9528  1.3698  0.0604
13020TIP3    H260552   1.121   6.306   3.987 -0.3349  1.2521  1.5197
13021TIP3   OH260553   3.050   0.009  13.839 -0.0998 -0.5647  0.1537
13021TIP3    H160554   3.072  -0.043  13.916  1.9157  1.2789  0.9290
13021TIP3    H260555   3.004   0.085  13.874 -1.1701 -0.7820 -0.7352
13022TIP3   OH260556   2.036   0.823  11.745  0.0722  0.6101 -0.3844
13022TIP3    H160557   1.942   0.830  11.757  0.2844  1.5298  1.0060
13022TIP3    H260558   2.064   0.910  11.717  0.6817  0.8178  0.7874
13023TIP3   OH260559   6.768   0.287  11.520  0.3014  0.1795  0.3787
13023TIP3    H160560   6.777   0.379  11.495 -2.2357  0.9092  1.7766
13023TIP3    H260561   6.725   0.246  11.446 -1.0395  0.7945  0.7814
13024TIP3   OH260562   1.126   4.458   5.385  0.2485  0.0723 -0.1650
13024TIP3    H160563   1.173   4.471   5.303 -0.4933  0.6941 -0.5048
13024TIP3    H260564   1.165   4.522   5.445  1.4485 -1.0219  0.2821
13025TIP3   OH260565   6.314   2.557  12.385  0.3605 -0.3010 -0.2943
13025TIP3    H160566   6.254   2.511  12.328  0.4222  0.6820 -1.1733
13025TIP3    H260567   6.393   2.571  12.332  1.2930 -1.3245  0.7405
13026TIP3   OH260568   3.579   2.359   5.534 -0.1591 -0.0619 -0.2513
13026TIP3    H160569   3.568   2.273   5.576 -0.9723  0.2415  0.1743
13026TIP3    H260570   3.500   2.370   5.482 -0.3992  0.7335  0.2579
13027TIP3   OH260571   6.708   3.879  13.577 -0.4110  0.2320  0.5212
13027TIP3    H160572   6.730   3.971  13.594  0.2223  0.1927 -0.0088
13027TIP3    H260573   6.790   3.841  13.547 -0.9790 -0.1732 -0.5719
13028TIP3   OH260574   6.797   4.774   3.771  0.7562 -0.1096 -0.5144
13028TIP3    H160575   6.772   4.839   3.706 -2.0430 -1.5162 -0.9894
13028TIP3    H260576   6.829   4.825   3.845  0.0497  1.7249 -1.4253
13029TIP3   OH260577   6.055   6.045  15.421 -0.1252  0.3886  0.0535
13029TIP3    H160578   6.149   6.058  15.426  0.0321 -0.9499  1.3797
13029TIP3    H260579   6.018   6.116  15.475  0.3580 -0.9435  2.2654
13030TIP3   OH260580   2.944   4.200  13.870 -0.1453 -0.5066 -0.5010
13030TIP3    H160581   2.862   4.179  13.915  1.3539 -2.1781  1.6927
13030TIP3    H260582   2.934   4.164  13.782 -1.6336 -0.9938 -0.1586
13031TIP3   OH260583   3.866   6.033  15.520 -0.4073 -0.4376 -0.1370
13031TIP3    H160584   3.934   5.970  15.545 -1.0190 -0.6357  1.1200
13031TIP3    H260585   3.880   6.108  15.578 -1.0237 -0.3304 -0.1206
13032TIP3   OH260586   5.421   2.150  16.742  0.3156  0.2518 -0.1363
13032TIP3    H160587   5.399   2.193  16.824  0.3788  1.2076 -0.6102
13032TIP3    H260588   5.485   2.207  16.701 -0.2206  0.1434 -1.1701
13033TIP3   OH260589   3.247   6.237  12.175 -0.7378  1.1130 -0.2826
13033TIP3    H160590   3.205   6.209  12.094 -1.3143 -0.9580  0.6726
13033TIP3    H260591   3.293   6.159  12.206  0.8281  2.3200  0.5832
13034TIP3   OH260592   4.260   4.481  11.290  0.2677  0.6652 -0.0078
13034TIP3    H160593   4.337   4.455  11.240 -0.3780 -0.3500 -0.5191
13034TIP3    H260594   4.191   4.421  11.261 -0.4130  0.7575  1.3158
13035TIP3   OH260595   0.984   0.579   5.595  0.0879  0.3655  0.1045
13035TIP3    H160596   0.965   0.673   5.588 -0.3603  0.2333 -0.6542
13035TIP3    H260597   0.993   0.563   5.689  0.8884  1.2999  0.2072
13036TIP3   OH260598   1.826   3.905   2.938 -0.1922  0.2352  0.1847
13036TIP3    H160599   1.896   3.938   2.995  0.6237 -0.7401 -0.2124
13036TIP3    H260600   1.780   3.840   2.991  0.7354 -0.8687 -0.3055
13037TIP3   OH260601   4.857   3.981  13.488  0.3136 -0.5764 -0.0288
13037TIP3    H160602   4.865   3.887  13.472  0.9179 -0.4488 -0.5428
13037TIP3    H260603   4.842   3.989  13.583  2.9198 -1.0998  0.5241
13038TIP3   OH260604   4.690   4.012  13.742 -0.0774  0.2541 -0.2776
13038TIP3    H160605   4.692   3.918  13.761  0.5930  0.2618 -0.2957
13038TIP3    H260606   4.600   4.028  13.712 -0.0110 -0.5081 -0.9262
13039TIP3   OH260607   1.531   2.513  10.924 -0.0193 -0.5774  0.6033
13039TIP3    H160608   1.515   2.550  11.011  0.8878  0.1481  0.4843
13039TIP3    H260609   1.444   2.499  10.887 -0.4118 -1.1776  1.7409
13040TIP3   OH260610   5.227   1.814  17.115 -0.0136 -0.1160 -0.2916
13040TIP3    H160611   5.203   1.742  17.174 -1.5316 -0.2978 -1.0897
13040TIP3    H260612   5.223   1.893  17.170 -0.1592 -0.4230  0.1419
13041TIP3   OH260613   1.081   0.734   5.079  0.0181  0.0146 -0.6429
13041TIP3    H160614   1.044   0.670   5.139 -0.3021  2.0741  1.5233
13041TIP3    H260615   1.172   0.708   5.069  0.5402  0.4626  2.1278
13042TIP3   OH260616   5.336   1.416   0.525 -0.1093 -0.5411  0.4695
13042TIP3    H160617   5.399   1.371   0.469  0.1737  0.0895  0.2651
13042TIP3    H260618   5.281   1.465   0.463  1.1493  1.3732  0.7729
13043TIP3   OH260619   5.243   0.925   4.151 -0.6748  0.0851 -0.2432
13043TIP3    H160620   5.196   0.990   4.203  0.1840  0.3531  0.2194
13043TIP3    H260621   5.255   0.967   4.065 -0.9791  0.1483 -0.2552
13044TIP3   OH260622   5.038   1.541   0.022 -0.0975 -0.2621  0.1439
13044TIP3    H160623   5.087   1.497  -0.048 -0.2270 -0.4524  0.1706
13044TIP3    H260624   5.105   1.568   0.084 -0.1051 -1.4541  0.6960
13045TIP3   OH260625   6.738   2.627  11.520 -0.0396 -0.1496 -0.4763
13045TIP3    H160626   6.832   2.609  11.525  0.0223 -0.0148 -1.0955
13045TIP3    H260627   6.718   2.673  11.602  0.4853  0.0683 -0.4672
13046TIP3   OH260628   1.080   0.196  12.440 -0.0882  0.4526  0.2543
13046TIP3    H160629   1.150   0.130  12.439  0.2346  0.7884  0.0246
13046TIP3    H260630   1.014   0.162  12.380 -0.1449  0.1058  0.5143
13047TIP3   OH260631   2.622   5.629  10.532 -0.0454 -0.2563  0.6413
13047TIP3    H160632   2.620   5.666  10.620  2.2459  0.1377  0.6050
13047TIP3    H260633   2.690   5.680  10.486 -0.8002 -0.8021 -1.1926
13048TIP3   OH260634   2.170   4.903  12.364  0.3999  0.1923 -0.1458
13048TIP3    H160635   2.164   4.953  12.446  1.3046  1.4434 -0.8179
13048TIP3    H260636   2.108   4.947  12.305  1.1822  0.5140 -0.7343
13049TIP3   OH260637   0.249   4.885   3.466  0.2882 -0.0668 -0.2542
13049TIP3    H160638   0.283   4.911   3.380  0.9707  1.2627  0.3931
13049TIP3    H260639   0.288   4.799   3.482 -1.2970 -1.1936 -2.0520
13050TIP3   OH260640   0.638   3.395   4.827 -0.6851 -0.3342  0.5764
13050TIP3    H160641   0.632   3.465   4.893 -1.1373 -1.7696  2.1213
13050TIP3    H260642   0.703   3.335   4.862 -0.3973 -0.7630 -0.6738
13051TIP3   OH260643   1.031   0.559  15.479 -0.2229 -0.0408 -0.5718
13051TIP3    H160644   1.037   0.653  15.498  0.0105 -0.0471 -0.6149
13051TIP3    H260645   0.938   0.538  15.492 -0.0804 -0.0369  0.5519
13052TIP3   OH260646   5.709   4.616   6.544  0.7919 -0.3335 -0.2396
13052TIP3    H160647   5.764   4.662   6.480 -1.1356  1.3925 -0.7707
13052TIP3    H260648   5.771   4.565   6.596  2.5948 -0.6505 -2.5202
13053TIP3   OH260649   0.150   4.456   1.370  0.5796  0.5385 -0.1229
13053TIP3    H160650   0.193   4.479   1.452  2.1461 -0.8786 -0.4813
13053TIP3    H260651   0.215   4.473   1.303  0.7179 -1.7764 -0.6775
13054TIP3   OH260652   3.028   0.726   3.514 -0.0921 -0.0845 -0.2622
13054TIP3    H160653   3.056   0.649   3.464  1.7110 -0.7376  1.5521
13054TIP3    H260654   3.016   0.692   3.603 -3.1997  1.0002 -0.1583
13055TIP3   OH260655   4.480   2.688  15.065 -0.2205 -1.0458  0.0890
13055TIP3    H160656   4.497   2.752  15.134  1.1775 -0.0392 -1.1194
13055TIP3    H260657   4.426   2.622  15.107 -3.7104  1.9620  0.8780
13056TIP3   OH260658   1.704   0.989  13.957  0.0105 -0.1256 -0.2382
13056TIP3    H160659   1.795   0.963  13.965  0.7882  1.3090 -3.1547
13056TIP3    H260660   1.697   1.026  13.869 -2.5846  2.8510  1.0223
13057TIP3   OH260661   0.736   4.416   1.102 -0.0415  0.0870  0.1065
13057TIP3    H160662   0.772   4.489   1.053  0.7875  1.4207  2.5321
13057TIP3    H260663   0.798   4.344   1.087  0.6277  0.7152 -0.1661
13058TIP3   OH260664   3.823   5.143  17.207  0.1783 -0.2246 -0.3283
13058TIP3    H160665   3.746   5.147  17.150 -0.6432 -1.9709  0.5415
13058TIP3    H260666   3.831   5.231  17.244 -1.8905 -0.1517  0.1034
13059TIP3   OH260667   1.306   6.070  12.852 -0.0751  0.3840 -0.3295
13059TIP3    H160668   1.310   5.978  12.880 -3.1397  0.4087  0.5223
13059TIP3    H260669   1.383   6.110  12.892  1.9202 -1.9465 -1.5373
13060TIP3   OH260670   4.814   0.747  16.664 -0.2196 -0.3555 -0.1098
13060TIP3    H160671   4.806   0.808  16.737 -0.8269  1.2416 -1.4585
13060TIP3    H260672   4.899   0.767  16.625 -0.3227 -0.5362 -0.4306
13061TIP3   OH260673   2.243   5.603   2.309  0.2200  0.0859 -0.0345
13061TIP3    H160674   2.177   5.656   2.265  1.4828  1.2946 -0.5293
13061TIP3    H260675   2.203   5.580   2.393 -1.1474  0.0621 -0.6714
13062TIP3   OH260676   2.189   5.693  12.048  0.3365 -0.1580 -0.3098
13062TIP3    H160677   2.205   5.774  12.097  1.5480 -0.7652  0.3518
13062TIP3    H260678   2.150   5.722  11.966  2.0295  1.2315 -0.6880
13063TIP3   OH260679   0.081   2.193   5.271 -0.3056  0.2227 -0.1243
13063TIP3    H160680   0.089   2.259   5.202  0.0333 -2.9049 -3.3976
13063TIP3    H260681  -0.012   2.170   5.271 -0.2371 -0.0613  0.1802
13064TIP3   OH260682   1.572   3.850   4.056 -0.1971 -0.6232  0.5921
13064TIP3    H160683   1.563   3.774   3.998 -0.2685 -1.4452  1.6523
13064TIP3    H260684   1.495   3.847   4.113 -0.4017  0.4776  0.4094
13065TIP3   OH260685   3.516   0.542  13.968 -0.2684 -0.2134 -0.7028
13065TIP3    H160686   3.561   0.601  13.908 -1.0149 -0.4398 -1.5037
13065TIP3    H260687   3.445   0.505  13.916 -2.1615  1.0738  0.8642
13066TIP3   OH260688   2.137   2.634  16.587 -0.5846 -0.0815 -0.6716
13066TIP3    H160689   2.170   2.650  16.499  0.2255  0.5557 -0.2611
13066TIP3    H260690   2.043   2.653  16.582 -0.2809  1.4551 -1.0387
13067TIP3   OH260691   5.160   5.241   3.906  0.0308 -0.1437 -0.1971
13067TIP3    H160692   5.182   5.168   3.848  0.7605  0.4359 -0.6773
13067TIP3    H260693   5.196   5.318   3.861 -1.3572  0.6116 -0.0714
13068TIP3   OH260694   5.433   6.795  13.578  0.0688 -0.1675  0.7938
13068TIP3    H160695   5.505   6.841  13.620 -0.1002  1.0456 -0.1963
13068TIP3    H260696   5.380   6.864  13.537  0.4151 -1.2701 -1.6980
13069TIP3   OH260697   6.425   1.923  16.647 -0.2329 -0.1542 -0.2462
13069TIP3    H160698   6.368   1.978  16.701  1.8145  2.3120 -0.4083
13069TIP3    H260699   6.477   1.985  16.596  1.9996 -2.2614 -0.7091
13070TIP3   OH260700   3.219   0.255  12.648  0.2457  0.1938  0.5483
13070TIP3    H160701   3.209   0.311  12.725  0.9018  1.9135 -0.5645
13070TIP3    H260702   3.137   0.265  12.600  0.3340  0.1367  0.3856
13071TIP3   OH260703   6.177   5.617   4.097 -0.4035  1.0889  0.2382
13071TIP3    H160704   6.256   5.568   4.071 -0.6042  0.4164  0.8511
13071TIP3    H260705   6.207   5.707   4.105  0.3087  0.8414  0.4739
13072TIP3   OH260706   0.544   3.697  14.436  0.0948  0.1262  0.8583
13072TIP3    H160707   0.614   3.651  14.391 -1.6153  0.1583 -2.1337
13072TIP3    H260708   0.500   3.630  14.488  0.4214 -0.6199  0.1961
13073TIP3   OH260709   3.949   1.457  14.239 -0.6464 -0.2571 -0.1588
13073TIP3    H160710   4.033   1.498  14.220 -0.8795 -0.4578 -1.7353
13073TIP3    H260711   3.901   1.522  14.291  0.6163 -0.3131  1.1573
13074TIP3   OH260712   2.658   4.614   3.512  0.4875 -0.6330  0.0774
13074TIP3    H160713   2.670   4.562   3.433 -0.3889 -2.0344  0.8280
13074TIP3    H260714   2.642   4.703   3.480  3.8247 -0.3263 -1.1989
13075TIP3   OH260715   5.412   5.590  11.545 -0.2738 -0.0893 -0.0371
13075TIP3    H160716   5.346   5.615  11.480 -0.9802 -1.3857  0.1487
13075TIP3    H260717   5.371   5.519  11.594  1.9964 -2.4523 -1.3011
13076TIP3   OH260718   5.213   6.095   0.028 -0.1948  0.1472 -0.3939
13076TIP3    H160719   5.142   6.037   0.057 -0.0275 -0.5615 -1.3264
13076TIP3    H260720   5.217   6.164   0.094 -0.0791 -1.1683  1.0251
13077TIP3   OH260721   3.840   4.974  12.025  0.1636  0.2656  0.5591
13077TIP3    H160722   3.854   5.034  12.098 -2.2305 -0.5112  1.7452
13077TIP3    H260723   3.920   4.920  12.023 -0.3179 -0.7574  3.7012
13078TIP3   OH260724   3.772   4.648  14.993  0.3549  0.2900  0.2913
13078TIP3    H160725   3.822   4.596  14.930  0.2737 -0.0889  0.5393
13078TIP3    H260726   3.800   4.738  14.977  1.0259  0.0974  0.3421
13079TIP3   OH260727   2.052   2.732  12.883 -0.7496  0.6291  0.1938
13079TIP3    H160728   1.978   2.792  12.873 -1.5981 -0.3419  0.4300
13079TIP3    H260729   2.075   2.738  12.976 -1.1890  0.1987  0.3351
13080TIP3   OH260730   4.263   5.310  13.727  0.3304 -0.2842 -0.5528
13080TIP3    H160731   4.302   5.385  13.683 -0.2026  0.1997 -0.2193
13080TIP3    H260732   4.199   5.348  13.787  0.3908 -0.9798 -0.0319
13081TIP3   OH260733   4.766   5.899  11.278 -1.0218 -0.1735 -0.0573
13081TIP3    H160734   4.761   5.805  11.290 -0.9804 -0.3083 -1.0465
13081TIP3    H260735   4.764   5.912  11.184 -0.7344  0.8004  0.0572
13082TIP3   OH260736   2.500   1.737   5.111  0.0850 -0.5512 -0.2666
13082TIP3    H160737   2.427   1.781   5.067  0.1402 -0.0445  0.1385
13082TIP3    H260738   2.459   1.685   5.180  0.0445 -0.8948 -0.5482
13083TIP3   OH260739   2.800   3.305  16.393  0.1361  0.3254  0.4347
13083TIP3    H160740   2.731   3.363  16.363 -0.0208 -0.0981 -0.0359
13083TIP3    H260741   2.873   3.319  16.332  0.3333  0.4921  0.7008
13084TIP3   OH260742   5.345   5.377  17.047  0.0409  0.4105  0.0910
13084TIP3    H160743   5.350   5.466  17.012  0.1853  0.4551  0.2230
13084TIP3    H260744   5.435   5.353  17.066 -0.0559  0.4882  0.6687
13085TIP3   OH260745   3.438   4.637   1.737  0.6913  0.0361  0.6925
13085TIP3    H160746   3.472   4.645   1.648  0.5614 -1.2015  0.5216
13085TIP3    H260747   3.483   4.560   1.773  0.3849  0.2411  1.5323
13086TIP3   OH260748   4.726   5.490   4.209  0.7026 -0.2752  0.4077
13086TIP3    H160749   4.721   5.550   4.135  0.2288  0.8757  1.3308
13086TIP3    H260750   4.741   5.404   4.170  1.6064  0.4631 -0.9502
13087TIP3   OH260751   0.568   6.242   0.802 -0.1056 -0.2437 -0.5582
13087TIP3    H160752   0.662   6.237   0.784 -0.0138  0.0732 -0.2017
13087TIP3    H260753   0.528   6.179   0.743  0.5144 -1.7447  0.5639
13088TIP3   OH260754   1.203   0.479  13.557  0.2275 -0.3037 -0.8736
13088TIP3    H160755   1.169   0.506  13.471 -1.4481  1.7286  0.3415
13088TIP3    H260756   1.131   0.432  13.599  1.3929 -2.2370 -0.9132
13089TIP3   OH260757   3.924   4.963  11.617  0.0109 -0.2745  0.0537
13089TIP3    H160758   3.996   5.023  11.599  0.1578 -0.8137 -1.2822
13089TIP3    H260759   3.959   4.877  11.594  0.0151 -0.9975  2.5082
13090TIP3   OH260760   1.105   3.258  15.565  0.1314 -0.0178  0.5181
13090TIP3    H160761   1.011   3.242  15.552  0.3483 -0.8567 -0.1060
13090TIP3    H260762   1.126   3.329  15.504 -0.0701  0.0883  0.5722
13091TIP3   OH260763   4.394   2.522   0.559 -0.6664 -0.2661  0.0835
13091TIP3    H160764   4.345   2.595   0.521 -2.1484 -0.8788  0.7441
13091TIP3    H260765   4.333   2.448   0.556  0.7584 -1.4752 -0.4677
13092TIP3   OH260766   5.947   0.471   3.055 -0.3336  0.1712  0.2805
13092TIP3    H160767   6.034   0.492   3.090 -0.5854  1.2628  0.2996
13092TIP3    H260768   5.898   0.553   3.064 -1.0772 -0.1651 -0.6061
13093TIP3   OH260769   3.582   4.524   2.386  0.2250 -0.3597 -0.0216
13093TIP3    H160770   3.516   4.574   2.340 -0.2648 -0.9065  0.0706
13093TIP3    H260771   3.656   4.584   2.396 -0.6971  0.6717  0.9610
13094TIP3   OH260772   6.755   1.218  10.946  0.2656 -0.0607 -0.4422
13094TIP3    H160773   6.765   1.261  11.031  0.2712  0.9412 -0.9297
13094TIP3    H260774   6.694   1.146  10.963  0.5865 -0.1309  0.4927
13095TIP3   OH260775   4.724   1.003   2.211 -0.2171 -0.1540  0.2415
13095TIP3    H160776   4.731   0.908   2.201  0.0639 -0.2691  1.3604
13095TIP3    H260777   4.630   1.021   2.207 -0.8909 -1.1794  4.9960
13096TIP3   OH260778   2.380   0.752  14.965  0.0159 -0.4398  0.4477
13096TIP3    H160779   2.300   0.771  15.016  1.1007  2.2810  1.3013
13096TIP3    H260780   2.402   0.835  14.923  1.7616 -1.4546 -0.7478
13097TIP3   OH260781   6.560   3.557  16.453 -0.0461 -0.0496  0.7684
13097TIP3    H160782   6.623   3.485  16.444  0.0847  0.1238  0.2508
13097TIP3    H260783   6.483   3.526  16.406  0.1717  0.3309  0.1482
13098TIP3   OH260784   2.641   0.510  12.409 -0.0289 -0.6146  0.2056
13098TIP3    H160785   2.647   0.440  12.474 -0.3643 -0.3622  0.5153
13098TIP3    H260786   2.713   0.493  12.348  1.9455  0.6166  2.0630
13099TIP3   OH260787   2.869   1.794   1.319 -0.0255  0.5260 -0.1445
13099TIP3    H160788   2.866   1.807   1.414 -0.4826  0.7423 -0.1857
13099TIP3    H260789   2.783   1.758   1.297  1.0016 -2.2303 -0.0974
13100TIP3   OH260790   0.612   1.600  14.682 -0.2675 -0.5657 -0.0420
13100TIP3    H160791   0.516   1.604  14.689 -0.1541  1.5604  1.1645
13100TIP3    H260792   0.636   1.680  14.636  1.0021 -0.5325  0.6353
13101TIP3   OH260793   6.013   5.430  16.235  0.0987  0.1380 -0.4632
13101TIP3    H160794   6.046   5.519  16.228  0.4744  0.2635  1.8529
13101TIP3    H260795   5.920   5.437  16.216 -0.4495  1.5973  2.2530
13102TIP3   OH260796   5.101   0.527  11.287 -0.2696  0.0588 -0.0507
13102TIP3    H160797   5.127   0.467  11.356  0.3903 -0.6025 -0.8508
13102TIP3    H260798   5.077   0.471  11.213  1.7452  0.7199 -1.3042
13103TIP3   OH260799   5.066   0.306   3.580  0.1181 -0.1318 -0.1604
13103TIP3    H160800   4.991   0.264   3.622 -0.5726  0.9265 -0.2939
13103TIP3    H260801   5.043   0.310   3.487  0.9137 -0.9578 -0.4100
13104TIP3   OH260802   1.643   2.230   0.283 -0.0548 -0.3643 -0.3037
13104TIP3    H160803   1.734   2.211   0.305  0.4182  1.2670 -0.7145
13104TIP3    H260804   1.647   2.310   0.231 -1.6711 -0.6696 -0.9772
13105TIP3   OH260805   1.752   4.980   4.400 -0.1548 -0.8183  0.3557
13105TIP3    H160806   1.703   5.062   4.409  0.4961 -0.4103  0.2657
13105TIP3    H260807   1.820   4.985   4.467  0.0700 -1.1558  0.1596
13106TIP3   OH260808   0.516   1.151   4.247 -0.3464 -0.2919 -0.0870
13106TIP3    H160809   0.468   1.234   4.253 -1.3502 -0.9090  0.7690
13106TIP3    H260810   0.452   1.085   4.271  0.3230 -1.3768 -1.2064
13107TIP3   OH260811   4.710   0.409  12.537  0.5840  0.2328  0.5525
13107TIP3    H160812   4.711   0.444  12.627  0.1551 -0.7709  0.9556
13107TIP3    H260813   4.665   0.477  12.487  1.7785  1.3037  0.8658
13108TIP3   OH260814   0.933   1.791   4.078  0.0858  0.6659 -0.5804
13108TIP3    H160815   0.982   1.713   4.103 -1.6983 -0.2869  0.1316
13108TIP3    H260816   0.946   1.798   3.984 -1.2437 -1.6773 -1.0239
13109TIP3   OH260817   4.346   0.598   4.137 -0.3959 -0.3046  0.5747
13109TIP3    H160818   4.407   0.532   4.169 -2.3816 -1.5442  2.0540
13109TIP3    H260819   4.296   0.555   4.068  0.8383  0.9411 -1.1692
13110TIP3   OH260820   3.903   3.802   5.676 -0.4831 -0.4898 -0.3235
13110TIP3    H160821   3.821   3.791   5.626 -1.7811 -0.5945  1.7102
13110TIP3    H260822   3.874   3.830   5.763  1.7366  0.6234  0.1312
13111TIP3   OH260823   6.241   0.596  11.786 -0.4247 -1.2088  0.2475
13111TIP3    H160824   6.271   0.516  11.743  0.0653 -1.3941  0.9149
13111TIP3    H260825   6.320   0.650  11.793 -0.4407 -1.2782  1.1035
13112TIP3   OH260826   5.993   6.031   1.054 -0.1394 -0.4913 -0.3525
13112TIP3    H160827   6.003   6.094   1.126 -1.2371 -0.6838 -0.0069
13112TIP3    H260828   6.074   5.980   1.055  0.5346  0.5452 -0.2797
13113TIP3   OH260829   6.642   6.564   4.117  0.3038  0.1020 -0.6991
13113TIP3    H160830   6.589   6.582   4.195  0.0042 -1.5430 -0.4868
13113TIP3    H260831   6.582   6.518   4.058  1.6870 -2.7837 -0.0274
13114TIP3   OH260832   1.748   5.057   3.032  0.7175  0.1785  0.3686
13114TIP3    H160833   1.684   5.056   2.961 -0.4198  1.9339  1.2923
13114TIP3    H260834   1.702   5.017   3.106  1.3039 -0.1306  0.5687
13115TIP3   OH260835   2.065   0.711  16.891  0.4647 -0.2696  0.6174
13115TIP3    H160836   2.074   0.617  16.904  2.7188 -0.0260  1.2532
13115TIP3    H260837   2.035   0.720  16.800  3.1035 -1.5614 -0.4665
13116TIP3   OH260838   1.843   6.764   1.971 -0.4558  0.6818  0.2425
13116TIP3    H160839   1.776   6.825   2.002 -0.0007  0.6921  1.2716
13116TIP3    H260840   1.793   6.689   1.937 -1.0031  0.4457  1.4989
13117TIP3   OH260841   2.924   1.695   3.654  0.5335  0.5247 -0.3716
13117TIP3    H160842   2.902   1.680   3.562  1.4570  0.1892 -0.5518
13117TIP3    H260843   2.957   1.785   3.657  0.6633  0.4786 -0.4027
13118TIP3   OH260844   6.342   0.476  12.030 -0.0094 -0.0530 -0.0443
13118TIP3    H160845   6.269   0.526  11.991  0.9619  1.0582 -0.5135
13118TIP3    H260846   6.417   0.496  11.973  1.1243  0.4638  1.5591
13119TIP3   OH260847   0.552   2.535  12.683 -0.1001  0.1353  0.2865
13119TIP3    H160848   0.633   2.487  12.668 -1.7160 -1.8486 -3.5509
13119TIP3    H260849   0.537   2.529  12.777  2.9293 -1.5086  0.7717
13120TIP3   OH260850   2.030   4.925   2.924 -0.2455  0.8804  0.0635
13120TIP3    H160851   2.080   4.976   2.988  0.7448  2.2744 -1.7319
13120TIP3    H260852   1.940   4.932   2.954  0.2600  0.8532  1.7086
13121TIP3   OH260853   3.893   0.705  12.509 -0.7289 -0.0593 -0.1081
13121TIP3    H160854   3.952   0.725  12.582 -0.5297 -0.5315 -0.1360
13121TIP3    H260855   3.947   0.716  12.431 -0.6515 -0.5844 -0.1297
13122TIP3   OH260856   2.620   5.782   1.327 -0.1999 -0.3459  0.5623
13122TIP3    H160857   2.613   5.774   1.232 -0.6958  0.6804  0.4917
13122TIP3    H260858   2.576   5.704   1.361 -0.7942 -0.2887 -0.0543
13123TIP3   OH260859   4.348   3.232   0.101  0.0557  0.6992 -0.1221
13123TIP3    H160860   4.364   3.148   0.059 -1.3791  0.6498 -0.6078
13123TIP3    H260861   4.421   3.242   0.162 -0.9007 -1.9464  1.6228
13124TIP3   OH260862   6.811   0.842   0.650  0.2412 -0.1265  0.1673
13124TIP3    H160863   6.784   0.898   0.723 -0.8109 -0.0794 -0.2447
13124TIP3    H260864   6.782   0.754   0.675 -2.8162  0.2976 -1.4181
13125TIP3   OH260865   3.800   3.487  16.122  0.2270  0.1204 -0.1851
13125TIP3    H160866   3.823   3.457  16.034 -2.0255 -1.5938 -0.2587
13125TIP3    H260867   3.847   3.428  16.181 -1.1388 -1.1377 -0.3086
13126TIP3   OH260868   0.993   5.740   0.580  0.1219 -0.0215  0.2245
13126TIP3    H160869   1.065   5.758   0.519 -0.9155  0.0674 -1.0078
13126TIP3    H260870   0.935   5.681   0.532 -0.2513 -0.7197  1.4961
13127TIP3   OH260871   6.547   5.602   3.400 -0.1386  0.0162  0.1955
13127TIP3    H160872   6.518   5.663   3.468 -1.0663 -1.8714  1.5763
13127TIP3    H260873   6.571   5.523   3.447 -1.1542 -1.4817 -1.6792
13128TIP3   OH260874   6.758   0.381  13.419  0.4031  0.9626  0.4019
13128TIP3    H160875   6.822   0.427  13.365  1.2534  1.4360  1.7754
13128TIP3    H260876   6.750   0.434  13.498 -1.1223  0.4982  0.5944
13129TIP3   OH260877   6.042   3.949   3.662 -0.6431  0.1172  0.4722
13129TIP3    H160878   6.129   3.966   3.697 -0.0249 -0.1505 -0.8537
13129TIP3    H260879   5.982   3.986   3.727  0.4082 -0.7513  1.9985
13130TIP3   OH260880   5.435   4.600   4.622 -0.1596 -0.1639  0.2059
13130TIP3    H160881   5.343   4.591   4.646 -0.1293 -1.6975 -0.1353
13130TIP3    H260882   5.438   4.677   4.566 -1.4946 -0.8451 -0.8847
13131TIP3   OH260883   6.817   1.341  12.962 -0.0983  0.0270  0.1235
13131TIP3    H160884   6.791   1.314  12.874 -0.0707 -2.1007  0.7120
13131TIP3    H260885   6.735   1.371  13.003  0.0220  1.8198 -0.8239
13132TIP3   OH260886   5.381   3.698  11.253  0.3510  1.0369 -0.2332
13132TIP3    H160887   5.379   3.625  11.316  2.3650  0.6112 -0.5979
13132TIP3    H260888   5.444   3.759  11.290  0.4664  1.4687 -1.1274
13133TIP3   OH260889   4.189   6.205   0.345  0.1530 -0.2326 -0.2342
13133TIP3    H160890   4.282   6.223   0.361 -0.4236  1.7689  1.2247
13133TIP3    H260891   4.170   6.127   0.397  0.9990 -0.6587 -0.5458
13134TIP3   OH260892   5.733   2.534  14.716  0.1786  0.3114  0.2281
13134TIP3    H160893   5.746   2.587  14.795 -0.6731 -0.0493  0.6181
13134TIP3    H260894   5.639   2.533  14.703 -0.0213 -2.4809  1.1977
13135TIP3   OH260895   4.414   0.142  13.265  0.0062  0.5593 -0.2384
13135TIP3    H160896   4.388   0.178  13.181 -1.4288  0.0485 -0.0488
13135TIP3    H260897   4.508   0.127  13.257  0.0303  1.2287 -1.4659
13136TIP3   OH260898   4.390   1.066  16.728 -0.7469 -0.2967  0.7575
13136TIP3    H160899   4.446   1.123  16.675 -0.8417 -1.5029 -0.7061
13136TIP3    H260900   4.303   1.106  16.723 -0.8700 -0.6859 -0.4852
13137TIP3   OH260901   0.110   5.979   3.150 -0.1915 -0.4812 -0.0394
13137TIP3    H160902   0.182   5.974   3.087 -1.1945  0.0580 -1.2659
13137TIP3    H260903   0.132   5.915   3.217  0.2090 -2.1283 -1.6764
13138TIP3   OH260904   3.156   4.247   1.430  0.3477  0.0951  0.0327
13138TIP3    H160905   3.175   4.340   1.440  0.8751 -0.1232  1.1393
13138TIP3    H260906   3.062   4.244   1.408  0.1531  0.8400  0.7166
13139TIP3   OH260907   1.991   4.637  14.753  0.4037  0.8274  0.2674
13139TIP3    H160908   1.967   4.598  14.837 -0.6605  0.0845 -0.3525
13139TIP3    H260909   1.986   4.731  14.768  0.0270  0.7004  0.9857
13140TIP3   OH260910   3.540   3.128   0.541  0.7180 -1.0024 -0.1233
13140TIP3    H160911   3.459   3.082   0.520  0.3786 -0.7429  0.5973
13140TIP3    H260912   3.602   3.060   0.566  0.8967 -1.2493 -1.2081
13141TIP3   OH260913   6.714   6.162   2.986 -0.5768 -0.2578  0.2992
13141TIP3    H160914   6.749   6.226   2.925  0.0321  0.3322  1.2377
13141TIP3    H260915   6.780   6.092   2.987 -1.0668 -0.7483 -0.4510
13142TIP3   OH260916   4.003   3.712   5.270  0.3430  0.0394 -0.0738
13142TIP3    H160917   3.973   3.784   5.214 -0.8643  1.3183  2.1020
13142TIP3    H260918   3.954   3.635   5.239 -1.8158  1.1335  0.4297
13143TIP3   OH260919   5.962   0.666   0.256 -0.5828  0.2075 -0.2781
13143TIP3    H160920   5.967   0.585   0.306 -0.2985  1.6340  2.1158
13143TIP3    H260921   5.886   0.654   0.199 -0.4267 -1.7801 -0.1399
13144TIP3   OH260922   1.095   0.287   4.856  0.3300  0.3354  0.6699
13144TIP3    H160923   1.074   0.195   4.843 -0.2158  0.5652 -0.1627
13144TIP3    H260924   1.182   0.298   4.818  0.8522 -0.0475  1.7147
13145TIP3   OH260925   4.526   2.984  14.627  0.0460 -0.0788  0.3919
13145TIP3    H160926   4.516   2.961  14.719 -0.1544  3.2256  1.3048
13145TIP3    H260927   4.618   2.967  14.608  0.5224  0.8060  1.7452
13146TIP3   OH260928   3.563   6.022   5.921 -0.1584 -0.6405  0.1780
13146TIP3    H160929   3.467   6.016   5.913 -0.2776 -0.4181  1.2498
13146TIP3    H260930   3.577   6.093   5.984  0.7672  0.4151 -1.1657
13147TIP3   OH260931   6.094   0.830   1.934  0.1896 -0.0445  0.0575
13147TIP3    H160932   6.015   0.884   1.927 -0.2822 -0.7779 -0.3894
13147TIP3    H260933   6.138   0.842   1.850 -1.4298 -2.6303 -1.2804
13148TIP3   OH260934   3.109   1.847  11.278 -0.0794  0.2565 -0.7256
13148TIP3    H160935   3.092   1.796  11.199 -1.7531 -0.4321  0.0243
13148TIP3    H260936   3.031   1.901  11.289  0.6410  1.2040 -0.1880
13149TIP3   OH260937   6.232   4.364   3.173  0.4120 -0.2129  0.2565
13149TIP3    H160938   6.227   4.315   3.091  0.3697 -1.5051  0.9993
13149TIP3    H260939   6.306   4.326   3.219  0.7955  0.8913  0.5934
13150TIP3   OH260940   5.164   3.063  16.633  0.1224  0.5763  0.2330
13150TIP3    H160941   5.258   3.057  16.620 -0.2283 -2.7607 -2.1648
13150TIP3    H260942   5.128   3.079  16.546 -1.6030 -0.0513  0.7702
13151TIP3   OH260943   2.306   3.474  12.387 -0.2018  0.2377 -0.2338
13151TIP3    H160944   2.272   3.525  12.314 -0.4654 -0.2018 -0.4231
13151TIP3    H260945   2.396   3.504  12.397 -0.7653  1.7699  0.5900
13152TIP3   OH260946   3.150   1.474   2.062  0.0220  0.0416 -0.3981
13152TIP3    H160947   3.122   1.551   2.113  2.5432  1.0129 -0.2951
13152TIP3    H260948   3.219   1.435   2.116 -0.5013 -1.7068 -0.9536
13153TIP3   OH260949   2.844   4.696   6.192  0.4480 -0.0307  0.1141
13153TIP3    H160950   2.794   4.696   6.110 -3.4060 -1.6098  2.1853
13153TIP3    H260951   2.829   4.782   6.230  1.4321  0.3581 -0.3420
13154TIP3   OH260952   3.775   3.886   1.370 -0.0125  0.1076  0.4786
13154TIP3    H160953   3.830   3.914   1.443  0.0275  1.9958 -0.2019
13154TIP3    H260954   3.736   3.968   1.337  1.5171 -0.3013 -2.8299
13155TIP3   OH260955   1.909   6.111   2.579  0.0164  0.4958 -0.2999
13155TIP3    H160956   1.900   6.099   2.673 -0.2553 -0.9884 -0.4881
13155TIP3    H260957   1.914   6.022   2.544  1.9427  1.0378 -1.5258
13156TIP3   OH260958   1.284   2.360   2.149  0.1797 -0.2983  0.1209
13156TIP3    H160959   1.375   2.346   2.176  0.3273  0.2182 -0.1153
13156TIP3    H260960   1.288   2.375   2.055 -0.1090  0.0849  0.1652
13157TIP3   OH260961   0.262   0.534   3.176 -0.1701  0.6306 -0.0901
13157TIP3    H160962   0.287   0.497   3.260 -0.4921 -3.4161 -1.5703
13157TIP3    H260963   0.166   0.538   3.179 -0.2210 -0.1751 -0.4833
13158TIP3   OH260964   4.784   4.835   3.922  0.1288 -0.0191 -0.5028
13158TIP3    H160965   4.771   4.770   3.853  0.3247 -0.1361 -0.4291
13158TIP3    H260966   4.861   4.884   3.894  0.6529 -0.5453 -0.0009
13159TIP3   OH260967   6.275   3.887  12.415  0.2779  0.4193 -0.0376
13159TIP3    H160968   6.321   3.942  12.352  0.4271 -1.1157 -1.3465
13159TIP3    H260969   6.192   3.866  12.373 -0.0832  0.2238  0.7467
13160TIP3   OH260970   2.064   0.337   3.476 -0.0400  0.2792 -0.2219
13160TIP3    H160971   2.142   0.386   3.502  0.9083 -1.8887  1.2393
13160TIP3    H260972   1.997   0.405   3.464  1.3079  1.9827  1.2740
13161TIP3   OH260973   6.334   4.035  13.483 -0.0625 -0.0248 -0.4225
13161TIP3    H160974   6.278   4.020  13.407 -0.9516  2.4148 -0.3332
13161TIP3    H260975   6.394   4.104  13.457  2.0973 -1.6319 -0.0397
13162TIP3   OH260976   4.028   0.954   1.963 -0.3404 -0.4011  0.4138
13162TIP3    H160977   3.993   0.966   1.875  0.8813 -0.2424 -0.0692
13162TIP3    H260978   3.955   0.917   2.013 -1.1014 -0.3320 -0.6129
13163TIP3   OH260979   3.701   3.020  16.026  0.7186  0.3588 -0.1436
13163TIP3    H160980   3.712   2.999  16.119  1.8866 -0.1267 -0.3735
13163TIP3    H260981   3.767   3.088  16.009 -1.3866  2.5636  0.0149
13164TIP3   OH260982   0.510   4.732   2.548  0.3770  0.1343 -0.1748
13164TIP3    H160983   0.505   4.789   2.471 -2.8349 -0.3252 -0.4692
13164TIP3    H260984   0.481   4.647   2.517 -2.0244  0.1704  1.6152
13165TIP3   OH260985   4.422   6.354  11.998  0.4029  0.6162 -0.1688
13165TIP3    H160986   4.328   6.347  12.016  0.7072  0.5987  1.5711
13165TIP3    H260987   4.454   6.264  12.007  1.3280  1.1304  4.2314
13166TIP3   OH260988   5.244   2.159  14.794 -0.2345  0.2894 -0.2081
13166TIP3    H160989   5.166   2.145  14.740 -0.0864 -1.9849  0.0744
13166TIP3    H260990   5.244   2.086  14.856  1.2607  1.1443  0.8755
13167TIP3   OH260991   0.389   6.058   5.873 -0.4898  0.3887  0.2064
13167TIP3    H160992   0.409   6.134   5.818 -0.9131  1.4340  1.4493
13167TIP3    H260993   0.438   6.074   5.953 -1.6824  0.0454  1.0211
13168TIP3   OH260994   5.419   4.768   5.052 -0.4216  0.7586  0.3340
13168TIP3    H160995   5.428   4.674   5.040  0.2137  0.6094  1.7599
13168TIP3    H260996   5.482   4.806   4.991  1.8362  0.1035  2.1107
13169TIP3   OH260997   3.846   0.834   1.735  0.0140  0.6225 -0.2886
13169TIP3    H160998   3.885   0.751   1.762 -0.8302 -0.4246 -2.0507
13169TIP3    H260999   3.798   0.865   1.812  1.9217  0.5167  1.0154
13170TIP3   OH261000   6.548   3.183   5.927  0.1629 -0.2684 -0.1931
13170TIP3    H161001   6.579   3.212   6.012 -0.7601 -0.0860  0.0938
13170TIP3    H261002   6.562   3.258   5.869  1.0319 -0.4805 -0.2822
13171TIP3   OH261003   2.512   0.144   4.945 -0.0247 -0.3918  0.2144
13171TIP3    H161004   2.497   0.093   4.865 -0.8577 -0.6248  0.5155
13171TIP3    H261005   2.603   0.175   4.936 -0.2008 -0.1586 -0.9538
13172TIP3   OH261006   0.323   3.340   0.026 -0.1037  0.1899 -0.3345
13172TIP3    H161007   0.263   3.305   0.091  0.9898 -0.5559  0.3136
13172TIP3    H261008   0.329   3.433   0.046 -0.5710  0.1548 -0.0231
13173TIP3   OH261009   0.150   1.003  13.668 -0.2010 -0.4068  0.2481
13173TIP3    H161010   0.185   0.919  13.697 -0.5038 -0.0963  1.6228
13173TIP3    H261011   0.059   1.003  13.698 -0.8026 -0.3556 -1.4533
13174TIP3   OH261012   0.267   0.824   3.750  0.3680 -0.2173 -0.0344
13174TIP3    H161013   0.265   0.770   3.830  2.6166  0.2537  0.4141
13174TIP3    H261014   0.297   0.764   3.682  0.4366 -0.1240 -0.0855
13175TIP3   OH261015   1.841   2.113  11.408 -0.2821 -0.2317 -0.1019
13175TIP3    H161016   1.857   2.202  11.376  0.9762 -1.2133 -2.3290
13175TIP3    H261017   1.918   2.092  11.460  0.5529 -0.8714 -1.5672
13176TIP3   OH261018   6.395   2.986   2.175 -0.1633  0.0463  0.5865
13176TIP3    H161019   6.325   3.019   2.230 -1.1811 -0.6748 -0.2275
13176TIP3    H261020   6.427   3.063   2.127 -0.4908  0.3505  0.8554
13177TIP3   OH261021   6.646   3.895   0.860  0.4381  0.2346 -0.4182
13177TIP3    H161022   6.584   3.834   0.901  0.8870  0.2695  0.3203
13177TIP3    H261023   6.680   3.847   0.784  1.0050 -0.5647  0.3219
13178TIP3   OH261024   0.543   2.022  13.588 -0.6782 -0.7981  0.9431
13178TIP3    H161025   0.550   2.107  13.546 -0.1584 -1.4406 -0.3107
13178TIP3    H261026   0.629   1.981  13.576 -1.1294 -1.7706  0.9073
13179TIP3   OH261027   2.994   5.469  16.587  0.1373 -0.3260  0.0461
13179TIP3    H161028   3.058   5.532  16.620  0.6396 -0.5843 -0.4302
13179TIP3    H261029   2.948   5.514  16.517  0.7540 -0.6126 -0.5480
13180TIP3   OH261030   4.970   2.270   4.754  0.4326  0.2414 -0.0721
13180TIP3    H161031   4.946   2.327   4.828 -0.6843 -0.5956  0.2468
13180TIP3    H261032   4.974   2.182   4.792 -1.0300 -0.3306 -1.1497
13181TIP3   OH261033   5.678   5.240  15.243 -0.0690  0.2583  0.1233
13181TIP3    H161034   5.653   5.165  15.297  0.4948  0.3081  0.4673
13181TIP3    H261035   5.706   5.201  15.160  0.4398  0.0568  0.3793
13182TIP3   OH261036   6.719   2.417  14.734  0.2561 -0.4787 -0.1192
13182TIP3    H161037   6.695   2.353  14.801 -0.4718 -1.4000 -1.2318
13182TIP3    H261038   6.688   2.379  14.652  3.4064 -0.6432 -1.3781
13183TIP3   OH261039   4.595   0.964  16.899 -0.0519 -0.0701 -0.1841
13183TIP3    H161040   4.520   1.009  16.861 -0.5800 -1.2769 -0.6104
13183TIP3    H261041   4.567   0.873  16.908  1.4402 -0.6066 -0.5942
13184TIP3   OH261042   4.964   6.330  10.099 -0.9414 -0.7154  0.0630
13184TIP3    H161043   4.869   6.329  10.113 -0.6868 -0.4372  2.1650
13184TIP3    H261044   4.997   6.258  10.154  0.1047 -0.4191 -0.1515
13185TIP3   OH261045   1.235   2.914   2.850  0.0250  0.4702 -0.1167
13185TIP3    H161046   1.207   2.949   2.935 -0.3984 -0.0833 -0.0219
13185TIP3    H261047   1.291   2.982   2.814 -0.0395  0.8473  0.4722
13186TIP3   OH261048   0.743   2.898  15.112  0.4140 -0.0784  0.1664
13186TIP3    H161049   0.682   2.923  15.181  2.1482  2.5965  0.8970
13186TIP3    H261050   0.687   2.874  15.038 -1.4808  0.3387  1.3935
13187TIP3   OH261051   1.249   1.518   3.315 -0.1590 -0.0364  0.3794
13187TIP3    H161052   1.175   1.457   3.308 -0.2701 -0.1302  1.9230
13187TIP3    H261053   1.209   1.600   3.342 -0.0073  0.7600 -1.6746
13188TIP3   OH261054   4.478   0.542  11.846  0.1280 -0.2106 -0.3936
13188TIP3    H161055   4.508   0.623  11.887 -2.5492  1.7778 -2.0210
13188TIP3    H261056   4.481   0.560  11.752 -1.2350 -1.7239 -0.7744
13189TIP3   OH261057   0.829   1.678   2.309 -0.3818  0.1662 -0.2490
13189TIP3    H161058   0.788   1.605   2.262 -0.2608  1.0649 -1.8354
13189TIP3    H261059   0.890   1.716   2.245  0.5063  0.8574  0.9752
13190TIP3   OH261060   3.254   2.055   3.767  0.2741  0.4360 -0.0535
13190TIP3    H161061   3.317   1.983   3.769 -0.0750  0.1262 -0.0226
13190TIP3    H261062   3.187   2.026   3.704  1.2424  1.6844 -1.7482
13191TIP3   OH261063   6.024   6.765   2.774 -0.1563  0.5860  0.6813
13191TIP3    H161064   6.086   6.796   2.708  0.0301 -1.1465 -0.0158
13191TIP3    H261065   5.938   6.787   2.737 -0.0909 -1.1151 -0.6144
13192TIP3   OH261066   5.457   6.439  15.768 -0.0783 -0.2846  0.0744
13192TIP3    H161067   5.417   6.435  15.681 -0.8394  3.4305  0.0939
13192TIP3    H261068   5.536   6.492  15.756 -0.8240  1.3263  1.7561
13193TIP3   OH261069   6.489   2.980  16.051  0.0048  0.4029  0.0835
13193TIP3    H161070   6.452   2.905  16.005  1.8088 -0.9337  0.7113
13193TIP3    H261071   6.451   2.975  16.138 -1.3935  1.4147 -0.4321
13194TIP3   OH261072   2.787   1.744  12.624 -0.1717  0.3926 -0.3924
13194TIP3    H161073   2.704   1.730  12.670  0.3540  0.2332  0.5269
13194TIP3    H261074   2.835   1.662  12.636  0.5536  0.8698  0.0025
13195TIP3   OH261075   1.167   4.483  15.215 -0.4549 -0.0645  0.2755
13195TIP3    H161076   1.210   4.560  15.253 -2.4000  1.2957 -0.1244
13195TIP3    H261077   1.227   4.454  15.146  1.2822 -0.2195  1.7615
13196TIP3   OH261078   4.814   0.591  13.650 -0.7367 -0.1870 -0.8401
13196TIP3    H161079   4.822   0.580  13.555 -1.5591  0.9542 -1.0665
13196TIP3    H261080   4.740   0.651  13.661 -0.3787  0.0413  0.5037
13197TIP3   OH261081   5.207   1.797  13.691  0.3638 -0.3951  0.2855
13197TIP3    H161082   5.231   1.846  13.770 -1.1898  0.7415  0.1209
13197TIP3    H261083   5.159   1.721  13.724 -0.9765  0.4816  0.4802
13198TIP3   OH261084   2.145   1.964  14.834  0.4608  0.6637 -0.3183
13198TIP3    H161085   2.153   1.994  14.925 -2.0453  0.6529 -0.0119
13198TIP3    H261086   2.053   1.938  14.826  0.8930 -0.3864 -2.5660
13199TIP3   OH261087   1.177   3.329  12.576 -0.1059  0.4688  0.5062
13199TIP3    H161088   1.248   3.350  12.515 -0.2522  1.1526  0.5637
13199TIP3    H261089   1.217   3.272  12.642  0.3590  0.7603  0.4777
13200TIP3   OH261090   6.502   4.340   3.308 -0.5053 -0.0145 -0.4827
13200TIP3    H161091   6.570   4.278   3.282 -0.3031  0.2523 -0.5931
13200TIP3    H261092   6.508   4.343   3.404 -0.4632 -0.1050 -0.4824
13201TIP3   OH261093   1.043   0.568   1.482 -0.3740  0.3116  0.4349
13201TIP3    H161094   1.100   0.492   1.497  0.6654  0.5365 -1.8890
13201TIP3    H261095   0.956   0.531   1.469  0.6550 -1.1348 -4.5539
13202TIP3   OH261096   6.491   6.070   3.108  0.9472  0.2634  0.1617
13202TIP3    H161097   6.514   5.988   3.064  3.0653  0.9674 -0.1378
13202TIP3    H261098   6.544   6.136   3.064 -0.2809  1.7305  0.7934
13203TIP3   OH261099   6.493   5.058  16.604 -0.0700  0.4088  0.1701
13203TIP3    H161100   6.582   5.063  16.639 -0.7213 -2.6326  2.6188
13203TIP3    H261101   6.501   5.001  16.528 -0.1000 -1.2139  1.3444
13204TIP3   OH261102   1.207   2.263  14.285  0.5963  0.4963 -0.1462
13204TIP3    H161103   1.236   2.219  14.366 -0.9016 -0.7440 -0.2346
13204TIP3    H261104   1.118   2.294  14.305  0.7068  1.3425 -0.9113
13205TIP3   OH261105   0.156   2.532  15.309 -0.2260 -0.4404 -0.7761
13205TIP3    H161106   0.143   2.467  15.240 -0.2756 -2.0133  0.6514
13205TIP3    H261107   0.071   2.574  15.318 -0.5168 -0.9684 -0.9646
13206TIP3   OH261108   1.267   1.754   4.284  0.3642  0.3262 -0.1538
13206TIP3    H161109   1.190   1.761   4.340  1.4959  0.2490  1.4710
13206TIP3    H261110   1.281   1.843   4.253  0.0636  0.4809  0.1401
13207TIP3   OH261111   3.373   0.983   1.019  0.3344  0.3829 -0.3345
13207TIP3    H161112   3.425   0.937   0.954 -1.0691  1.4891 -2.3234
13207TIP3    H261113   3.282   0.965   0.995 -0.2417  0.4200  1.6373
13208TIP3   OH261114   0.547   6.661   4.073  0.0665 -0.2573  0.7158
13208TIP3    H161115   0.632   6.701   4.056  0.0807  0.2311  1.8496
13208TIP3    H261116   0.547   6.581   4.021  1.0985 -0.1137  0.4759
13209TIP3   OH261117   1.679   5.707   3.462  0.6734 -0.2314  0.0289
13209TIP3    H161118   1.631   5.634   3.424 -0.4191  0.0325  0.8460
13209TIP3    H261119   1.762   5.670   3.490  0.5373 -0.9301 -0.4816
13210TIP3   OH261120   5.521   3.433   0.297 -0.0933 -0.1642  0.1590
13210TIP3    H161121   5.556   3.522   0.295  1.7872 -0.8531 -0.6500
13210TIP3    H261122   5.477   3.423   0.212 -0.6189  0.1039  0.3979
13211TIP3   OH261123   2.266   6.361   2.764  0.1089  0.7873 -0.4902
13211TIP3    H161124   2.223   6.352   2.679 -0.7713  0.9507 -0.0623
13211TIP3    H261125   2.208   6.317   2.825  1.6545 -1.0717 -0.2337
13212TIP3   OH261126   6.140   2.962  15.274  0.1293  0.0226  0.1337
13212TIP3    H161127   6.070   2.897  15.279 -0.9629  1.2182  1.3254
13212TIP3    H261128   6.182   2.960  15.359  1.6006 -0.6886 -0.5794
13213TIP3   OH261129   6.521   2.332   1.883 -0.2304  0.5249  0.7427
13213TIP3    H161130   6.614   2.319   1.866 -0.3383  0.5838  0.0714
13213TIP3    H261131   6.495   2.403   1.824 -0.7998  0.1903  0.5779
13214TIP3   OH261132   0.158   1.104  10.335 -0.0138 -0.2121  0.0967
13214TIP3    H161133   0.192   1.121  10.423  1.4527  0.2995 -0.5323
13214TIP3    H261134   0.223   1.046  10.295  0.2876  0.9837 -1.2454
13215TIP3   OH261135   4.482   1.084   2.137  0.5535 -0.0801 -0.2609
13215TIP3    H161136   4.527   1.115   2.058  0.2486  1.6864  0.2215
13215TIP3    H261137   4.398   1.052   2.106  1.2468 -1.3641 -0.8947
13216TIP3   OH261138   1.608   3.964   1.213 -0.1948 -0.8426  0.1468
13216TIP3    H161139   1.529   3.947   1.161  0.4726 -2.6244 -0.3517
13216TIP3    H261140   1.583   3.941   1.302 -1.0008  1.1387  0.4775
13217TIP3   OH261141   0.653   2.666   0.634 -0.1015  0.4584  0.7355
13217TIP3    H161142   0.704   2.742   0.662 -0.3070  0.6052  0.7176
13217TIP3    H261143   0.607   2.696   0.555 -1.2923  0.7858  1.5127
13218TIP3   OH261144   4.075   1.772   4.009 -0.2273  0.4748 -0.0225
13218TIP3    H161145   4.102   1.802   4.095 -0.6496 -0.4228  0.4396
13218TIP3    H261146   4.149   1.722   3.976  0.6649  2.3511 -0.9968
13219TIP3   OH261147   6.665   5.686  16.039 -0.0847  0.2887 -0.0120
13219TIP3    H161148   6.717   5.642  16.106  0.2531 -0.0846 -0.5160
13219TIP3    H261149   6.694   5.647  15.956 -1.0258  0.2107 -0.3168
13220TIP3   OH261150   1.643   4.853   0.307 -0.1622  0.2345  0.3923
13220TIP3    H161151   1.586   4.794   0.257 -0.4168 -1.0339  2.0654
13220TIP3    H261152   1.724   4.804   0.320  0.6976  1.3605 -0.5058
13221TIP3   OH261153   5.829   2.472   2.807  0.2500  0.7798 -0.3613
13221TIP3    H161154   5.753   2.421   2.780  0.7237 -1.6629  2.5350
13221TIP3    H261155   5.802   2.563   2.791 -2.8442 -0.0261 -0.4708
13222TIP3   OH261156   6.144   1.449   3.516 -0.1314  0.2684 -0.2945
13222TIP3    H161157   6.189   1.441   3.600  0.4666 -0.1146 -0.6423
13222TIP3    H261158   6.059   1.489   3.538 -1.3578 -2.7036  0.9392
13223TIP3   OH261159   4.356   6.760  10.691  0.3100  0.0138 -0.0201
13223TIP3    H161160   4.358   6.783  10.598  0.0970 -0.0893 -0.0506
13223TIP3    H261161   4.401   6.832  10.734 -0.0028  0.2941 -0.1551
13224TIP3   OH261162   6.627   0.446  15.436 -0.6126  0.1565  0.4051
13224TIP3    H161163   6.697   0.511  15.426 -0.8359  0.6062  1.5663
13224TIP3    H261164   6.608   0.417  15.347 -0.3419  1.5264 -0.1246
13225TIP3   OH261165   2.321   0.118   2.010 -0.1417 -0.7102 -0.2403
13225TIP3    H161166   2.408   0.080   2.018 -0.0738 -0.4197  0.4172
13225TIP3    H261167   2.270   0.080   2.081 -0.2089  0.0458  0.1266
13226TIP3   OH261168   3.704   1.971  11.176 -0.2092 -0.3688 -0.0699
13226TIP3    H161169   3.798   1.965  11.161 -0.3358  0.0492 -1.0635
13226TIP3    H261170   3.693   1.946  11.268  1.0203  1.0141  0.4929
13227TIP3   OH261171   1.650   6.056  12.721  0.0856 -0.0763  0.1803
13227TIP3    H161172   1.742   6.076  12.732  0.1479  0.0897 -0.6012
13227TIP3    H261173   1.613   6.132  12.676 -0.1091 -0.7907 -0.8932
13228TIP3   OH261174   2.995   3.255  12.023  0.3987 -0.4474 -0.0587
13228TIP3    H161175   2.939   3.333  12.018  0.8695 -0.1158 -0.2759
13228TIP3    H261176   3.082   3.290  12.038  0.3019 -1.0468  2.1659
13229TIP3   OH261177   0.803   3.114   6.337  0.2046  0.3498  0.2162
13229TIP3    H161178   0.718   3.159   6.340  0.9752  1.8976 -0.1252
13229TIP3    H261179   0.848   3.154   6.263  1.6866  0.4188  1.1112
13230TIP3   OH261180   5.704   2.277   2.470  0.2871 -0.0927  0.1106
13230TIP3    H161181   5.627   2.285   2.526  0.1018  1.3769 -0.2893
13230TIP3    H261182   5.749   2.361   2.479  0.5537 -0.0227 -1.4733
13231TIP3   OH261183   6.756   2.032  11.166  0.0571 -0.3555  0.0477
13231TIP3    H161184   6.800   2.018  11.249 -0.8756  1.7544  0.9630
13231TIP3    H261185   6.671   2.070  11.189 -1.1840 -1.8257 -1.7749
13232TIP3   OH261186   3.773   3.576   2.556  0.5290  0.0860 -0.7115
13232TIP3    H161187   3.790   3.485   2.581 -1.4254 -0.1154  0.1554
13232TIP3    H261188   3.733   3.570   2.469 -0.1678  0.0418 -0.3947
13233TIP3   OH261189   5.143   2.307   0.096  0.3453  0.0309 -0.3982
13233TIP3    H161190   5.215   2.343   0.148  1.0464  0.0360 -1.3301
13233TIP3    H261191   5.088   2.382   0.075 -0.8988 -0.2140  1.7202
13234TIP3   OH261192   1.745   3.959   4.907  0.1318  0.2284 -0.2774
13234TIP3    H161193   1.791   3.977   4.990 -1.8555  1.6702  0.5833
13234TIP3    H261194   1.801   4.000   4.840  1.1651  0.0819  0.4627
13235TIP3   OH261195   4.483   4.311  13.932  0.6300 -0.4082 -1.0157
13235TIP3    H161196   4.577   4.322  13.916  0.5548 -0.9270 -1.8573
13235TIP3    H261197   4.445   4.295  13.845 -0.0009 -1.9304 -0.4981
13236TIP3   OH261198   6.200   5.648  11.460 -0.3482 -0.3340 -0.3934
13236TIP3    H161199   6.120   5.684  11.421  0.1708  0.1518 -1.0109
13236TIP3    H261200   6.269   5.667  11.397  0.1194 -1.5057 -0.2577
13237TIP3   OH261201   4.442   0.333   0.698 -0.3787  0.4147  0.2318
13237TIP3    H161202   4.506   0.367   0.761 -0.0581  1.4338 -0.6242
13237TIP3    H261203   4.395   0.265   0.747  0.5912  0.4278  1.2251
13238TIP3   OH261204   6.028   3.740   3.990  0.4966 -0.0548  0.3433
13238TIP3    H161205   6.039   3.663   3.933 -1.9766  0.6823 -1.3144
13238TIP3    H261206   5.974   3.800   3.938 -2.0914  0.6115  3.4939
13239TIP3   OH261207   0.391   1.325  14.759 -0.1854 -1.0023 -0.1317
13239TIP3    H161208   0.479   1.296  14.784 -0.3658 -1.5567 -0.1337
13239TIP3    H261209   0.332   1.271  14.812 -0.5676 -1.8727 -1.4007
13240TIP3   OH261210   0.581   5.139  12.475 -0.0190 -0.3951  0.0694
13240TIP3    H161211   0.619   5.054  12.455 -0.7636 -0.5105 -0.9645
13240TIP3    H261212   0.651   5.188  12.518  1.1975 -0.6999 -1.5033
13241TIP3   OH261213   0.003   4.357  16.855 -0.1419 -0.5262  0.4943
13241TIP3    H161214   0.072   4.315  16.803  1.0438 -0.7931  2.1922
13241TIP3    H261215  -0.019   4.436  16.807 -1.5886 -2.3930 -2.1879
13242TIP3   OH261216   6.246   0.767  12.497  0.6590 -0.0540  0.3239
13242TIP3    H161217   6.282   0.729  12.417  1.5092 -0.5516  0.9219
13242TIP3    H261218   6.186   0.835  12.467  3.0472  1.7391 -0.7629
13243TIP3   OH261219   2.488   6.524  12.686 -0.4027  0.3633  0.1596
13243TIP3    H161220   2.427   6.464  12.729 -1.0387  0.5230 -0.4921
13243TIP3    H261221   2.522   6.578  12.757 -2.8138  1.8458  0.3089
13244TIP3   OH261222   5.188   3.695   2.109  0.2035 -0.2633  0.0865
13244TIP3    H161223   5.113   3.742   2.144  0.7688 -0.0381  1.0320
13244TIP3    H261224   5.202   3.622   2.170 -0.5317 -1.5567 -1.2437
13245TIP3   OH261225   4.274   2.672  15.393 -0.0457 -0.0400 -0.0896
13245TIP3    H161226   4.313   2.760  15.391  0.3513 -0.2161 -1.4408
13245TIP3    H261227   4.182   2.686  15.372 -0.2230  0.1484  0.7790
13246TIP3   OH261228   2.351   0.350  10.372 -0.5879  0.3765 -0.0594
13246TIP3    H161229   2.389   0.411  10.435 -0.8696  0.5275 -0.0361
13246TIP3    H261230   2.417   0.281  10.362  0.9100  1.9805 -2.0282
13247TIP3   OH261231   5.656   6.823   0.125 -0.2062 -0.7368  0.0978
13247TIP3    H161232   5.586   6.847   0.064 -1.0278 -0.6652  1.0486
13247TIP3    H261233   5.697   6.906   0.148 -1.9745 -0.3348  2.0957
13248TIP3   OH261234   2.318   1.049   2.300 -0.0567  0.5991 -0.3681
13248TIP3    H161235   2.342   0.963   2.265 -0.6756 -0.2380  1.1459
13248TIP3    H261236   2.388   1.069   2.362  0.4764  1.5705 -1.2499
13249TIP3   OH261237   4.568   4.224  12.307 -0.1514 -0.3692  0.0260
13249TIP3    H161238   4.513   4.292  12.345 -0.8931 -0.6403 -0.5261
13249TIP3    H261239   4.649   4.226  12.358 -0.4909  0.3596  0.5453
13250TIP3   OH261240   3.985   3.109   1.155  0.0480 -0.7914  0.2657
13250TIP3    H161241   4.006   3.202   1.162  1.0880 -0.9434 -0.6529
13250TIP3    H261242   3.973   3.080   1.246 -0.1772  0.1988  0.5612
13251TIP3   OH261243   1.599   4.719  12.766  0.1379  0.1391  0.2267
13251TIP3    H161244   1.546   4.707  12.845 -1.6198  0.3513 -0.8646
13251TIP3    H261245   1.561   4.794  12.722  2.2428  1.1758  0.0387
13252TIP3   OH261246   2.489   4.691   0.211 -0.4789 -0.0445 -0.2433
13252TIP3    H161247   2.523   4.624   0.269  0.7436  0.4179 -0.3827
13252TIP3    H261248   2.496   4.772   0.261 -0.6267  0.1742 -0.5709
13253TIP3   OH261249   4.747   0.504  13.901  0.3359 -0.2275 -0.3004
13253TIP3    H161250   4.782   0.511  13.812 -0.2801 -1.0770 -0.6166
13253TIP3    H261251   4.760   0.412  13.925  0.7318  0.0468  0.5987
13254TIP3   OH261252   0.272   4.309   4.776  0.1400 -0.9447 -0.2711
13254TIP3    H161253   0.294   4.271   4.691 -1.3677 -1.1566 -0.5856
13254TIP3    H261254   0.192   4.264   4.803  1.5690 -2.2757  2.1843
13255TIP3   OH261255   5.645   0.854  15.205  0.0889 -0.1294 -0.8224
13255TIP3    H161256   5.691   0.923  15.158  0.7309  0.3777  0.4762
13255TIP3    H261257   5.662   0.774  15.155  1.3703  0.2586 -1.0324
13256TIP3   OH261258   1.263   5.270  14.270  0.4536 -0.0755  0.0603
13256TIP3    H161259   1.185   5.215  14.263 -0.5679  0.8107  2.9023
13256TIP3    H261260   1.336   5.208  14.276 -0.6262 -1.2613  2.8905
13257TIP3   OH261261   5.162   1.491  11.962 -0.4969 -0.0849 -0.0510
13257TIP3    H161262   5.198   1.556  11.901 -0.6958 -0.2428 -0.3403
13257TIP3    H261263   5.138   1.542  12.040  0.8247 -0.0509  0.3581
13258TIP3   OH261264   4.924   3.651  14.808  1.0301  0.1567 -0.0710
13258TIP3    H161265   4.932   3.567  14.764 -0.6618 -0.5719  0.9050
13258TIP3    H261266   4.839   3.685  14.779  0.2435  0.0370  1.8876
13259TIP3   OH261267   4.783   2.921   0.400 -0.1319 -0.1296  0.6495
13259TIP3    H161268   4.854   2.887   0.455  1.8765  0.8515 -1.2023
13259TIP3    H261269   4.765   3.008   0.434  1.5513  0.7286 -0.5536
13260TIP3   OH261270   1.967   6.342  14.850  0.0673  0.5276  0.4950
13260TIP3    H161271   1.892   6.308  14.899 -0.1846  0.7144  0.2377
13260TIP3    H261272   1.998   6.267  14.799 -0.9401  0.8551 -0.6381
13261TIP3   OH261273   3.905   3.491   5.106  0.0223  0.1180  0.3207
13261TIP3    H161274   3.819   3.482   5.147  0.0237 -1.1536  0.0805
13261TIP3    H261275   3.929   3.402   5.079  1.2907  0.4888  0.1276
13262TIP3   OH261276   0.121   6.592  14.332  0.2831  0.2588  0.1586
13262TIP3    H161277   0.130   6.653  14.405 -0.2731  0.7735 -0.1963
13262TIP3    H261278   0.125   6.647  14.253  0.0850 -0.1944 -0.1759
13263TIP3   OH261279   0.332   4.106   3.295 -0.2600  0.6346  0.5036
13263TIP3    H161280   0.349   4.190   3.338 -1.0149  0.0225  2.0398
13263TIP3    H261281   0.404   4.050   3.325 -0.7667  0.2179  0.9520
13264TIP3   OH261282   6.307   1.541  17.087 -0.4053  0.2182 -0.0774
13264TIP3    H161283   6.377   1.607  17.084 -1.0916  0.9693  0.1680
13264TIP3    H261284   6.347   1.463  17.050  1.0524  0.1934  1.4407
13265TIP3   OH261285   4.056   3.273  15.724 -0.2892 -0.2480 -0.4494
13265TIP3    H161286   4.113   3.275  15.647  1.7299 -3.5226  0.7455
13265TIP3    H261287   3.978   3.227  15.694 -0.9529  1.3323 -1.2670
13266TIP3   OH261288   6.580   4.420  15.332 -0.1281 -0.2822  0.0737
13266TIP3    H161289   6.609   4.329  15.330 -0.7967 -0.4959 -0.0744
13266TIP3    H261290   6.605   4.451  15.420  1.6103 -0.0851 -0.4475
13267TIP3   OH261291   0.552   2.845  14.905 -0.2672  0.0675 -0.3879
13267TIP3    H161292   0.496   2.885  14.838 -1.2104  0.8127  0.7959
13267TIP3    H261293   0.493   2.829  14.978  0.9734  0.4365  0.7317
13268TIP3   OH261294   3.009   0.888   0.810  0.3795  0.2880  0.0903
13268TIP3    H161295   3.010   0.958   0.745  1.1184  1.5864  1.4394
13268TIP3    H261296   3.096   0.847   0.803 -0.3055 -1.0411 -1.2063
13269TIP3   OH261297   3.449   4.122   1.820  0.5676 -0.2864 -0.1794
13269TIP3    H161298   3.502   4.049   1.791  1.1939 -0.2796  0.9050
13269TIP3    H261299   3.360   4.087   1.826  0.8664 -0.9705  0.3483
13270TIP3   OH261300   2.161   2.075  11.535  0.1216  0.5053  0.1478
13270TIP3    H161301   2.178   1.982  11.551 -2.2867 -0.8820 -3.9984
13270TIP3    H261302   2.234   2.103  11.480  0.4292  0.9090  0.7467
13271TIP3   OH261303   3.724   0.389   4.987 -0.5754  0.5146 -0.4714
13271TIP3    H161304   3.674   0.461   4.948 -1.7635  1.0775  1.9080
13271TIP3    H261305   3.659   0.320   5.000 -0.1252  0.1917  0.0959
13272TIP3   OH261306   5.022   0.856  12.004 -0.5494 -0.2755  0.4369
13272TIP3    H161307   5.113   0.827  11.992 -0.4478  0.2723 -0.1460
13272TIP3    H261308   5.011   0.926  11.940 -1.6088 -0.8255 -0.0049
13273TIP3   OH261309   0.972   6.115   6.564  0.0187 -0.0045  0.1841
13273TIP3    H161310   1.017   6.036   6.593  1.3279 -0.0290 -1.6899
13273TIP3    H261311   0.889   6.115   6.611  0.6902 -1.6161  1.4447
13274TIP3   OH261312   5.733   1.428  11.380  0.1270 -0.0856  0.0914
13274TIP3    H161313   5.698   1.516  11.369 -0.8812 -0.3573  0.9064
13274TIP3    H261314   5.776   1.408  11.297  0.2173  1.0993 -0.1626
13275TIP3   OH261315   6.292   5.054   3.739  0.1196  0.5637  0.1966
13275TIP3    H161316   6.240   5.123   3.781 -0.9786  0.0628 -0.2977
13275TIP3    H261317   6.251   4.973   3.769  1.4176  0.0965  0.8033
13276TIP3   OH261318   2.563   4.835  13.895  0.6551  0.8056 -0.1980
13276TIP3    H161319   2.612   4.830  13.813  0.0725  1.0526 -0.5658
13276TIP3    H261320   2.581   4.751  13.938  0.2701  0.3063 -0.9781
13277TIP3   OH261321   4.997   6.080  14.966  0.3402  0.6131 -0.2535
13277TIP3    H161322   4.910   6.117  14.984  0.1592 -0.4024  1.1618
13277TIP3    H261323   5.058   6.143  15.004  0.2102  1.1285 -0.8895
13278TIP3   OH261324   3.055   3.486  13.949 -0.8814  0.2191 -0.1608
13278TIP3    H161325   3.139   3.528  13.931 -1.1208  1.2297  0.9380
13278TIP3    H261326   3.034   3.513  14.039 -0.2832 -3.5313  1.2901
13279TIP3   OH261327   0.582   3.953  14.304  0.8058  0.1439 -0.1753
13279TIP3    H161328   0.543   3.910  14.228  1.3479  0.6028 -0.7239
13279TIP3    H261329   0.568   3.892  14.376  1.3600 -0.8501 -0.8887
13280TIP3   OH261330   0.440   6.776  16.696  0.3830 -0.2494  0.2305
13280TIP3    H161331   0.410   6.685  16.699  0.3474 -0.2403  0.1381
13280TIP3    H261332   0.360   6.828  16.687  0.4294 -0.2303 -0.1036
13281TIP3   OH261333   6.362   5.841   6.148 -0.4739  0.6530 -0.0493
13281TIP3    H161334   6.432   5.906   6.151  0.9858 -0.8982  1.3416
13281TIP3    H261335   6.323   5.843   6.235  0.9003 -1.5934  0.7185
13282TIP3   OH261336   3.107   3.519  14.504  0.9322 -0.3208 -0.2472
13282TIP3    H161337   3.082   3.546  14.593  2.3800 -1.8966  0.6971
13282TIP3    H261338   3.183   3.574  14.483  1.5834 -1.0507  0.1628
13283TIP3   OH261339   4.174   1.883  12.972 -0.3059 -0.1285  0.3927
13283TIP3    H161340   4.187   1.889  13.067  0.6218  1.4521  0.2118
13283TIP3    H261341   4.254   1.921  12.935 -0.6624 -0.7021 -1.0303
13284TIP3   OH261342   4.198   5.330   2.210  0.0171  0.2372  0.2292
13284TIP3    H161343   4.227   5.291   2.128 -1.4180  1.4261 -0.9192
13284TIP3    H261344   4.108   5.359   2.192  0.1890  1.9105  1.7295
13285TIP3   OH261345   6.245   4.187  15.973 -0.1162  0.7317 -0.0955
13285TIP3    H161346   6.291   4.263  16.007  0.3950  0.6613 -0.6169
13285TIP3    H261347   6.295   4.161  15.896  0.5763 -1.0340  0.8995
13286TIP3   OH261348   0.475   0.424   2.228 -0.1718  0.0849 -0.1735
13286TIP3    H161349   0.391   0.459   2.198  0.2487  0.5635 -0.8368
13286TIP3    H261350   0.503   0.366   2.157  0.1680  0.1128 -0.0630
13287TIP3   OH261351   4.256   5.683  11.686 -0.3658 -0.0613  0.4522
13287TIP3    H161352   4.201   5.604  11.683  1.2080 -1.1824 -0.7825
13287TIP3    H261353   4.303   5.676  11.769 -0.0653 -0.5653  0.2448
13288TIP3   OH261354   2.949   5.476  11.412 -0.3740 -0.1235 -0.5897
13288TIP3    H161355   2.926   5.545  11.350  0.3758  0.1948 -0.5289
13288TIP3    H261356   2.965   5.523  11.494 -1.4719 -0.5525 -0.1132
13289TIP3   OH261357   5.255   1.362  10.846 -0.3335 -0.3480 -0.6093
13289TIP3    H161358   5.278   1.280  10.890 -1.4665  0.4248  1.6077
13289TIP3    H261359   5.246   1.338  10.754  1.6581 -2.1909 -0.4087
13290TIP3   OH261360   6.116   3.182   1.939 -0.0975 -0.1321 -0.2173
13290TIP3    H161361   6.048   3.248   1.921  0.1984  0.3993  0.5445
13290TIP3    H261362   6.176   3.188   1.865 -1.4422 -1.3788 -1.4669
13291TIP3   OH261363   3.167   3.255  11.584  0.4846 -0.1423 -0.2670
13291TIP3    H161364   3.120   3.204  11.518  0.1944 -2.3334  1.4916
13291TIP3    H261365   3.245   3.287  11.539 -1.6057  1.9323 -2.7367
13292TIP3   OH261366   6.173   5.675  16.213 -0.4114 -0.1138 -0.3738
13292TIP3    H161367   6.267   5.656  16.213 -0.6470 -1.6970 -2.6371
13292TIP3    H261368   6.167   5.769  16.233  1.6480  0.0286 -0.2656
13293TIP3   OH261369   0.729   4.497  12.947 -0.0959 -0.1015  0.1979
13293TIP3    H161370   0.680   4.417  12.960  0.1626 -0.4241 -0.6911
13293TIP3    H261371   0.709   4.551  13.023 -0.7554 -0.7611  0.5027
13294TIP3   OH261372   0.181   3.425  16.169 -0.2191 -0.6133  0.3053
13294TIP3    H161373   0.167   3.407  16.262  1.3056 -0.8047  0.5224
13294TIP3    H261374   0.153   3.516  16.158 -1.7900 -1.0311  0.6061
13295TIP3   OH261375   4.884   1.243  12.941  0.1791 -0.0990 -0.8599
13295TIP3    H161376   4.874   1.298  12.863 -0.1934  0.1487 -0.6380
13295TIP3    H261377   4.804   1.257  12.991  0.7133  0.2703 -0.0896
13296TIP3   OH261378   3.818   3.420  12.726  0.3680  0.7502 -0.4853
13296TIP3    H161379   3.818   3.397  12.633 -3.0242 -2.3838  0.0654
13296TIP3    H261380   3.731   3.455  12.742  1.1737  2.0587  1.4237
13297TIP3   OH261381   0.896   0.864   4.908  0.4221  0.4085  0.7534
13297TIP3    H161382   0.959   0.834   4.974 -0.6747 -0.1944  1.5699
13297TIP3    H261383   0.906   0.803   4.835  0.8719  0.4093  0.8102
13298TIP3   OH261384   1.393   2.654   0.082 -0.7602  0.0960  0.4838
13298TIP3    H161385   1.368   2.569   0.118 -0.8550  0.6330  1.7587
13298TIP3    H261386   1.386   2.714   0.157  1.3250  0.8595  0.1329
13299TIP3   OH261387   1.947   6.021  11.760 -0.0649  0.3201  0.4690
13299TIP3    H161388   1.976   6.090  11.701 -0.2963 -0.8137 -1.0214
13299TIP3    H261389   1.857   6.044  11.783 -0.3303  0.2202 -0.4692
13300TIP3   OH261390   4.651   4.533  16.010 -0.0532 -0.3465 -0.2739
13300TIP3    H161391   4.623   4.442  16.020 -1.0126 -0.4263 -2.7812
13300TIP3    H261392   4.578   4.575  15.964  1.1910  1.1757 -0.9498
13301TIP3   OH261393   4.728   4.857   4.178  0.1195  0.2519  0.1467
13301TIP3    H161394   4.756   4.865   4.086  1.1103 -0.9073  0.3180
13301TIP3    H261395   4.633   4.851   4.173  0.0076  1.9347 -0.6513
13302TIP3   OH261396   0.902   2.791   3.447 -0.6271 -0.4902  0.0281
13302TIP3    H161397   0.949   2.711   3.424  1.5666  1.2106 -2.0030
13302TIP3    H261398   0.865   2.821   3.364  0.3361  1.5970  0.2922
13303TIP3   OH261399   4.035   1.117   3.983 -0.1185  0.3273  0.1006
13303TIP3    H161400   4.045   1.198   3.933  0.2984  0.4046  0.3078
13303TIP3    H261401   4.066   1.139   4.071 -0.4363  0.0698  0.2774
13304TIP3   OH261402   2.402   2.760  12.820 -0.2610  0.3188  0.1668
13304TIP3    H161403   2.373   2.839  12.867  0.3530  0.1035  0.9282
13304TIP3    H261404   2.325   2.731  12.772 -0.2000  2.0573 -1.0946
13305TIP3   OH261405   0.813   6.659  15.368  0.4154  0.8719  0.2667
13305TIP3    H161406   0.745   6.708  15.416 -0.2394 -0.6971  1.0199
13305TIP3    H261407   0.834   6.585  15.425  0.9654 -0.0464 -1.0716
13306TIP3   OH261408   6.204   1.445  12.403 -0.1596  0.0474 -0.2477
13306TIP3    H161409   6.209   1.382  12.331  1.3524 -0.3852  0.1890
13306TIP3    H261410   6.111   1.463  12.413 -0.5452 -1.3762 -1.0312
13307TIP3   OH261411   3.579   2.619  16.900 -0.4121 -0.2183  0.4264
13307TIP3    H161412   3.571   2.640  16.993 -0.2888  0.9516  0.1848
13307TIP3    H261413   3.669   2.588  16.890  0.7951  2.9676  0.1297
13308TIP3   OH261414   0.114   5.131  12.911 -0.2822  0.2664 -0.1011
13308TIP3    H161415   0.043   5.067  12.912 -0.4006  0.3683  1.5590
13308TIP3    H261416   0.192   5.081  12.938  0.3294  0.1363 -1.9828
13309TIP3   OH261417   6.466   6.380   4.476 -0.5565  0.4324  0.0587
13309TIP3    H161418   6.484   6.446   4.408  0.0008 -0.2029 -0.4295
13309TIP3    H261419   6.507   6.416   4.554 -0.6740  0.8934 -0.0866
13310TIP3   OH261420   6.616   1.564  11.322 -0.5783  0.6429  0.0006
13310TIP3    H161421   6.599   1.492  11.261 -1.7269  0.0058  1.0356
13310TIP3    H261422   6.692   1.609  11.284 -0.7443 -0.2140 -1.4515
13311TIP3   OH261423   2.995   5.720   2.473 -0.1852  0.0823  0.3933
13311TIP3    H161424   2.932   5.687   2.408  1.0083  0.4378 -0.9907
13311TIP3    H261425   2.943   5.733   2.552 -1.3084 -2.3144  0.1487
13312TIP3   OH261426   0.662   6.512   6.441  0.6247  0.4775  0.7246
13312TIP3    H161427   0.626   6.568   6.373  1.9583  1.0034  0.4079
13312TIP3    H261428   0.755   6.535   6.444  0.9462 -0.7985  1.4942
13313TIP3   OH261429   0.999   3.869   5.357 -0.2711  0.3768  0.0144
13313TIP3    H161430   1.038   3.889   5.443  0.5027  1.5583 -0.5902
13313TIP3    H261431   0.980   3.775   5.361 -0.1825  0.3946  1.4488
13314TIP3   OH261432   1.494   5.545   3.330  0.0539  0.0128 -0.6424
13314TIP3    H161433   1.471   5.474   3.269  0.7826 -1.1211  0.3462
13314TIP3    H261434   1.477   5.625   3.281  0.2413 -0.8536 -2.2008
13315TIP3   OH261435   2.756   4.466   1.690 -0.2873  0.5936  0.3393
13315TIP3    H161436   2.736   4.542   1.635  2.0389 -0.0352 -1.5427
13315TIP3    H261437   2.691   4.400   1.665  0.9263  0.1961 -2.0681
13316TIP3   OH261438   1.352   4.101   2.838  0.0585  0.1978  0.4753
13316TIP3    H161439   1.414   4.028   2.833  1.8529  1.6706  0.0102
13316TIP3    H261440   1.383   4.153   2.912 -0.3146  1.2124 -0.0677
13317TIP3   OH261441   2.380   0.804  11.548  0.2887  0.3458  0.0712
13317TIP3    H161442   2.375   0.854  11.466 -0.7833  1.2911  0.6890
13317TIP3    H261443   2.457   0.838  11.592  0.4367  0.3621 -0.1959
13318TIP3   OH261444   4.017   6.500  13.087  0.4126 -0.0580 -0.5958
13318TIP3    H161445   4.055   6.533  13.168  2.5218  0.2749 -1.6507
13318TIP3    H261446   4.012   6.405  13.099 -0.2947  0.0756  0.2912
13319TIP3   OH261447   3.103   6.672   0.063 -0.4341 -0.3558 -0.7225
13319TIP3    H161448   3.024   6.685   0.116 -0.3039 -1.2999 -0.2962
13319TIP3    H261449   3.109   6.578   0.051  0.1358 -0.2306 -1.5293
13320TIP3   OH261450   5.207   0.261  11.330 -0.1820  0.0057 -0.1160
13320TIP3    H161451   5.269   0.254  11.257  0.7757  1.0523  0.5496
13320TIP3    H261452   5.222   0.182  11.381  1.1172  0.5384  0.3840
13321TIP3   OH261453   2.989   3.777   1.557  0.1341  0.6735 -0.0541
13321TIP3    H161454   2.909   3.811   1.517  0.2711 -0.3443 -1.2306
13321TIP3    H261455   2.965   3.691   1.592  0.7897  0.2080 -0.7181
13322TIP3   OH261456   1.284   1.652  13.266  0.1240  0.0120  0.1147
13322TIP3    H161457   1.377   1.631  13.257 -0.2747 -1.0543 -2.0488
13322TIP3    H261458   1.261   1.695  13.184 -1.4771 -0.4885  0.2729
13323TIP3   OH261459   0.352   6.095   3.857 -0.3930  0.3103 -0.0283
13323TIP3    H161460   0.431   6.048   3.830 -0.3562 -0.4739  1.3403
13323TIP3    H261461   0.282   6.029   3.853 -0.6668  0.5772  0.3123
13324TIP3   OH261462   5.049   3.260  15.931 -0.0133  0.1642  0.4448
13324TIP3    H161463   5.021   3.260  16.023 -1.7602  1.0637 -0.0626
13324TIP3    H261464   5.000   3.189  15.890  1.0834 -0.5195  0.2635
13325TIP3   OH261465   3.549   2.848  12.614 -0.4777  0.0851  0.0590
13325TIP3    H161466   3.585   2.937  12.619 -1.0866  0.2879  0.9536
13325TIP3    H261467   3.457   2.860  12.592 -0.7662 -0.2715  1.0073
13326TIP3   OH261468   0.987   1.282   2.982  0.1916 -0.5428  0.2363
13326TIP3    H161469   1.010   1.262   2.891  1.9869  0.4288  0.4323
13326TIP3    H261470   0.950   1.370   2.978 -0.2878 -0.7303  0.3943
13327TIP3   OH261471   0.449   3.533   2.473  1.0274  0.0058 -0.4064
13327TIP3    H161472   0.503   3.589   2.418 -0.9290  0.4788 -1.9701
13327TIP3    H261473   0.489   3.537   2.559  0.8971  3.9849 -0.3629
13328TIP3   OH261474   5.494   4.909  13.734  0.3309  0.1496 -0.5336
13328TIP3    H161475   5.580   4.870  13.751  0.2724  0.3903  0.3907
13328TIP3    H261476   5.515   4.998  13.704  0.3963  0.4544  0.3942
13329TIP3   OH261477   0.828   6.239  14.058  0.0953 -0.1116 -0.2075
13329TIP3    H161478   0.775   6.249  13.979  1.3507 -0.3905 -1.1279
13329TIP3    H261479   0.870   6.324  14.070  0.1507 -0.1647 -0.0194
13330TIP3   OH261480   1.169   6.415  14.790 -0.6581 -0.5967 -0.0357
13330TIP3    H161481   1.199   6.461  14.868  0.0658 -0.9771 -0.0829
13330TIP3    H261482   1.093   6.465  14.760 -1.0401 -0.5356  0.9952
13331TIP3   OH261483   3.326   4.497  15.990  0.2132 -0.1398  0.0854
13331TIP3    H161484   3.367   4.582  15.977  0.6700 -0.3903 -0.1266
13331TIP3    H261485   3.359   4.443  15.918 -0.1414 -0.4711  0.1678
13332TIP3   OH261486   6.419   3.643   0.508 -0.0246 -0.3579  0.0966
13332TIP3    H161487   6.438   3.730   0.472  0.1141 -0.6446 -0.5476
13332TIP3    H261488   6.505   3.602   0.517  0.0181  0.0386  1.6410
13333TIP3   OH261489   4.690   4.230  14.507 -0.2685 -0.1389  0.2435
13333TIP3    H161490   4.622   4.291  14.538 -0.6307 -0.1011 -0.5854
13333TIP3    H261491   4.724   4.190  14.586 -0.4862  0.6674  0.7592
13334TIP3   OH261492   1.549   4.756   5.432  0.2697 -0.6802  0.0816
13334TIP3    H161493   1.477   4.705   5.395  0.4872 -0.8614 -0.0953
13334TIP3    H261494   1.618   4.691   5.447  0.0493 -0.6810  1.1618
13335TIP3   OH261495   6.733   2.905   3.349  0.5864 -0.4031  0.6173
13335TIP3    H161496   6.787   2.962   3.402  0.0138 -0.3201  1.1235
13335TIP3    H261497   6.655   2.957   3.328  1.0887 -0.2112 -0.8515
13336TIP3   OH261498   3.431   1.494   3.765 -0.2066 -0.2831  0.3407
13336TIP3    H161499   3.437   1.517   3.672 -0.6378  1.7506  0.7896
13336TIP3    H261500   3.522   1.486   3.793 -0.0695 -0.3100 -0.0981
13337TIP3   OH261501   0.990   2.773  12.074  0.3481 -0.3564  0.3054
13337TIP3    H161502   0.984   2.854  12.124  0.3533  0.0239 -0.2960
13337TIP3    H261503   0.900   2.752  12.051  0.3953 -0.2196 -0.0089
13338TIP3   OH261504   4.513   2.649  13.473 -0.1855 -0.1573 -0.1512
13338TIP3    H161505   4.587   2.654  13.412  0.0925 -0.6782  0.1335
13338TIP3    H261506   4.471   2.566  13.452  0.9975 -1.2539  1.5500
13339TIP3   OH261507   1.771   3.168   3.943 -0.3289  0.1639 -0.4778
13339TIP3    H161508   1.817   3.084   3.937  0.5576  0.6460 -0.6026
13339TIP3    H261509   1.838   3.231   3.968 -1.0368  0.8010 -0.1273
13340TIP3   OH261510   2.409   1.266  16.083  0.0182 -0.8834 -0.0204
13340TIP3    H161511   2.453   1.346  16.113  0.5010 -1.7174  1.6459
13340TIP3    H261512   2.431   1.261  15.990  2.6146 -0.6679  0.4847
13341TIP3   OH261513   3.728   4.598   4.167 -0.0058  0.4495  0.7918
13341TIP3    H161514   3.707   4.611   4.075  1.1581 -0.2131  0.4168
13341TIP3    H261515   3.762   4.509   4.172  1.4765  1.0346  1.5718
13342TIP3   OH261516   3.431   3.724   1.029 -0.2883  0.0579 -0.3684
13342TIP3    H161517   3.436   3.699   1.121  1.0835  1.7166  0.0793
13342TIP3    H261518   3.369   3.662   0.990 -1.4878 -0.2330  1.8128
13343TIP3   OH261519   0.399   2.980  10.856 -0.5409 -0.3085 -0.6917
13343TIP3    H161520   0.427   2.921  10.786  0.1669 -0.1571 -0.5371
13343TIP3    H261521   0.394   3.066  10.814 -1.1238 -0.3916 -0.8038
13344TIP3   OH261522   4.918   3.396  14.657  0.2101 -0.6095  0.1965
13344TIP3    H161523   4.848   3.355  14.607 -0.1672 -1.6455  1.5241
13344TIP3    H261524   4.984   3.420  14.592 -1.5161  0.7782 -1.1478
13345TIP3   OH261525   4.969   0.125  11.932 -0.2403 -0.4377  0.5388
13345TIP3    H161526   4.924   0.060  11.879  1.5965 -2.1197  0.9477
13345TIP3    H261527   5.060   0.123  11.902  0.2387  0.6366  1.7880
13346TIP3   OH261528   5.866   6.535   4.663  0.0228  0.1353 -0.5401
13346TIP3    H161529   5.944   6.542   4.608  0.5415 -0.1456  0.1298
13346TIP3    H261530   5.897   6.558   4.751 -0.5045 -0.5836 -0.1513
13347TIP3   OH261531   3.161   0.366  12.127  0.1057 -0.4298  0.4195
13347TIP3    H161532   3.110   0.393  12.204 -0.6851  1.0088 -0.5576
13347TIP3    H261533   3.246   0.408  12.138 -0.5272  1.0687 -0.2224
13348TIP3   OH261534   4.950   1.042  11.830  0.1687  0.3591 -0.0840
13348TIP3    H161535   4.953   1.057  11.735 -1.2330  0.5442 -0.1213
13348TIP3    H261536   4.884   1.104  11.862 -0.5337 -0.7885  0.7784
13349TIP3   OH261537   6.503   3.248   0.416 -0.1216  0.0173  0.8418
13349TIP3    H161538   6.562   3.175   0.394 -1.2869 -0.3964 -1.2608
13349TIP3    H261539   6.545   3.325   0.377 -1.2612 -0.4084 -1.3884
13350TIP3   OH261540   1.667   3.782   5.213  0.1159 -0.4667 -0.1448
13350TIP3    H161541   1.664   3.839   5.290 -1.5010  0.3219 -0.7450
13350TIP3    H261542   1.757   3.790   5.180  0.4130  0.3277  0.8191
13351TIP3   OH261543   4.363   0.120  14.954 -0.6011 -0.8168  0.0888
13351TIP3    H161544   4.363   0.216  14.961  0.2349 -0.7974 -0.0127
13351TIP3    H261545   4.454   0.095  14.970 -0.7576 -1.5769 -0.1550
13352TIP3   OH261546   1.195   4.881  16.087  0.0118 -0.1281 -0.5490
13352TIP3    H161547   1.221   4.882  15.995  1.1181 -1.8938 -0.3228
13352TIP3    H261548   1.160   4.793  16.101 -0.0384  0.0687  0.7279
13353TIP3   OH261549   1.375   2.303  14.518  0.3550 -0.1638  0.0089
13353TIP3    H161550   1.368   2.396  14.498 -0.6838  0.0478  1.2409
13353TIP3    H261551   1.464   2.291  14.551  0.7152  0.2384 -0.7797
13354TIP3   OH261552   5.299   3.651  13.108 -0.2407  0.1047  0.1854
13354TIP3    H161553   5.240   3.619  13.041 -0.3940  3.3891 -1.4692
13354TIP3    H261554   5.250   3.720  13.153  1.4896  1.3758  0.2695
13355TIP3   OH261555   0.626   4.739   4.481  0.3002 -0.2631  0.1521
13355TIP3    H161556   0.622   4.807   4.414 -2.6854 -0.0037  0.4489
13355TIP3    H261557   0.656   4.784   4.560 -1.7064  0.8149  0.3639
13356TIP3   OH261558   2.955   2.794  16.421  0.4122 -0.0638 -0.2046
13356TIP3    H161559   2.989   2.798  16.331 -1.2390 -0.7326 -0.9166
13356TIP3    H261560   2.860   2.795  16.410  0.1734  0.6950  1.6068
13357TIP3   OH261561   1.874   3.508   6.320 -0.0635  0.5022  0.7860
13357TIP3    H161562   1.941   3.571   6.344 -0.2021  0.6862  0.6952
13357TIP3    H261563   1.824   3.493   6.400 -0.7411  1.3759  0.5497
13358TIP3   OH261564   2.392   2.126   1.663 -0.2511  0.0950 -0.4988
13358TIP3    H161565   2.306   2.088   1.649 -1.0823  0.8398  2.1152
13358TIP3    H261566   2.393   2.204   1.608 -1.5000  0.4048 -0.1157
13359TIP3   OH261567   1.140   5.771   0.215 -0.6315 -0.6637 -0.1758
13359TIP3    H161568   1.055   5.809   0.194 -0.5705 -0.3992  0.0429
13359TIP3    H261569   1.146   5.693   0.161  0.0530  0.6485 -2.1263
13360TIP3   OH261570   3.064   6.435  14.604  0.1303 -0.2276  0.1172
13360TIP3    H161571   3.150   6.439  14.645  0.3613 -2.4992 -0.0560
13360TIP3    H261572   3.031   6.525  14.608  1.4699  0.2152  2.3940
13361TIP3   OH261573   1.397   1.067   6.057 -0.0955  0.0229  0.0378
13361TIP3    H161574   1.446   1.065   6.139  0.5850  0.8546 -0.3345
13361TIP3    H261575   1.368   1.157   6.049  0.6465  0.1726 -1.0921
13362TIP3   OH261576   5.697   1.532  12.783  0.8765 -0.3454 -0.4073
13362TIP3    H161577   5.787   1.531  12.815  0.0529  0.4058  2.1595
13362TIP3    H261578   5.690   1.613  12.733  1.2873  0.2865  0.5349
13363TIP3   OH261579   2.092   4.350   5.664  0.5935 -0.2980  0.3293
13363TIP3    H161580   2.136   4.417   5.613 -1.4986  2.6420  2.0705
13363TIP3    H261581   2.080   4.389   5.751 -0.4042 -3.1127  1.5877
13364TIP3   OH261582   6.525   2.099  13.676 -0.6048 -0.0860  0.0373
13364TIP3    H161583   6.435   2.132  13.672 -1.0721 -1.3989 -2.2333
13364TIP3    H261584   6.524   2.021  13.620  1.5123 -1.2813  1.5202
13365TIP3   OH261585   6.286   0.500   1.765  0.1954 -0.2975 -0.3462
13365TIP3    H161586   6.310   0.592   1.754 -0.8251  0.0633  0.3198
13365TIP3    H261587   6.211   0.501   1.823  0.6016 -1.6137  0.2539
13366TIP3   OH261588   2.009   3.593   2.498  0.1758  0.5526  0.5728
13366TIP3    H161589   1.946   3.529   2.529  0.0834  0.2338 -0.2461
13366TIP3    H261590   2.015   3.577   2.403  2.8916 -0.7308  0.8620
13367TIP3   OH261591   0.259   1.919   5.381 -0.4827  0.0550 -0.2830
13367TIP3    H161592   0.286   1.992   5.326 -0.8710  0.3771 -0.0563
13367TIP3    H261593   0.183   1.881   5.336 -1.1925  0.7086  0.3319
13368TIP3   OH261594   1.270   6.343  16.606  0.1661  0.4793  0.3342
13368TIP3    H161595   1.189   6.320  16.560  0.3698  0.5324 -0.0594
13368TIP3    H261596   1.320   6.393  16.541  0.7816 -0.0827  0.3656
13369TIP3   OH261597   3.710   5.123  13.334 -0.4857  0.0540  0.1041
13369TIP3    H161598   3.758   5.189  13.384 -1.3150 -0.1212  1.1776
13369TIP3    H261599   3.619   5.153  13.337 -0.5473  0.0634 -1.3720
13370TIP3   OH261600   3.696   2.945   5.119  0.4381 -0.4863 -0.5886
13370TIP3    H161601   3.692   2.996   5.200  1.9930  1.0246 -1.4195
13370TIP3    H261602   3.720   2.857   5.148  2.5940  0.3913  0.5059
13371TIP3   OH261603   1.125   5.888  15.928  0.7394 -0.5442  0.4794
13371TIP3    H161604   1.108   5.911  16.019 -1.1462  0.3808 -0.0575
13371TIP3    H261605   1.039   5.883  15.888  1.5219 -1.0160 -1.2525
13372TIP3   OH261606   5.512   4.177   5.961 -0.6231 -0.4091  0.1326
13372TIP3    H161607   5.473   4.104   5.914 -2.3425  0.7553 -0.3246
13372TIP3    H261608   5.555   4.229   5.893 -0.0107 -0.6005  0.3636
13373TIP3   OH261609   4.842   2.461  14.721 -0.7698 -0.8292  0.1147
13373TIP3    H161610   4.778   2.457  14.792  0.0810  0.2942  0.9818
13373TIP3    H261611   4.821   2.541  14.673  0.1195 -0.2918  0.5802
13374TIP3   OH261612   6.018   0.802  16.267 -0.2718 -0.1549  0.1198
13374TIP3    H161613   6.114   0.799  16.259  0.0779  2.6575  1.9056
13374TIP3    H261614   5.998   0.746  16.342 -0.1644 -1.2831 -0.6583
13375TIP3   OH261615   3.912   2.728   0.491  0.1917  0.9756 -0.0008
13375TIP3    H161616   3.969   2.803   0.509  0.5935  0.7177 -0.1876
13375TIP3    H261617   3.952   2.685   0.415  0.9265 -0.3829  1.0982
13376TIP3   OH261618   4.785   4.239   2.000 -0.0019 -0.7902  1.0814
13376TIP3    H161619   4.819   4.273   2.083 -0.2297  0.1638  0.7954
13376TIP3    H261620   4.707   4.291   1.982 -0.1526 -1.2229  0.4326
13377TIP3   OH261621   4.542   6.505  12.376  0.4248  0.3872 -0.1723
13377TIP3    H161622   4.621   6.452  12.362  0.3610 -0.3493  1.8984
13377TIP3    H261623   4.512   6.527  12.288  0.7775 -2.5801 -1.1506
13378TIP3   OH261624   1.001   3.399   1.038 -0.1308 -0.7707  0.6446
13378TIP3    H161625   0.913   3.361   1.025 -0.7429  0.0339  2.1475
13378TIP3    H261626   1.054   3.326   1.069 -0.5819 -0.9966  0.8919
13379TIP3   OH261627   4.414   6.412  11.416  0.2555 -0.3439  0.6355
13379TIP3    H161628   4.320   6.414  11.400  0.5279 -2.4990 -1.8973
13379TIP3    H261629   4.451   6.464  11.344  1.0362  0.0128  1.2868
13380TIP3   OH261630   5.995   3.525  14.012 -0.1805  0.4692 -0.2671
13380TIP3    H161631   6.000   3.453  13.950 -1.3840  2.0224 -2.3015
13380TIP3    H261632   5.920   3.505  14.068 -0.1546 -0.1195 -0.4445
13381TIP3   OH261633   2.564   4.739  14.841 -0.2294  0.2268 -0.0082
13381TIP3    H161634   2.599   4.799  14.775 -1.0340 -1.3271 -1.9837
13381TIP3    H261635   2.639   4.684  14.865  0.4797  1.8513  1.7197
13382TIP3   OH261636   2.488   3.749   0.390  0.4759  0.3400 -0.1277
13382TIP3    H161637   2.432   3.719   0.462 -0.9693  1.0390 -0.9145
13382TIP3    H261638   2.577   3.734   0.421 -0.1293 -1.7912  0.7690
13383TIP3   OH261639   4.762   1.939   4.182  0.1597 -0.5661 -0.5268
13383TIP3    H161640   4.772   1.844   4.193  2.6263 -0.2282  0.8938
13383TIP3    H261641   4.796   1.956   4.094  0.0639 -0.9618 -0.6449
13384TIP3   OH261642   5.052   5.318   4.169 -0.1420 -0.8106  0.3672
13384TIP3    H161643   5.096   5.316   4.084  2.3354  0.5893  1.5230
13384TIP3    H261644   4.959   5.321   4.147  0.3876 -0.9798 -2.2756
13385TIP3   OH261645   5.980   0.136   3.559  0.2975  0.4225  0.5341
13385TIP3    H161646   5.949   0.169   3.643 -0.1312 -0.3004  0.6712
13385TIP3    H261647   5.940   0.194   3.494 -0.6292  0.0602  0.7562
13386TIP3   OH261648   0.437   3.306  16.117 -0.0809 -0.0179 -0.0635
13386TIP3    H161649   0.351   3.348  16.116  0.3606  0.8903 -1.1453
13386TIP3    H261650   0.433   3.247  16.193 -0.8493  1.6875  1.2927
13387TIP3   OH261651   6.279   1.272  10.997  0.6271  0.8809 -0.4267
13387TIP3    H161652   6.315   1.360  10.986  1.4937  0.5883 -0.0964
13387TIP3    H261653   6.224   1.278  11.075  1.1867  0.9922 -0.0336
13388TIP3   OH261654   1.958   6.402  15.988  0.4343  0.1153  0.1210
13388TIP3    H161655   1.866   6.429  15.981  0.1713 -0.8592 -0.5156
13388TIP3    H261656   2.008   6.481  15.971 -0.2751  0.8688  1.3960
13389TIP3   OH261657   4.897   4.377   5.280 -0.3288  0.0012 -0.3174
13389TIP3    H161658   4.954   4.322   5.225  0.5298 -1.7030  2.1225
13389TIP3    H261659   4.813   4.330   5.280 -0.8142  0.8220 -1.3360
13390TIP3   OH261660   4.970   1.864  15.737  0.4208 -0.1110  0.3346
13390TIP3    H161661   5.039   1.900  15.681  0.8340  1.9316  2.0489
13390TIP3    H261662   4.893   1.858  15.679  1.4343 -0.3660 -1.0464
13391TIP3   OH261663   5.852   3.178   4.669  0.1349  0.0451 -0.1167
13391TIP3    H161664   5.910   3.198   4.743 -0.5528 -0.3161  0.5421
13391TIP3    H261665   5.783   3.244   4.675  1.2905  1.4842 -1.8619
13392TIP3   OH261666   5.269   2.124  16.495  0.5934  0.3223  0.0384
13392TIP3    H161667   5.316   2.086  16.569  1.1573  1.1041  0.1015
13392TIP3    H261668   5.191   2.070  16.486  1.5730 -1.1254 -0.1834
13393TIP3   OH261669   2.386   3.974  16.669 -0.3804 -0.1642  0.2649
13393TIP3    H161670   2.386   4.062  16.706  0.0002  0.6906 -1.6624
13393TIP3    H261671   2.293   3.952  16.660 -0.4762  0.0051  0.7891
13394TIP3   OH261672   4.569   2.220  17.009 -0.4583  0.1801  0.4081
13394TIP3    H161673   4.542   2.193  17.096 -0.8354 -0.6907  0.0364
13394TIP3    H261674   4.589   2.138  16.963  1.3806  0.7058  0.1937
13395TIP3   OH261675   3.510   3.265  15.739 -0.0445  0.2552 -0.5521
13395TIP3    H161676   3.470   3.180  15.720  0.9061 -0.2374 -0.4177
13395TIP3    H261677   3.554   3.289  15.657  2.0182 -0.7193  0.2091
13396TIP3   OH261678   5.437   0.025   0.566 -0.1659  0.2697  0.3842
13396TIP3    H161679   5.344   0.047   0.568  0.0441  1.5768 -1.6182
13396TIP3    H261680   5.480   0.101   0.605  0.2536  1.5073 -2.2732
13397TIP3   OH261681   1.959   2.666  11.795  0.0034 -0.8399 -0.0873
13397TIP3    H161682   1.956   2.742  11.738 -0.9871  0.1066  1.1855
13397TIP3    H261683   1.889   2.609  11.764 -0.2486 -0.5279 -0.0904
13398TIP3   OH261684   4.000   0.388  16.779  0.2774 -0.4993 -0.4466
13398TIP3    H161685   3.914   0.429  16.781  0.5147  0.0265  1.9129
13398TIP3    H261686   3.988   0.305  16.825  1.3291  0.3476  1.4797
13399TIP3   OH261687   3.068   5.431  13.163 -0.0024 -0.0930  0.1115
13399TIP3    H161688   2.988   5.462  13.205 -0.7495 -0.4859 -0.9736
13399TIP3    H261689   3.050   5.438  13.069  1.2621 -0.1351 -0.1495
13400TIP3   OH261690   4.123   6.255   5.856 -0.5382  0.3713 -0.9470
13400TIP3    H161691   4.039   6.298   5.843  0.2956  2.6426  0.5121
13400TIP3    H261692   4.188   6.323   5.834  0.8695 -0.5141  0.2621
13401TIP3   OH261693   6.140   6.630  14.562  0.3373 -0.1259  0.6367
13401TIP3    H161694   6.107   6.650  14.474  2.2168  1.7122  0.2651
13401TIP3    H261695   6.062   6.612  14.613 -0.7876 -2.0282 -1.5313
13402TIP3   OH261696   5.439   0.429   3.418  0.5582  0.1053  0.4846
13402TIP3    H161697   5.407   0.429   3.508  0.2305 -1.1584  0.3785
13402TIP3    H261698   5.447   0.337   3.394 -1.8622  0.3368 -1.6709
13403TIP3   OH261699   1.880   3.558  11.005 -0.3235  0.0656 -0.1403
13403TIP3    H161700   1.909   3.564  10.914  0.8167 -0.9712  0.1258
13403TIP3    H261701   1.931   3.625  11.051 -0.0961 -0.1403 -0.0879
13404TIP3   OH261702   3.637   5.989  16.800 -0.6594 -0.1830  0.0186
13404TIP3    H161703   3.622   6.068  16.853  1.7398 -0.7300  1.6432
13404TIP3    H261704   3.616   6.017  16.711 -0.3794  2.1478  0.6036
13405TIP3   OH261705   6.793   4.248  14.723  0.2497 -0.4550 -0.1739
13405TIP3    H161706   6.825   4.275  14.809  1.2080  0.0578 -0.6842
13405TIP3    H261707   6.780   4.330  14.675 -2.5105 -0.5628  0.2036
13406TIP3   OH261708   2.524   5.399   1.043  0.7238 -0.3501  0.3103
13406TIP3    H161709   2.550   5.445   1.123  1.5445  1.7415 -1.0547
13406TIP3    H261710   2.454   5.454   1.007  1.6976 -0.1642 -1.3650
13407TIP3   OH261711   2.545   3.944   5.948 -0.5378 -0.8701  0.7754
13407TIP3    H161712   2.521   4.010   6.013  2.5708  1.0961  0.1370
13407TIP3    H261713   2.615   3.893   5.990  0.1151 -0.8773 -0.2874
13408TIP3   OH261714   0.992   0.809  12.945  0.1561 -0.2812  0.0450
13408TIP3    H161715   0.986   0.874  12.876 -0.7470 -0.0600  0.3194
13408TIP3    H261716   0.913   0.822  12.997 -0.3119 -1.9363 -0.1988
13409TIP3   OH261717   1.943   2.106   5.255 -0.0656 -0.2848 -0.3086
13409TIP3    H161718   1.908   2.070   5.174 -0.0654 -0.1771 -0.3569
13409TIP3    H261719   1.882   2.076   5.323  1.2313 -2.3989  0.0010
13410TIP3   OH261720   5.842   1.335  15.905 -0.8814 -0.5869  0.0542
13410TIP3    H161721   5.816   1.337  15.997 -0.4637  2.0374  0.1868
13410TIP3    H261722   5.933   1.307  15.906 -0.0240  1.9679  0.7709
13411TIP3   OH261723   0.417   4.369  10.799 -0.4891 -0.1422  0.4005
13411TIP3    H161724   0.465   4.446  10.769  0.5035  0.0432  2.3661
13411TIP3    H261725   0.386   4.328  10.718 -1.0283  2.2691 -0.7154
13412TIP3   OH261726   0.317   5.547  14.185 -0.1943 -0.1607 -0.0063
13412TIP3    H161727   0.409   5.527  14.200 -0.0074 -0.3011 -1.2482
13412TIP3    H261728   0.302   5.525  14.093 -2.4478 -4.0189  1.0491
13413TIP3   OH261729   0.151   4.328   0.200  0.1691 -0.5226 -0.1503
13413TIP3    H161730   0.229   4.360   0.246 -1.2244  1.4348  0.9918
13413TIP3    H261731   0.098   4.406   0.185 -0.5947 -1.4582 -2.9684
13414TIP3   OH261732   2.716   5.662  13.965  0.1251  0.0148 -0.1108
13414TIP3    H161733   2.729   5.752  13.993  1.8577 -0.4256  0.5806
13414TIP3    H261734   2.803   5.630  13.944 -0.5714 -1.2064 -1.3480
13415TIP3   OH261735   0.134   4.908   1.526  0.1758  0.1349  0.0058
13415TIP3    H161736   0.108   4.994   1.559 -0.0269 -0.2403  0.8470
13415TIP3    H261737   0.191   4.872   1.594  1.3988  0.1646 -0.9677
13416TIP3   OH261738   4.385   1.228   4.003  0.0699  0.2265 -0.3475
13416TIP3    H161739   4.329   1.305   3.987 -2.9987 -1.6863  0.2600
13416TIP3    H261740   4.384   1.217   4.098  0.6364 -0.4762 -0.4156
13417TIP3   OH261741   2.604   4.535  16.665  0.1226  0.1163 -0.0892
13417TIP3    H161742   2.509   4.543  16.668  0.2054  3.1958 -1.9201
13417TIP3    H261743   2.619   4.449  16.626 -1.7930 -0.9872  1.3717
13418TIP3   OH261744   4.537   2.677   5.871  0.6114 -0.1555  0.1699
13418TIP3    H161745   4.477   2.603   5.884  1.8935 -1.1414  0.6902
13418TIP3    H261746   4.598   2.646   5.804  2.1948 -0.2629  1.6024
13419TIP3   OH261747   3.986   2.145   0.853 -0.2777 -0.1607  0.0995
13419TIP3    H161748   4.055   2.093   0.812 -1.5889 -1.1190 -0.9797
13419TIP3    H261749   3.912   2.140   0.792 -1.4466  0.5093  1.3876
13420TIP3   OH261750   0.435   4.267  14.592 -0.0014  0.6291  0.0863
13420TIP3    H161751   0.445   4.360  14.571  0.1268  0.3382 -1.2064
13420TIP3    H261752   0.440   4.223  14.508  0.1458 -0.5753  0.7092
13421TIP3   OH261753   1.056   4.355  13.189  0.0470  0.2425  0.3009
13421TIP3    H161754   1.083   4.270  13.153  0.2641  0.0136  0.9947
13421TIP3    H261755   1.000   4.334  13.263 -1.5951  0.7181 -0.7613
13422TIP3   OH261756   1.371   6.215   1.501  0.0881 -0.3765 -0.5932
13422TIP3    H161757   1.286   6.198   1.461 -1.0134 -2.3618  2.1808
13422TIP3    H261758   1.355   6.286   1.562  0.1757 -1.1880  0.4146
13423TIP3   OH261759   0.410   5.518  14.916 -0.2061 -0.3467  0.0813
13423TIP3    H161760   0.492   5.563  14.894 -1.3975  0.8576 -2.2242
13423TIP3    H261761   0.437   5.427  14.931  1.6177  0.0970 -0.2102
13424TIP3   OH261762   0.818   2.357  11.700 -0.1437  0.5884 -0.0679
13424TIP3    H161763   0.797   2.409  11.622 -0.8920 -0.3367 -0.5136
13424TIP3    H261764   0.774   2.273  11.684  1.1148 -0.2102  0.5840
13425TIP3   OH261765   0.577   2.383  16.628  0.5492 -0.0955  0.0691
13425TIP3    H161766   0.577   2.305  16.573  0.9326 -0.5789  0.7467
13425TIP3    H261767   0.606   2.453  16.570 -0.0064 -0.4110 -0.6026
13426TIP3   OH261768   5.334   3.567   1.046  0.3373 -0.1004 -0.1407
13426TIP3    H161769   5.401   3.561   0.979  0.7007  0.3165  0.1761
13426TIP3    H261770   5.343   3.487   1.097 -0.3937 -0.7511 -0.9866
13427TIP3   OH261771   5.934   3.127  14.363  0.2130  0.2507  0.9916
13427TIP3    H161772   5.986   3.163  14.291  1.7564 -0.3324  1.7515
13427TIP3    H261773   5.999   3.090  14.423 -1.0547  0.2517  2.4340
13428TIP3   OH261774   2.349   2.740   1.353  0.5338  0.0984  0.0869
13428TIP3    H161775   2.295   2.801   1.303  1.0262 -0.2724 -0.9260
13428TIP3    H261776   2.430   2.734   1.303  1.1504 -0.0909  1.0790
13429TIP3   OH261777   4.712   4.457   1.157  0.1855 -0.3471 -0.5926
13429TIP3    H161778   4.742   4.418   1.075  0.2975 -1.8664  0.1342
13429TIP3    H261779   4.752   4.403   1.225  1.9597  2.2163  0.5565
13430TIP3   OH261780   6.014   4.501  16.526 -0.4932 -0.4038  0.1416
13430TIP3    H161781   6.036   4.492  16.618  0.4548  1.2318  0.1098
13430TIP3    H261782   6.013   4.595  16.510 -0.0969 -0.6607 -1.6422
13431TIP3   OH261783   3.910   0.411  14.303 -0.7023  0.6657 -0.4833
13431TIP3    H161784   3.923   0.403  14.208 -0.7591  1.0392 -0.5252
13431TIP3    H261785   3.834   0.468  14.312  0.5710  2.4339 -0.2236
13432TIP3   OH261786   5.468   0.896  12.228 -0.1561 -0.0573  0.2290
13432TIP3    H161787   5.418   0.959  12.280  1.7434  2.3660 -0.7009
13432TIP3    H261788   5.517   0.845  12.293  0.2204  1.1563  0.9162
13433TIP3   OH261789   6.262   3.678   3.651 -0.4072  0.6817 -0.8208
13433TIP3    H161790   6.283   3.763   3.689  0.9408  0.4012 -0.8588
13433TIP3    H261791   6.306   3.615   3.708 -0.5191  0.0840 -1.3789
13434TIP3   OH261792   2.299   1.261   3.469 -0.3448  0.3983  0.4525
13434TIP3    H161793   2.239   1.187   3.454 -1.4442  1.4144 -0.4112
13434TIP3    H261794   2.241   1.334   3.492  0.7485  0.9247  1.5906
13435TIP3   OH261795   4.520   2.558  17.111  0.0474  0.3250  0.2078
13435TIP3    H161796   4.508   2.562  17.016 -2.3548 -0.0917  0.4450
13435TIP3    H261797   4.435   2.584  17.147  0.1881 -1.7529  2.2209
13436TIP3   OH261798   0.777   4.151   5.860 -0.4767 -0.1143  0.2315
13436TIP3    H161799   0.683   4.136   5.850 -0.5786  1.2199 -1.1782
13436TIP3    H261800   0.783   4.214   5.932 -0.6336 -0.3105  0.4215
13437TIP3   OH261801   2.209   3.137  13.680 -0.4855 -0.2988 -0.0736
13437TIP3    H161802   2.265   3.122  13.604  0.8252 -1.1239  0.9924
13437TIP3    H261803   2.125   3.164  13.644  0.4797  0.6311 -1.7665
13438TIP3   OH261804   6.755   3.375   0.332 -0.4061  0.8059  0.3107
13438TIP3    H161805   6.719   3.447   0.280 -0.5892  0.0837 -0.5793
13438TIP3    H261806   6.834   3.348   0.286 -0.9792 -0.3444 -0.0375
13439TIP3   OH261807   5.692   3.031   3.877  0.2298  0.0975  0.1337
13439TIP3    H161808   5.636   3.093   3.830  0.0480  1.2922  1.8367
13439TIP3    H261809   5.721   3.079   3.955  0.4391 -1.8087  1.2976
13440TIP3   OH261810   2.531   6.766   1.810  0.1413 -0.2047  0.1982
13440TIP3    H161811   2.565   6.677   1.798  0.3459  0.0185 -0.9828
13440TIP3    H261812   2.456   6.772   1.750  0.8137  0.7633 -0.5823
13441TIP3   OH261813   3.153   5.930   3.994  0.0333  0.0230  0.2854
13441TIP3    H161814   3.085   5.882   4.041  0.5089 -0.4959  0.4600
13441TIP3    H261815   3.172   5.876   3.918 -1.6318  1.4770 -1.2448
13442TIP3   OH261816   3.249   2.717   3.453  0.1578 -0.1895 -0.3640
13442TIP3    H161817   3.287   2.791   3.406  0.3901 -0.0990 -0.0366
13442TIP3    H261818   3.221   2.754   3.537  1.2998 -0.6857  0.2700
13443TIP3   OH261819   4.214   2.586   3.810  0.5596  0.6147  0.5185
13443TIP3    H161820   4.129   2.617   3.842  0.7643  0.5320  1.1507
13443TIP3    H261821   4.278   2.634   3.862  0.9008 -1.8544  2.5648
13444TIP3   OH261822   2.550   5.666  12.529  0.0751  0.1376 -0.1420
13444TIP3    H161823   2.573   5.695  12.618 -0.7725 -0.8179  0.4188
13444TIP3    H261824   2.521   5.745  12.484 -3.2001  0.1344  1.6541
13445TIP3   OH261825   1.065   6.293  13.747 -0.7069 -0.6659 -0.6610
13445TIP3    H161826   1.022   6.370  13.709  0.8098 -0.2678 -1.6850
13445TIP3    H261827   1.070   6.230  13.675 -0.5081 -1.1010 -0.2688
13446TIP3   OH261828   6.510   4.797  15.074 -0.3293 -0.5409  0.2281
13446TIP3    H161829   6.574   4.853  15.119 -1.0377  0.0173  0.5715
13446TIP3    H261830   6.476   4.740  15.143  1.6831 -2.6881 -0.4566
13447TIP3   OH261831   3.559   1.011  14.360  0.3440 -0.7054  0.0841
13447TIP3    H161832   3.520   0.927  14.382  0.2700 -0.7108 -0.0735
13447TIP3    H261833   3.525   1.072  14.426  0.8164 -0.9106  0.5251
13448TIP3   OH261834   3.345   6.266   5.735 -0.3598 -0.3520 -0.0934
13448TIP3    H161835   3.378   6.194   5.682 -0.2923 -0.7743  0.5091
13448TIP3    H261836   3.274   6.227   5.787  0.0781 -0.1438  0.6777
13449TIP3   OH261837   5.261   0.553  13.476 -0.4806  0.6164  0.1753
13449TIP3    H161838   5.225   0.477  13.431  1.8156 -0.8271  0.6451
13449TIP3    H261839   5.215   0.554  13.560  0.1845 -0.9308  0.5966
13450TIP3   OH261840   5.023   1.365   4.192  0.2848 -0.2392 -0.2823
13450TIP3    H161841   4.991   1.437   4.138  0.0363  1.7010  2.2491
13450TIP3    H261842   5.117   1.379   4.198  0.0314  1.0896  1.6787
13451TIP3   OH261843   0.735   1.299  16.788 -0.0514 -0.0762  0.2065
13451TIP3    H161844   0.706   1.355  16.860  1.6323 -0.7647  1.4591
13451TIP3    H261845   0.745   1.360  16.714 -1.3027  0.7227  0.6531
13452TIP3   OH261846   0.664   2.778  13.640  0.3802  0.2801 -0.0953
13452TIP3    H161847   0.675   2.684  13.624 -0.2608  0.2914 -0.6479
13452TIP3    H261848   0.754   2.811  13.647  0.6241 -0.2844 -0.4235
13453TIP3   OH261849   2.927   0.206  17.010 -0.3525  0.6317  0.2491
13453TIP3    H161850   2.905   0.191  16.918  2.5202 -1.0745 -0.3048
13453TIP3    H261851   2.975   0.290  17.010  0.3437  0.2429  0.0184
13454TIP3   OH261852   6.791   6.196  11.332  0.4104 -0.3915 -0.4282
13454TIP3    H161853   6.736   6.138  11.279 -1.6648  1.3447 -0.3090
13454TIP3    H261854   6.845   6.243  11.269 -2.6659  2.3163 -1.3256
13455TIP3   OH261855   6.425   1.045   0.136  0.4964  0.1528 -0.3362
13455TIP3    H161856   6.414   0.955   0.168  0.9160  0.6680  1.3567
13455TIP3    H261857   6.340   1.069   0.100  0.3026 -0.8208 -0.5422
13456TIP3   OH261858   4.389   2.451   2.849 -0.3612 -0.0810 -0.4170
13456TIP3    H161859   4.365   2.464   2.757 -0.0360  0.2717 -0.4560
13456TIP3    H261860   4.453   2.520   2.866 -0.4737 -0.1051  0.0953
13457TIP3   OH261861   0.071   5.132   3.492 -0.2994 -0.4995 -0.0459
13457TIP3    H161862   0.134   5.063   3.469  0.8029  0.6723 -0.6608
13457TIP3    H261863   0.126   5.207   3.514 -1.4884  0.3835 -0.0509
13458TIP3   OH261864   0.791   5.985   5.546  0.7569  0.4320  0.0791
13458TIP3    H161865   0.775   5.894   5.522 -0.4245  0.0726  2.0645
13458TIP3    H261866   0.705   6.027   5.540  1.3352  1.5393 -1.1171
13459TIP3   OH261867   3.294   3.128   5.334 -0.0570  0.4732 -0.2462
13459TIP3    H161868   3.385   3.136   5.364  1.1168 -0.9163 -3.0206
13459TIP3    H261869   3.245   3.188   5.390  2.6868  1.8678  0.8665
13460TIP3   OH261870   0.726   1.131  13.013 -0.3352  0.3535  0.0804
13460TIP3    H161871   0.676   1.200  12.971  0.6458  0.9142 -0.1986
13460TIP3    H261872   0.815   1.140  12.977 -0.5606 -2.2000 -1.3943
13461TIP3   OH261873   5.319   4.129  13.785  0.6367  0.1002  1.1851
13461TIP3    H161874   5.245   4.186  13.804  1.8845  1.5736  1.8355
13461TIP3    H261875   5.291   4.042  13.814 -0.5154  0.8032  2.2521
13462TIP3   OH261876   0.177   0.959  15.400  0.2679 -0.4323 -0.7047
13462TIP3    H161877   0.224   0.917  15.472  0.5829 -0.5913 -0.9974
13462TIP3    H261878   0.233   0.944  15.323  1.2328  1.8678 -0.5485
13463TIP3   OH261879   1.893   3.066  10.796  0.0301  0.8856  0.3289
13463TIP3    H161880   1.906   3.159  10.778 -1.9848  0.9503 -1.1853
13463TIP3    H261881   1.836   3.064  10.874  0.2690  0.9081  0.5042
13464TIP3   OH261882   4.539   2.073   3.875  0.3010  0.9373  0.4424
13464TIP3    H161883   4.539   2.069   3.970 -0.1423  0.8511  0.4394
13464TIP3    H261884   4.580   2.156   3.854 -1.3219  1.8596  0.7511
13465TIP3   OH261885   3.382   4.542  15.417 -0.0253  1.0395 -0.1890
13465TIP3    H161886   3.471   4.513  15.438 -0.8135 -1.0498  0.5323
13465TIP3    H261887   3.394   4.630  15.380  2.4240  0.3576 -1.2425
13466TIP3   OH261888   1.897   1.066   1.579  0.0012  0.2159  0.0273
13466TIP3    H161889   1.929   0.984   1.541 -0.1094  0.3436 -0.3468
13466TIP3    H261890   1.872   1.119   1.504  1.0744  1.0139  0.2012
13467TIP3   OH261891   6.131   1.608   5.770  0.1859  0.1692  0.1394
13467TIP3    H161892   6.075   1.595   5.846  0.2975  0.9369  0.3603
13467TIP3    H261893   6.179   1.526   5.760 -1.3533 -0.7123 -0.3752
13468TIP3   OH261894   1.587   5.839  17.108 -0.8367  0.3050 -0.2090
13468TIP3    H161895   1.540   5.767  17.066 -2.2222  0.0994  1.5390
13468TIP3    H261896   1.556   5.917  17.063 -3.2990  0.2174  1.1422
13469TIP3   OH261897   5.526   3.691   1.572  0.6033  0.2925  0.4020
13469TIP3    H161898   5.490   3.695   1.483  0.8463 -0.2815  0.2723
13469TIP3    H261899   5.563   3.778   1.587 -1.8549  1.3218  0.9970
13470TIP3   OH261900   1.310   5.853   2.654  0.1944  0.3093  0.4459
13470TIP3    H161901   1.287   5.764   2.626 -0.6371 -0.1060  2.3459
13470TIP3    H261902   1.406   5.856   2.645  0.1566 -0.5016 -0.3821
13471TIP3   OH261903   1.867   4.758  11.410 -0.1497 -0.9228 -0.5007
13471TIP3    H161904   1.911   4.779  11.327  0.2922 -2.1058 -0.5802
13471TIP3    H261905   1.936   4.719  11.464 -1.0614 -2.7038 -0.5837
13472TIP3   OH261906   4.927   5.716   6.802  0.1566 -0.3219 -0.4665
13472TIP3    H161907   5.001   5.691   6.747  1.1130  0.6568  0.3124
13472TIP3    H261908   4.867   5.642   6.798  0.0111 -0.1494 -3.0559
13473TIP3   OH261909   2.956   4.032  12.758  0.2601 -0.0183 -0.6775
13473TIP3    H161910   2.890   3.962  12.750 -0.2108  0.2018  0.9015
13473TIP3    H261911   2.904   4.112  12.757  0.3164  0.1130  1.8631
13474TIP3   OH261912   3.013   3.854   0.054  0.1403 -0.3988 -0.2551
13474TIP3    H161913   3.089   3.880   0.105 -1.5033 -0.2780  2.2931
13474TIP3    H261914   2.972   3.784   0.105 -0.4168 -1.8614 -2.5541
13475TIP3   OH261915   6.811   5.115   3.241  0.0426  0.5588 -0.6217
13475TIP3    H161916   6.846   5.186   3.187  3.9836  0.3346  1.3290
13475TIP3    H261917   6.861   5.119   3.322  0.2772 -4.1989 -0.2478
13476TIP3   OH261918   3.385   6.128   4.880 -0.2416  1.0549  0.8570
13476TIP3    H161919   3.354   6.128   4.971  0.1305  1.3519  0.9875
13476TIP3    H261920   3.388   6.035   4.856 -1.3557  1.0326  0.7861
13477TIP3   OH261921   2.340   1.108   3.985 -0.0036  0.2198  0.0245
13477TIP3    H161922   2.350   1.202   4.004  1.0744 -0.2389  2.0014
13477TIP3    H261923   2.283   1.105   3.909  1.3206  2.5523 -1.1729
13478TIP3   OH261924   1.539   4.346  14.205 -0.2703  0.0883  0.2163
13478TIP3    H161925   1.622   4.388  14.185 -2.2617  2.8218 -3.8416
13478TIP3    H261926   1.498   4.404  14.270 -0.6604  1.3474 -1.0834
13479TIP3   OH261927   2.980   2.163  15.395 -1.0108  0.0445  0.4557
13479TIP3    H161928   2.997   2.168  15.300  3.1105 -1.1627  0.9478
13479TIP3    H261929   2.942   2.076  15.408 -1.9091  0.3394 -0.0506
13480TIP3   OH261930   6.361   2.046  15.469 -0.2638  0.4311 -0.7083
13480TIP3    H161931   6.267   2.062  15.461 -0.2620  0.8729  0.0831
13480TIP3    H261932   6.376   2.034  15.563 -0.0964 -3.1332 -1.0499
13481TIP3   OH261933   5.551   0.459  11.830  0.3433  0.4650  1.1604
13481TIP3    H161934   5.484   0.402  11.868 -0.1476  0.0185 -0.3139
13481TIP3    H261935   5.502   0.521  11.776  1.0429  0.8296  0.9303
13482TIP3   OH261936   6.744   3.088   1.267  0.1692 -0.2011  0.2235
13482TIP3    H161937   6.795   3.064   1.190  1.6963  0.1106  1.0790
13482TIP3    H261938   6.690   3.161   1.239 -0.3505 -1.0003 -0.9059
13483TIP3   OH261939   3.487   6.462   2.741  0.0326 -0.0507  0.3350
13483TIP3    H161940   3.405   6.501   2.772  0.6291  0.0064  1.9895
13483TIP3    H261941   3.497   6.494   2.652 -1.1890  0.8540  0.4949
13484TIP3   OH261942   6.008   5.951   6.053  0.0166  0.3945 -0.0859
13484TIP3    H161943   6.072   5.989   6.113 -1.3479  0.5858  1.3066
13484TIP3    H261944   5.978   6.026   6.001  0.8768  0.3076 -0.7339
13485TIP3   OH261945   3.571   0.206  16.264 -0.2607  0.7199  0.0432
13485TIP3    H161946   3.531   0.155  16.193 -0.8467  0.7651  0.3281
13485TIP3    H261947   3.537   0.294  16.252  1.4759  1.2939 -0.9952
13486TIP3   OH261948   6.458   2.777  16.306 -0.3453  0.3892  0.2892
13486TIP3    H161949   6.377   2.815  16.340 -0.7006 -0.1001 -0.0018
13486TIP3    H261950   6.521   2.849  16.309 -0.6736  0.6566  0.9140
13487TIP3   OH261951   1.697   0.094   4.635  0.1090 -0.0049 -0.2744
13487TIP3    H161952   1.680   0.001   4.619 -0.1950 -0.7944  3.6847
13487TIP3    H261953   1.790   0.099   4.656  0.1063  0.5788 -0.3764
13488TIP3   OH261954   5.396   0.642  11.696 -0.0004  0.1653  0.0250
13488TIP3    H161955   5.378   0.728  11.732  1.4842  0.8751 -0.8629
13488TIP3    H261956   5.315   0.619  11.649 -0.4271  1.0234  0.3223
13489TIP3   OH261957   4.558   1.484   6.378 -0.7260 -0.0669  0.3417
13489TIP3    H161958   4.629   1.548   6.378  0.3290 -1.1151 -2.0124
13489TIP3    H261959   4.600   1.400   6.394 -1.2776 -0.7791 -1.6435
13490TIP3   OH261960   1.902   5.540  12.609  0.3122 -0.2661  0.5189
13490TIP3    H161961   1.995   5.530  12.628  0.2246  1.0461  1.8955
13490TIP3    H261962   1.858   5.507  12.687 -0.2874  0.8840  0.6873
13491TIP3   OH261963   5.350   3.805  11.699 -0.4872  0.3699  0.1756
13491TIP3    H161964   5.335   3.878  11.639  0.7155  0.1478 -0.4153
13491TIP3    H261965   5.366   3.848  11.784 -1.1558  0.7294  0.1232
13492TIP3   OH261966   1.525   1.121   3.818  0.0756 -0.4564  0.0229
13492TIP3    H161967   1.613   1.086   3.828  0.2428 -0.4650 -1.3096
13492TIP3    H261968   1.512   1.175   3.896  1.3760 -0.2058  0.0940
13493TIP3   OH261969   3.481   3.652  13.053 -0.1279 -0.0870  0.3358
13493TIP3    H161970   3.518   3.564  13.055 -0.6799 -0.3048  2.2255
13493TIP3    H261971   3.549   3.708  13.090 -0.0255  0.2122 -0.2794
13494TIP3   OH261972   2.033   2.633   1.276  0.2120 -0.1467 -0.1141
13494TIP3    H161973   2.025   2.599   1.187  1.0164  1.7148 -0.9592
13494TIP3    H261974   2.103   2.698   1.270  1.7287 -1.3907  2.3328
13495TIP3   OH261975   0.882   2.589   1.616  0.2627 -0.7284 -0.1708
13495TIP3    H161976   0.962   2.536   1.621  1.5068  1.1396  1.3575
13495TIP3    H261977   0.900   2.652   1.546  0.1236 -0.3519  0.1284
13496TIP3   OH261978   1.717   2.191   5.701 -0.2214  0.4051 -0.3870
13496TIP3    H161979   1.626   2.173   5.726 -0.3058  0.4214 -0.6797
13496TIP3    H261980   1.714   2.278   5.660 -0.0651  0.4318 -0.3407
13497TIP3   OH261981   1.558   2.923   4.969  0.7074  0.5435 -0.0781
13497TIP3    H161982   1.526   3.009   4.940  2.2506  1.2019  0.0799
13497TIP3    H261983   1.539   2.865   4.895 -0.0159  1.0852 -0.3400
13498TIP3   OH261984   5.980   5.768   0.379  0.2579  0.0176  0.4233
13498TIP3    H161985   5.921   5.843   0.370  2.3295  1.6971 -0.2429
13498TIP3    H261986   5.971   5.720   0.296  0.8963  1.1566 -0.3460
13499TIP3   OH261987   2.099   2.716   3.303 -0.4485  0.0687  0.5246
13499TIP3    H161988   2.156   2.781   3.342 -0.3033  1.0739 -1.2752
13499TIP3    H261989   2.010   2.744   3.325 -0.3565  0.4882  0.3603
13500TIP3   OH261990   5.570   2.176  14.488 -0.2531 -0.6461 -0.0140
13500TIP3    H161991   5.578   2.083  14.470  1.4169 -0.7027  0.8755
13500TIP3    H261992   5.585   2.185  14.582  0.3050  0.5717 -0.1867
13501TIP3   OH261993   1.679   2.087  15.373  0.3230  0.7915 -0.1141
13501TIP3    H161994   1.630   2.145  15.315 -3.0614 -0.7761  0.9591
13501TIP3    H261995   1.696   2.140  15.451 -0.7008  1.0556 -0.0587
13502TIP3   OH261996   3.517   1.289  15.869 -0.0277 -0.0435  0.6393
13502TIP3    H161997   3.591   1.321  15.818 -0.6696  1.1211  0.4007
13502TIP3    H261998   3.492   1.363  15.925 -1.6603 -0.0413 -0.0380
13503TIP3   OH261999   4.399   0.353   5.724 -0.1656 -0.4408 -0.1610
13503TIP3    H162000   4.366   0.312   5.645  0.9905 -0.0864 -0.8498
13503TIP3    H262001   4.325   0.405   5.758 -0.5409 -0.2626 -1.2340
13504TIP3   OH262002   2.151   2.978  16.065 -0.1421  0.3657  0.4236
13504TIP3    H162003   2.057   2.981  16.045  0.4761  1.7305 -2.8534
13504TIP3    H262004   2.179   3.070  16.063  1.2070  0.0419  1.9996
13505TIP3   OH262005   6.060   5.027   0.550  0.2724 -0.3730 -1.1229
13505TIP3    H162006   6.090   4.997   0.464 -1.5722  0.2781 -2.0528
13505TIP3    H262007   6.006   5.103   0.531 -1.4436 -1.1153  0.4587
13506TIP3   OH262008   5.584   2.445  15.389  0.1781  0.4996 -0.4372
13506TIP3    H162009   5.505   2.404  15.355 -0.5260  1.7905 -0.4323
13506TIP3    H262010   5.571   2.539  15.373  2.0765  0.6724 -1.2055
13507TIP3   OH262011   2.420   1.659  13.335  0.4303 -0.3470 -0.6180
13507TIP3    H162012   2.445   1.599  13.265  1.7005 -3.1136  1.9646
13507TIP3    H262013   2.332   1.630  13.361 -0.2884  1.0545 -1.4083
13508TIP3   OH262014   1.211   4.425  14.480 -0.1329 -0.1565  0.8533
13508TIP3    H162015   1.163   4.373  14.416  0.0633 -2.0435  2.1543
13508TIP3    H262016   1.164   4.508  14.484 -1.3378 -0.7484 -0.2596
13509TIP3   OH262017   3.228   1.648  15.293  0.0808 -0.4850 -0.3622
13509TIP3    H162018   3.253   1.555  15.293  1.3297 -0.2100 -2.4878
13509TIP3    H262019   3.311   1.695  15.283 -0.6909  0.7874 -0.9593
13510TIP3   OH262020   1.880   3.415   1.768  0.3221 -0.2914  0.2685
13510TIP3    H162021   1.825   3.355   1.719  1.1818  0.5372 -1.8093
13510TIP3    H262022   1.970   3.390   1.744  0.7522  0.5315  0.9621
13511TIP3   OH262023   6.123   1.781  12.306  0.0141  0.6006  0.6921
13511TIP3    H162024   6.176   1.709  12.340  0.1889  0.5639  0.3489
13511TIP3    H262025   6.040   1.775  12.354 -0.8801 -1.2779 -0.9502
13512TIP3   OH262026   2.592   0.636   5.502  0.6840 -0.0691  0.2639
13512TIP3    H162027   2.580   0.549   5.542  0.7069 -0.8724 -1.4087
13512TIP3    H262028   2.592   0.696   5.577 -0.9757 -1.3225  1.3487
13513TIP3   OH262029   1.652   3.724   3.060  0.2336  0.4003 -0.5483
13513TIP3    H162030   1.598   3.651   3.029  1.1617 -1.1191  1.1650
13513TIP3    H262031   1.601   3.762   3.132 -0.4409  1.7608 -1.7163
13514TIP3   OH262032   5.466   5.457   5.525  0.1910  0.7244  0.0617
13514TIP3    H162033   5.392   5.398   5.507  0.6991  0.5974 -1.8650
13514TIP3    H262034   5.441   5.539   5.484  0.2659  1.3314  1.1886
13515TIP3   OH262035   4.506   4.089  13.356  0.0536 -0.1794 -0.5234
13515TIP3    H162036   4.533   4.181  13.363  1.4385 -0.6480  0.8573
13515TIP3    H262037   4.420   4.087  13.396  0.8500  0.1998  1.2896
13516TIP3   OH262038   4.287   4.517   4.195 -0.1352  1.0379  0.7336
13516TIP3    H162039   4.312   4.521   4.103 -1.7289 -1.2330  0.0894
13516TIP3    H262040   4.280   4.423   4.213 -0.5357  1.4479  2.9862
13517TIP3   OH262041   4.976   2.206  14.950 -0.3014  0.1692 -0.3385
13517TIP3    H162042   4.951   2.115  14.965  1.4820 -0.0831  1.7472
13517TIP3    H262043   5.050   2.201  14.890 -0.1426  0.2047 -0.1500
13518TIP3   OH262044   5.260   0.821  12.435  0.2141 -0.3405 -0.1439
13518TIP3    H162045   5.202   0.751  12.465  1.3576 -0.6966  1.3468
13518TIP3    H262046   5.240   0.895  12.492  1.7939 -0.7431  0.9967
13519TIP3   OH262047   0.178   4.684  17.073 -0.5034  0.1536  0.4243
13519TIP3    H162048   0.124   4.612  17.106  1.9920 -2.0317  0.0508
13519TIP3    H262049   0.120   4.761  17.075 -3.8425 -2.1213 -0.6847
13520TIP3   OH262050   5.860   4.777  11.723  0.3226 -0.0958 -0.2640
13520TIP3    H162051   5.888   4.741  11.806 -0.4907  1.2414  0.6359
13520TIP3    H262052   5.884   4.870  11.728  0.5222 -0.0503 -1.6414
13521TIP3   OH262053   5.193   1.342  13.219 -0.1843  0.0347 -0.3366
13521TIP3    H162054   5.233   1.364  13.303 -0.9764  0.1187  0.0280
13521TIP3    H262055   5.114   1.292  13.242  1.2984 -2.8880 -1.1173
13522TIP3   OH262056   4.050   1.630   1.911  0.4359  0.6145  0.4942
13522TIP3    H162057   4.136   1.593   1.894  0.9640  0.5840  2.8904
13522TIP3    H262058   3.992   1.553   1.918  0.6764  0.4829  1.1210
13523TIP3   OH262059   5.948   2.830  11.189 -0.2026 -0.0421 -0.6341
13523TIP3    H162060   5.981   2.747  11.154 -0.2238  0.0631 -0.9060
13523TIP3    H262061   5.973   2.895  11.123  2.1625  0.5967  0.7475
13524TIP3   OH262062   1.302   2.850  16.625 -0.0851 -0.4340 -0.1711
13524TIP3    H162063   1.207   2.862  16.627 -0.1525 -1.0417  0.4695
13524TIP3    H262064   1.325   2.857  16.532 -0.6025  0.8309 -0.2316
13525TIP3   OH262065   6.371   3.096   1.786  0.4253  0.3598 -0.6673
13525TIP3    H162066   6.372   3.189   1.810  1.0752  0.9892 -2.8287
13525TIP3    H262067   6.464   3.072   1.781  0.2676 -0.9463  1.5349
13526TIP3   OH262068   0.768   2.753   5.603  0.1562 -0.3709 -0.2591
13526TIP3    H162069   0.683   2.761   5.646  0.2497  1.0848 -0.2999
13526TIP3    H262070   0.832   2.755   5.674  0.1847 -1.5280 -0.2233
13527TIP3   OH262071   1.422   0.283   6.264 -0.3599 -0.1087 -0.4135
13527TIP3    H162072   1.513   0.262   6.246 -0.9061 -0.6955 -2.8610
13527TIP3    H262073   1.422   0.377   6.283  0.7850 -0.1862  0.0297
13528TIP3   OH262074   6.211   6.677  11.234 -0.2105 -0.0471 -0.0168
13528TIP3    H162075   6.178   6.759  11.270 -0.0604 -0.5685  1.3699
13528TIP3    H262076   6.291   6.702  11.187 -0.8328  0.7612 -0.6720
13529TIP3   OH262077   2.807   4.960   4.657  0.3502 -0.0563 -0.1080
13529TIP3    H162078   2.863   4.944   4.581 -0.8928 -2.0313 -0.6910
13529TIP3    H262079   2.754   5.036   4.633  1.7714  0.9939 -0.0871
13530TIP3   OH262080   2.891   4.000   4.686 -0.3435  0.3558 -0.1503
13530TIP3    H162081   2.974   3.958   4.708 -0.1670 -0.3830 -2.0202
13530TIP3    H262082   2.824   3.946   4.727  0.0066 -0.2449 -0.3668
13531TIP3   OH262083   5.097   4.809   3.246 -0.4258  0.2941  0.3554
13531TIP3    H162084   5.124   4.897   3.222 -2.2846  1.2796  1.6404
13531TIP3    H262085   5.015   4.795   3.198 -0.4629 -0.4904  0.6322
13532TIP3   OH262086   3.149   5.657   1.177 -0.3586  0.4778 -0.5567
13532TIP3    H162087   3.232   5.683   1.217 -0.1482 -0.4864 -0.3185
13532TIP3    H262088   3.167   5.570   1.141 -1.3696  0.0967 -0.1656
13533TIP3   OH262089   6.623   0.087  11.338 -0.0255 -0.2007 -0.7496
13533TIP3    H162090   6.659  -0.002  11.334 -2.6657 -1.3266 -2.7525
13533TIP3    H262091   6.623   0.117  11.247 -2.6471  0.2670 -0.6688
13534TIP3   OH262092   3.900   2.429   2.051 -0.3186 -0.3637 -0.1246
13534TIP3    H162093   3.809   2.412   2.026  0.3070 -2.3853 -1.2740
13534TIP3    H262094   3.904   2.409   2.144 -0.9011 -1.0392 -0.2365
13535TIP3   OH262095   5.279   0.482   3.633 -0.5348 -0.1715  0.2616
13535TIP3    H162096   5.199   0.434   3.655  0.0815 -1.5298 -0.3366
13535TIP3    H262097   5.323   0.496   3.717 -0.9813 -0.1908  0.5000
13536TIP3   OH262098   1.857   1.624  12.427  0.2083 -0.0158 -0.1631
13536TIP3    H162099   1.807   1.542  12.435 -2.8239  1.7201  0.0552
13536TIP3    H262100   1.893   1.621  12.338 -0.3369 -1.3275 -0.3646
13537TIP3   OH262101   0.701   5.103   2.619  0.0280 -0.2478 -0.6929
13537TIP3    H162102   0.738   5.159   2.687 -1.3564 -1.4116  1.1262
13537TIP3    H262103   0.766   5.103   2.549  1.4825  1.0814  0.5852
13538TIP3   OH262104   4.417   0.908   1.419  0.0052  0.1183  0.2847
13538TIP3    H162105   4.456   0.928   1.334 -0.8609  0.4122 -0.0520
13538TIP3    H262106   4.345   0.848   1.399  0.8271 -1.1464  0.9951
13539TIP3   OH262107   1.802   5.363   1.790 -0.3215 -0.0227 -0.1526
13539TIP3    H162108   1.782   5.413   1.711 -1.0650 -0.4878 -0.2768
13539TIP3    H262109   1.815   5.273   1.758  1.6810  0.1827 -0.0259
13540TIP3   OH262110   0.738   1.535   1.407  0.1861  0.9007 -0.0247
13540TIP3    H162111   0.808   1.583   1.451  0.2322 -0.4482  1.4256
13540TIP3    H262112   0.685   1.499   1.478  1.1412 -2.7002 -0.9411
13541TIP3   OH262113   5.457   5.441   4.102 -0.2643  0.0089 -0.4898
13541TIP3    H162114   5.391   5.494   4.147 -0.4912  0.3901 -1.2626
13541TIP3    H262115   5.434   5.447   4.010 -1.7248 -3.3176 -0.4690
13542TIP3   OH262116   4.173   4.801  16.239 -0.0664  0.4302  0.0705
13542TIP3    H162117   4.188   4.708  16.257 -0.7737  0.0406 -1.2594
13542TIP3    H262118   4.100   4.824  16.296 -2.3551 -0.8200 -2.1729
13543TIP3   OH262119   0.421   1.033   5.502 -0.0401  0.1737 -0.1608
13543TIP3    H162120   0.480   1.099   5.464 -0.1157  1.4049  1.6937
13543TIP3    H262121   0.423   1.052   5.596 -0.5844 -2.1042  0.3525
13544TIP3   OH262122   2.336   1.366   3.756 -0.3084 -0.3748 -0.2517
13544TIP3    H162123   2.337   1.295   3.692 -1.4289 -0.5796 -0.0712
13544TIP3    H262124   2.403   1.427   3.726 -0.4793 -0.7089 -1.3450
13545TIP3   OH262125   2.533   2.654   1.906 -0.2958  0.1069 -0.4379
13545TIP3    H162126   2.627   2.645   1.918 -0.4517 -1.7116 -0.2866
13545TIP3    H262127   2.496   2.650   1.994 -0.5316  0.4702 -0.5181
13546TIP3   OH262128   4.558   4.606  14.432 -0.0860 -0.6688  0.3240
13546TIP3    H162129   4.536   4.552  14.508  0.8243 -0.8642  0.4589
13546TIP3    H262130   4.600   4.684  14.468  0.4632 -0.8190  0.0308
13547TIP3   OH262131   5.050   2.099  16.678 -0.2339  0.3881  0.4283
13547TIP3    H162132   5.103   2.051  16.742 -0.5430 -0.8447 -0.2152
13547TIP3    H262133   4.983   2.036  16.650  1.2646  0.0312 -2.8375
13548TIP3   OH262134   1.656   5.483  14.716  0.1535  0.1036  0.0744
13548TIP3    H162135   1.603   5.536  14.656  1.9926 -0.4041 -2.1710
13548TIP3    H262136   1.607   5.401  14.726 -0.2894  0.2817 -0.5703
13549TIP3   OH262137   1.981   3.058   4.439 -0.1409  0.1865 -0.2972
13549TIP3    H162138   2.031   3.090   4.365 -2.4387 -0.3296 -2.2191
13549TIP3    H262139   1.981   3.130   4.502  1.1250  0.9836 -1.1667
13550TIP3   OH262140   2.522   1.904  16.687 -0.4982  0.3488 -0.5946
13550TIP3    H162141   2.571   1.828  16.718 -0.9623  0.0442 -0.6016
13550TIP3    H262142   2.579   1.978  16.706  0.4411 -0.0903 -1.5902
13551TIP3   OH262143   5.972   2.672  13.867 -0.3119 -0.3547 -0.6201
13551TIP3    H162144   6.031   2.678  13.942  0.3043 -2.6276 -0.8623
13551TIP3    H262145   6.028   2.683  13.790 -0.8817  1.5786 -0.8197
13552TIP3   OH262146   4.330   6.010  11.550  0.2977 -0.4401  0.5363
13552TIP3    H162147   4.418   6.040  11.569  0.0635  0.1052  0.7734
13552TIP3    H262148   4.291   6.080  11.498 -0.2168 -0.3696  1.0086
13553TIP3   OH262149   6.459   0.444  12.624  0.4150 -0.0532  0.4364
13553TIP3    H162150   6.367   0.468  12.614  0.2195  0.0600  2.1820
13553TIP3    H262151   6.478   0.389  12.548 -0.8704  0.5536 -0.3576
13554TIP3   OH262152   5.663   6.474   6.362  0.1081  0.2043  0.0633
13554TIP3    H162153   5.571   6.462   6.386 -0.0737  0.6040 -0.4260
13554TIP3    H262154   5.698   6.529   6.433  0.4023 -1.2903  1.1367
13555TIP3   OH262155   5.580   6.479  16.064 -0.0694  0.7365 -0.7315
13555TIP3    H162156   5.493   6.479  16.105 -0.8149  0.9654 -2.2533
13555TIP3    H262157   5.605   6.387  16.060  0.2579  0.7437  0.6888
13556TIP3   OH262158   4.780   3.375  13.187 -0.2320 -0.0301 -0.2088
13556TIP3    H162159   4.714   3.441  13.166  1.9582  1.6396 -2.5225
13556TIP3    H262160   4.771   3.310  13.117  0.7722  0.4612 -0.8355
13557TIP3   OH262161   2.452   6.647   5.457  0.1459 -0.4161  0.1728
13557TIP3    H162162   2.492   6.589   5.522 -1.5059 -2.9877 -0.9164
13557TIP3    H262163   2.381   6.691   5.505  1.5979  1.0245  1.0874
13558TIP3   OH262164   2.595   1.792  14.835 -0.2541  0.5006 -0.1023
13558TIP3    H162165   2.624   1.871  14.882  0.5596  0.2714 -0.2144
13558TIP3    H262166   2.618   1.809  14.744  1.6148 -0.6179  0.1205
13559TIP3   OH262167   6.409   1.562   0.614 -0.5616  0.4922  0.3632
13559TIP3    H162168   6.480   1.524   0.563 -1.6418 -0.5016 -0.4462
13559TIP3    H262169   6.383   1.492   0.674 -1.6286  0.4183 -0.1643
13560TIP3   OH262170   5.018   6.579  12.610 -0.7855 -0.7447  0.1392
13560TIP3    H162171   4.929   6.596  12.643 -0.8099 -1.0596  0.2376
13560TIP3    H262172   5.024   6.631  12.530 -0.4755  0.5966  1.0111
13561TIP3   OH262173   4.015   2.583   0.014  0.4391 -0.4449 -0.5743
13561TIP3    H162174   3.939   2.641   0.007  1.7961  1.7585  1.3824
13561TIP3    H262175   4.043   2.569  -0.077 -1.3297  0.0143 -1.2296
13562TIP3   OH262176   4.042   0.249  13.781 -0.0872  0.1831  0.3456
13562TIP3    H162177   3.965   0.242  13.837 -1.1180 -0.8330 -1.1546
13562TIP3    H262178   4.046   0.166  13.734  1.0498  0.7991 -0.7096
13563TIP3   OH262179   4.879   4.213   1.347 -0.0427 -0.1563  0.2070
13563TIP3    H162180   4.966   4.201   1.385  0.2418  0.1735 -0.3190
13563TIP3    H262181   4.821   4.161   1.402  0.2400  0.8649  1.4932
13564TIP3   OH262182   0.555   1.928  10.978  0.2871  0.1767  0.3626
13564TIP3    H162183   0.612   1.855  10.953  2.8892  2.8985 -2.4019
13564TIP3    H262184   0.488   1.930  10.909 -1.2009 -0.8824  1.7047
13565TIP3   OH262185   5.374   6.769  15.960  0.2897 -0.2684  0.1495
13565TIP3    H162186   5.328   6.805  15.885  1.6285 -0.8199 -0.9910
13565TIP3    H262187   5.404   6.845  16.009 -0.2944  0.1039 -0.0658
13566TIP3   OH262188   3.370   1.598   2.568  0.3391 -0.1401  0.0632
13566TIP3    H162189   3.373   1.530   2.634  2.6903 -1.6586 -1.4808
13566TIP3    H262190   3.391   1.679   2.615  0.5561 -0.9525  1.3970
13567TIP3   OH262191   4.660   3.321   5.377 -0.4742 -0.1376  0.1888
13567TIP3    H162192   4.584   3.366   5.338  0.4152  0.3524 -1.0708
13567TIP3    H262193   4.702   3.388   5.431 -1.0147 -0.4582  1.0241
13568TIP3   OH262194   0.307   5.008  11.022  0.4230  0.1950 -0.5710
13568TIP3    H162195   0.312   5.102  11.038 -1.5782  0.3137 -0.3699
13568TIP3    H262196   0.225   4.981  11.063 -0.5821 -1.0791 -3.1911
13569TIP3   OH262197   5.551   1.331   3.263  0.7326 -0.3057  0.0510
13569TIP3    H162198   5.615   1.264   3.286  1.8168  0.8706  0.5961
13569TIP3    H262199   5.597   1.414   3.277 -1.4187  0.6611  2.0412
13570TIP3   OH262200   3.255   0.731  12.943 -0.2380  0.2387 -0.1639
13570TIP3    H162201   3.307   0.735  13.023 -0.7888  1.9863  0.1669
13570TIP3    H262202   3.313   0.765  12.875  0.2267 -1.2363 -0.5341
13571TIP3   OH262203   1.394   6.173  15.316 -0.2834 -0.4825 -0.0911
13571TIP3    H162204   1.459   6.138  15.255  1.2386 -1.7876  2.1293
13571TIP3    H262205   1.363   6.254  15.275  1.9817 -0.3560 -1.7146
13572TIP3   OH262206   6.455   4.951  11.223  0.0460  0.5702 -0.3560
13572TIP3    H162207   6.375   4.947  11.171 -1.2263 -0.9463  1.5529
13572TIP3    H262208   6.449   4.875  11.281  2.0811  1.3427  0.9594
13573TIP3   OH262209   3.432   3.399   2.898  0.2305 -0.5290  0.3269
13573TIP3    H162210   3.406   3.323   2.846 -0.1515 -0.5294  0.5095
13573TIP3    H262211   3.404   3.474   2.846 -1.0463 -0.5387  0.9609
13574TIP3   OH262212   6.170   1.767  16.065  0.1333  0.0760  0.2919
13574TIP3    H162213   6.118   1.692  16.036  0.9345 -0.0349 -0.9258
13574TIP3    H262214   6.205   1.740  16.150 -0.2308 -0.6165  0.2341
13575TIP3   OH262215   2.158   1.218  15.523 -0.1999 -0.1762 -0.2894
13575TIP3    H162216   2.248   1.188  15.536 -0.0440  0.7353  0.8534
13575TIP3    H262217   2.164   1.313  15.528 -1.4541 -0.1553  1.3996
13576TIP3   OH262218   3.429   0.579  13.543  0.1482  0.3579  0.4534
13576TIP3    H162219   3.392   0.504  13.497 -0.8700  0.3233  1.2850
13576TIP3    H262220   3.470   0.541  13.621 -0.3874  0.6523  0.8874
13577TIP3   OH262221   4.557   4.026   5.974  0.1394  0.3958 -0.6511
13577TIP3    H162222   4.512   4.092   6.026 -0.4876 -0.5086 -0.0049
13577TIP3    H262223   4.581   3.958   6.038  0.5593 -0.1065 -1.3275
13578TIP3   OH262224   6.306   0.010   4.751  0.2410  0.4282  0.0923
13578TIP3    H162225   6.276  -0.049   4.821  1.2972 -0.0599  0.1455
13578TIP3    H262226   6.231   0.068   4.735 -0.6739 -0.6565  0.3290
13579TIP3   OH262227   3.911   0.731  16.713  0.4819  0.1587 -0.0111
13579TIP3    H162228   3.860   0.662  16.756 -0.4243  0.5497 -0.4383
13579TIP3    H262229   3.989   0.740  16.767 -0.9294  1.1401  1.9977
13580TIP3   OH262230   4.752   0.724  11.787  0.0020 -0.2071 -0.1678
13580TIP3    H162231   4.742   0.816  11.764  0.7952 -0.0264  0.1854
13580TIP3    H262232   4.729   0.720  11.880 -3.3561 -0.9600 -0.8754
13581TIP3   OH262233   4.479   5.584  16.033  0.0640 -0.2174 -0.5818
13581TIP3    H162234   4.461   5.639  16.110  1.2266 -0.8081  0.1518
13581TIP3    H262235   4.489   5.646  15.961  0.0666  0.4406 -0.0294
13582TIP3   OH262236   2.096   5.873   1.000 -0.4605  0.4058 -0.2574
13582TIP3    H162237   2.177   5.887   1.049 -0.3567 -1.7311  0.3111
13582TIP3    H262238   2.037   5.941   1.030  0.5042  0.8107  0.7767
13583TIP3   OH262239   6.000   4.831   2.917  0.5781  0.0400  0.2293
13583TIP3    H162240   6.045   4.906   2.956 -0.2702 -0.1436  1.6557
13583TIP3    H262241   6.026   4.757   2.973  0.6102 -0.5463 -0.5564
13584TIP3   OH262242   0.371   5.426   1.140 -0.2080 -0.1231  0.1116
13584TIP3    H162243   0.306   5.361   1.167  0.4263 -0.5623  0.6188
13584TIP3    H262244   0.454   5.377   1.137  0.0625  0.3727 -0.7466
13585TIP3   OH262245   4.151   5.136   6.217 -0.2769 -0.3797 -0.0571
13585TIP3    H162246   4.075   5.122   6.275  0.1201  1.4533  0.9926
13585TIP3    H262247   4.226   5.107   6.269  0.0348  0.8400  0.2112
13586TIP3   OH262248   4.885   2.120  11.809  0.0631  0.0023 -0.0933
13586TIP3    H162249   4.813   2.167  11.853  0.2764  1.9022 -1.6177
13586TIP3    H262250   4.930   2.073  11.879 -0.9247  1.1280  1.3537
13587TIP3   OH262251   3.864   5.096   2.233 -0.2777 -0.7237 -0.2938
13587TIP3    H162252   3.881   5.140   2.150 -1.6496  2.6704  1.0082
13587TIP3    H262253   3.951   5.079   2.269  0.3443 -2.5121 -2.4304
13588TIP3   OH262254   1.513   0.005  16.363  0.5571  0.0326  0.1147
13588TIP3    H162255   1.441   0.010  16.300 -0.6044  2.1034  1.4894
13588TIP3    H262256   1.562   0.086  16.349  1.4906 -0.4556  0.5120
13589TIP3   OH262257   1.622   0.418   3.254 -0.3532 -0.0254  0.1660
13589TIP3    H162258   1.634   0.494   3.196  0.3843  0.6498  1.1758
13589TIP3    H262259   1.616   0.344   3.194 -0.3390  0.7315 -0.8181
13590TIP3   OH262260   2.730   2.415  15.714 -0.0729  0.2479 -0.1703
13590TIP3    H162261   2.696   2.472  15.644  0.7236  0.8150 -0.1064
13590TIP3    H262262   2.717   2.326  15.680  1.6304  0.5294 -1.7094
13591TIP3   OH262263   0.167   0.573  11.977  0.3675  0.3980  0.1316
13591TIP3    H162264   0.116   0.600  11.901  0.3062 -1.1301 -0.3862
13591TIP3    H262265   0.119   0.498  12.013  0.6916  0.7623  1.3582
13592TIP3   OH262266   6.394   1.623  15.980 -0.7697  0.3408  0.7476
13592TIP3    H162267   6.381   1.699  16.036 -1.3372  0.3220  0.6409
13592TIP3    H262268   6.323   1.563  16.002 -1.0037  0.3311  0.0164
13593TIP3   OH262269   1.620   1.155   3.154  0.3412 -0.1963  0.7786
13593TIP3    H162270   1.654   1.101   3.083  1.2467  1.0455  0.2365
13593TIP3    H262271   1.680   1.230   3.158 -1.3197  1.1831  0.9462
13594TIP3   OH262272   3.390   2.432   3.908  0.2819 -0.3236  0.1062
13594TIP3    H162273   3.426   2.509   3.866  0.9590  0.6589  2.3266
13594TIP3    H262274   3.306   2.417   3.865  0.3931  1.3107 -0.7281
13595TIP3   OH262275   2.456   5.533  14.857  0.6660  0.5498 -0.5365
13595TIP3    H162276   2.446   5.586  14.778  0.7766  0.5128 -0.5758
13595TIP3    H262277   2.459   5.443  14.825 -2.0052  0.2917 -0.2994
13596TIP3   OH262278   2.524   4.310  13.830 -0.1563  0.0067  0.1578
13596TIP3    H162279   2.494   4.248  13.765 -0.7028  0.6708 -0.2442
13596TIP3    H262280   2.565   4.381  13.780 -1.9468  1.2764  0.3677
13597TIP3   OH262281   1.551   2.943   3.904 -0.2683  0.0477 -0.2044
13597TIP3    H162282   1.567   2.978   3.991  0.3373 -0.1854 -0.2186
13597TIP3    H262283   1.485   2.875   3.917 -0.8609  0.6325 -0.0646
13598TIP3   OH262284   5.936   1.156   2.541 -0.4121  0.2065  0.5780
13598TIP3    H162285   5.950   1.117   2.627 -1.0340  0.2876  0.7241
13598TIP3    H262286   6.015   1.207   2.524  0.7178 -1.6147  0.0854
13599TIP3   OH262287   3.641   1.945   0.326 -0.2303 -0.0110 -0.4270
13599TIP3    H162288   3.599   2.026   0.299  0.0087 -0.2307 -1.5179
13599TIP3    H262289   3.716   1.936   0.268  0.8775 -0.0515  0.9431
13600TIP3   OH262290   6.737   5.311  15.227  0.2935 -0.0071 -0.2169
13600TIP3    H162291   6.766   5.377  15.291  0.6719 -0.6501  0.2810
13600TIP3    H262292   6.785   5.232  15.251  0.3437 -0.2922 -1.2288
13601TIP3   OH262293   5.583   0.845  12.454 -0.2386 -0.0932  0.0850
13601TIP3    H162294   5.620   0.757  12.452 -0.2570 -0.1334 -3.0908
13601TIP3    H262295   5.535   0.848  12.537 -0.5426 -3.2033  0.1525
13602TIP3   OH262296   0.784   0.574  14.028  0.8625  0.2153  0.2962
13602TIP3    H162297   0.740   0.659  14.029 -1.5108 -0.9194 -0.1914
13602TIP3    H262298   0.870   0.591  14.066 -0.1865  2.4790  1.8889
13603TIP3   OH262299   2.674   0.553  13.122  0.5538  0.5559  0.0547
13603TIP3    H162300   2.635   0.555  13.209  0.2677  2.2008 -0.0768
13603TIP3    H262301   2.618   0.493  13.072 -1.1111  1.8858  0.2185
13604TIP3   OH262302   4.445   6.106   5.076  0.1007 -1.0525 -0.7240
13604TIP3    H162303   4.428   6.057   5.157  1.8537  0.6922  0.8146
13604TIP3    H262304   4.539   6.122   5.077 -0.0033 -0.0997 -2.6121
13605TIP3   OH262305   6.502   6.743  17.094  0.0134  0.0056  0.1899
13605TIP3    H162306   6.494   6.649  17.110 -3.4968 -0.1607 -1.6308
13605TIP3    H262307   6.444   6.784  17.159 -0.0879  0.7149 -0.3314
13606TIP3   OH262308   0.628   1.110  15.372 -0.0036 -0.2003 -0.1695
13606TIP3    H162309   0.697   1.159  15.416 -1.1955 -0.9449  2.7512
13606TIP3    H262310   0.672   1.032  15.337  1.2402  1.1419 -1.7716
13607TIP3   OH262311   5.162   5.279  14.887  0.8533 -0.4608 -0.7247
13607TIP3    H162312   5.134   5.364  14.921  0.3935 -0.6891 -0.5260
13607TIP3    H262313   5.214   5.241  14.957  0.4839 -0.6369 -0.5464
13608TIP3   OH262314   4.708   5.759  11.738  0.2303 -0.2028 -0.0415
13608TIP3    H162315   4.682   5.669  11.715 -0.6978  0.1966 -0.6267
13608TIP3    H262316   4.698   5.808  11.656  0.4368  0.4912  0.3472
13609TIP3   OH262317   5.625   3.579  10.654 -0.0765  0.4429  0.0368
13609TIP3    H162318   5.680   3.545  10.582 -0.9843  1.1308 -1.0130
13609TIP3    H262319   5.578   3.503  10.686 -0.3946  0.2962 -0.7649
13610TIP3   OH262320   4.254   2.299  16.847 -0.4078 -0.0272  0.1653
13610TIP3    H162321   4.182   2.356  16.822 -0.2707 -0.1471 -0.5105
13610TIP3    H262322   4.292   2.269  16.764 -0.0311 -0.5328  0.5100
13611TIP3   OH262323   2.488   1.335  13.315 -0.4746  0.2609  0.6628
13611TIP3    H162324   2.559   1.392  13.286  0.7763 -1.1819  0.7530
13611TIP3    H262325   2.487   1.344  13.410 -1.1211  1.0591  0.5905
13612TIP3   OH262326   0.865   4.679   5.252 -0.5461 -0.7014  0.2622
13612TIP3    H162327   0.893   4.753   5.305  1.8266 -0.8616 -0.6321
13612TIP3    H262328   0.791   4.711   5.202 -1.1240  0.2688  1.6844
13613TIP3   OH262329   4.768   2.026  16.891  0.2886 -0.5809 -0.0228
13613TIP3    H162330   4.800   2.109  16.929 -1.8064  1.6610 -2.7137
13613TIP3    H262331   4.822   1.959  16.932  4.7243  2.3739 -0.3392
13614TIP3   OH262332   3.068   3.863   2.007  0.2607  0.5299 -0.2756
13614TIP3    H162333   3.075   3.770   2.029  0.7137  0.7367  0.4959
13614TIP3    H262334   2.978   3.886   2.027  0.3518  0.4326  0.2442
13615TIP3   OH262335   0.456   3.067  12.878 -0.1781  0.5938  0.1080
13615TIP3    H162336   0.550   3.062  12.893 -0.5576 -0.1419  2.6217
13615TIP3    H262337   0.428   3.149  12.919 -0.4931  1.5570 -1.8820
13616TIP3   OH262338   1.312   4.578   0.827  0.4996 -0.0858 -0.6025
13616TIP3    H162339   1.322   4.492   0.869 -1.9878 -2.0178 -3.5091
13616TIP3    H262340   1.285   4.636   0.897 -0.5183 -2.3834  1.0332
13617TIP3   OH262341   6.436   0.605   5.385 -0.4028  0.3404 -0.0339
13617TIP3    H162342   6.360   0.663   5.381 -1.1555 -0.6515 -0.6172
13617TIP3    H262343   6.423   0.544   5.312  0.9033  0.0889 -0.0727
13618TIP3   OH262344   3.622   4.736  12.146 -0.1203  0.5254  0.0779
13618TIP3    H162345   3.530   4.761  12.146  0.1489  1.5683  0.2839
13618TIP3    H262346   3.659   4.779  12.223  0.2762 -0.9298  0.7379
13619TIP3   OH262347   4.674   3.809   5.330  0.0954 -0.2302 -0.2823
13619TIP3    H162348   4.664   3.715   5.318 -2.1662  0.1047 -1.5752
13619TIP3    H262349   4.695   3.819   5.422  2.2568 -2.0677 -0.4837
13620TIP3   OH262350   1.813   6.228   0.756  0.0522  0.5727  0.2644
13620TIP3    H162351   1.777   6.307   0.715  1.7057 -0.1567 -2.9630
13620TIP3    H262352   1.754   6.157   0.728  0.2508  0.2810  0.5752
13621TIP3   OH262353   4.032   3.601  15.872  0.2862 -0.4874 -0.2870
13621TIP3    H162354   3.968   3.541  15.912 -1.4924  0.0681 -2.1544
13621TIP3    H262355   4.117   3.559  15.889 -0.4780 -1.1153  2.5157
13622TIP3   OH262356   6.449   2.778  12.785 -0.0552  0.2378 -0.1300
13622TIP3    H162357   6.424   2.700  12.736  0.2061  0.4220 -0.5545
13622TIP3    H262358   6.423   2.758  12.876 -1.7699  0.4211 -0.5445
13623TIP3   OH262359   3.351   0.462  15.639 -0.3806  0.5817 -0.0499
13623TIP3    H162360   3.277   0.402  15.644  0.5261 -0.4830  1.2274
13623TIP3    H262361   3.376   0.463  15.547 -0.7195 -0.6174 -0.1657
13624TIP3   OH262362   1.052   0.670  14.054  0.2450 -0.2118  0.0332
13624TIP3    H162363   1.077   0.585  14.019  0.7809  0.3188 -0.9199
13624TIP3    H262364   1.059   0.729  13.980 -0.3955  0.6171  0.6141
13625TIP3   OH262365   1.539   4.273  15.740  0.3428 -0.3029 -0.3042
13625TIP3    H162366   1.547   4.296  15.833  0.4397 -1.2554 -0.0640
13625TIP3    H262367   1.465   4.212  15.737  0.6625 -0.6806 -0.7670
13626TIP3   OH262368   2.591   2.135   3.818 -0.6251 -0.7066  0.1140
13626TIP3    H162369   2.633   2.215   3.849  2.4766 -1.6872 -1.0962
13626TIP3    H262370   2.539   2.104   3.892  0.6820  0.7432  1.7250
13627TIP3   OH262371   5.656   3.414  16.945 -0.2294 -0.2751  0.2708
13627TIP3    H162372   5.593   3.374  17.004 -2.5044  0.7635 -1.3011
13627TIP3    H262373   5.682   3.343  16.886  0.3644 -0.7796  1.1146
13628TIP3   OH262374   0.436   5.227  13.088 -0.4337 -0.1284  0.1905
13628TIP3    H162375   0.453   5.321  13.100 -0.6901 -0.1913  1.1216
13628TIP3    H262376   0.490   5.202  13.013  1.3313  0.3072  1.2481
13629TIP3   OH262377   6.648   0.705  15.951  0.2370  0.2245 -0.2306
13629TIP3    H162378   6.690   0.781  15.913  3.4846 -0.8977  0.8062
13629TIP3    H262379   6.687   0.696  16.038 -1.2621 -1.6938  0.3321
13630TIP3   OH262380   5.603   1.752   5.659  0.0541  0.1731 -0.1459
13630TIP3    H162381   5.691   1.742   5.697 -0.9004 -0.3321  2.1366
13630TIP3    H262382   5.568   1.663   5.656 -0.3518  0.3559 -1.1493
13631TIP3   OH262383   0.528   4.095   0.389  0.2867  0.0492  0.2822
13631TIP3    H162384   0.504   4.038   0.316  2.5571 -1.1445  0.3675
13631TIP3    H262385   0.507   4.045   0.468  0.7244  0.0109  0.3815
13632TIP3   OH262386   6.233   3.338   1.257 -0.4961 -0.2358  0.2989
13632TIP3    H162387   6.195   3.417   1.296 -0.9858  0.7992 -2.0493
13632TIP3    H262388   6.163   3.273   1.263 -0.5255 -0.1257  1.2008
13633TIP3   OH262389   2.846   3.220   2.137  0.3208 -0.1218  0.0809
13633TIP3    H162390   2.841   3.134   2.095  0.4272  0.2931 -0.8064
13633TIP3    H262391   2.800   3.209   2.220 -0.9662 -0.6563 -0.6741
13634TIP3   OH262392   1.171   1.269   2.005  0.2831  0.0712 -0.6397
13634TIP3    H162393   1.229   1.194   2.021 -0.5830 -0.5595 -0.4108
13634TIP3    H262394   1.209   1.313   1.929  1.0924 -0.3057 -0.4632
13635TIP3   OH262395   4.412   5.817  17.109  0.4464 -0.0241 -0.2445
13635TIP3    H162396   4.462   5.765  17.172 -1.0173 -2.2931 -0.8665
13635TIP3    H262397   4.479   5.863  17.058  1.7357 -0.1388  1.2517
13636TIP3   OH262398   6.540   6.798  16.823  0.1293  0.0761  0.5481
13636TIP3    H162399   6.447   6.798  16.800 -0.0566  0.3110  1.2506
13636TIP3    H262400   6.541   6.776  16.917  0.8134 -0.4043  0.4344
13637TIP3   OH262401   5.030   0.345   0.876 -0.2849 -0.5083  0.2856
13637TIP3    H162402   5.083   0.332   0.955 -0.9010  0.3627  0.8592
13637TIP3    H262403   5.079   0.409   0.824  1.0574 -2.4344 -0.9554
13638TIP3   OH262404   1.479   2.396   0.463 -0.1953  0.0726 -0.0918
13638TIP3    H162405   1.547   2.331   0.446  0.8719  1.4335 -1.3029
13638TIP3    H262406   1.411   2.348   0.512  0.8504 -1.7395 -0.3279
13639TIP3   OH262407   3.529   5.972  16.494 -0.2333 -0.1658  0.0328
13639TIP3    H162408   3.510   6.059  16.529 -0.0333 -0.1312  0.0565
13639TIP3    H262409   3.467   5.962  16.421 -0.0928  0.0962 -0.1264
13640TIP3   OH262410   2.576   1.318   2.036  0.2219  0.5163  0.0956
13640TIP3    H162411   2.521   1.270   1.975  0.5414  1.4543 -0.9677
13640TIP3    H262412   2.645   1.256   2.061 -1.1464 -0.6075  1.2988
13641TIP3   OH262413   3.572   5.609   6.131  0.0610  0.3502  0.4349
13641TIP3    H162414   3.645   5.564   6.089  1.7147 -0.2059  3.6150
13641TIP3    H262415   3.497   5.551   6.118  1.3047 -1.5139  1.2230
13642TIP3   OH262416   5.102   2.195  12.858  0.1475  0.1258  0.8138
13642TIP3    H162417   5.179   2.152  12.896  0.6688  0.8868  0.6402
13642TIP3    H262418   5.047   2.217  12.933  1.9225  3.1076  1.4111
13643TIP3   OH262419   1.477   5.492  14.322  0.0628 -0.0192 -0.4570
13643TIP3    H162420   1.437   5.430  14.261 -0.6519  0.8587 -0.9033
13643TIP3    H262421   1.488   5.572  14.272  2.7824 -0.3055 -0.4706
13644TIP3   OH262422   4.555   5.247  11.516  0.4236 -0.6752  0.2884
13644TIP3    H162423   4.471   5.284  11.543  0.0598 -0.9839 -0.3975
13644TIP3    H262424   4.570   5.175  11.576  0.9866  0.3554  1.4402
13645TIP3   OH262425   6.566   4.486   5.001 -0.2609  0.1858  0.2896
13645TIP3    H162426   6.523   4.571   4.997  1.4898  1.1318  0.8880
13645TIP3    H262427   6.510   4.434   5.058 -0.7823  1.2787  0.8018
13646TIP3   OH262428   3.640   6.464   1.529  0.0367 -0.7557 -0.1694
13646TIP3    H162429   3.596   6.481   1.445 -0.1913 -1.8598 -0.2824
13646TIP3    H262430   3.584   6.401   1.574 -0.9997  1.3927  1.7948
13647TIP3   OH262431   1.049   4.852  12.901 -0.1639  0.1230  0.0947
13647TIP3    H162432   1.067   4.769  12.945  0.1616  0.5584  0.8059
13647TIP3    H262433   0.972   4.835  12.848  0.0463 -0.7038  0.0422
13648TIP3   OH262434   3.946   6.226  16.370 -0.1702 -0.3301 -0.0961
13648TIP3    H162435   3.916   6.138  16.394  0.9919 -1.4931 -2.5122
13648TIP3    H262436   3.989   6.214  16.285 -1.4427  2.8967 -1.3354
13649TIP3   OH262437   2.932   1.077  13.048 -0.1909 -0.0677 -0.2218
13649TIP3    H162438   2.976   1.147  13.095  0.9235 -0.4801 -0.6305
13649TIP3    H262439   2.930   1.106  12.957  0.1124 -0.4868 -0.3640
13650TIP3   OH262440   0.468   5.051  16.939  0.2616 -0.4266  0.0505
13650TIP3    H162441   0.443   5.030  17.029 -2.3014 -3.7368 -1.1949
13650TIP3    H262442   0.384   5.056  16.892  1.5288 -2.4307 -2.7174
13651TIP3   OH262443   3.204   3.634   4.848 -0.3783  0.3897 -0.1749
13651TIP3    H162444   3.138   3.590   4.900 -0.0598  0.1473  0.0242
13651TIP3    H262445   3.189   3.603   4.759 -1.2194  1.1556 -0.3192
13652TIP3   OH262446   2.974   1.232  14.443 -0.2198 -0.6201 -0.5535
13652TIP3    H162447   3.053   1.279  14.416  0.0525 -0.7923 -0.0588
13652TIP3    H262448   2.910   1.251  14.374  0.0755 -0.0205 -0.6661
13653TIP3   OH262449   0.813   1.445  16.569 -0.0783 -0.3259  0.4610
13653TIP3    H162450   0.888   1.501  16.548  1.4428 -1.5315  2.3872
13653TIP3    H262451   0.737   1.504  16.566  1.1205  1.2461 -0.1088
13654TIP3   OH262452   2.951   1.050   0.123 -0.3029 -0.5644  0.0621
13654TIP3    H162453   2.973   1.138   0.093 -1.6317 -0.8462 -1.8594
13654TIP3    H262454   2.899   1.064   0.203  1.3364  0.2725  1.0276
13655TIP3   OH262455   0.735   1.885  11.907 -0.0345 -0.0645  0.3563
13655TIP3    H162456   0.706   1.929  11.827  0.6940 -1.3322 -0.6359
13655TIP3    H262457   0.677   1.919  11.975 -0.4781  1.2643 -0.6422
13656TIP3   OH262458   3.740   2.613  14.279  0.1976 -0.4164  0.1737
13656TIP3    H162459   3.688   2.690  14.255  0.5723 -0.5138 -0.9652
13656TIP3    H262460   3.831   2.640  14.269  0.3664 -0.5829  1.1347
13657TIP3   OH262461   6.620   3.295   1.168  0.3010 -0.0883  0.5929
13657TIP3    H162462   6.549   3.327   1.223  0.9486  1.4396  0.5961
13657TIP3    H262463   6.674   3.373   1.152  0.4675 -0.6211 -1.6943
13658TIP3   OH262464   4.698   2.448  11.830 -0.2835  0.5445 -0.4767
13658TIP3    H162465   4.714   2.433  11.737 -0.4518 -1.5448 -0.2158
13658TIP3    H262466   4.782   2.479  11.864  0.8081 -1.8137 -0.7712
13659TIP3   OH262467   4.451   0.832  13.105  0.5162  0.0738  0.2044
13659TIP3    H162468   4.389   0.847  13.033  1.0990  0.6912 -0.1878
13659TIP3    H262469   4.520   0.779  13.066 -0.0307 -1.0851  0.7865
13660TIP3   OH262470   6.166   6.794   4.208 -0.5904 -0.1317 -0.2474
13660TIP3    H162471   6.222   6.850   4.154 -0.8024  0.6566  0.3354
13660TIP3    H262472   6.137   6.725   4.148  2.4517 -1.6573 -0.1461
13661TIP3   OH262473   5.536   5.417   1.020  0.4785 -0.2216 -0.4523
13661TIP3    H162474   5.523   5.466   0.939 -0.8801 -0.5532 -0.4545
13661TIP3    H262475   5.453   5.424   1.067  0.6680 -1.4599  0.1262
13662TIP3   OH262476   2.864   6.712   2.009 -0.0216 -0.7119  0.1727
13662TIP3    H162477   2.808   6.788   1.996  2.8711  1.5386 -0.2745
13662TIP3    H262478   2.882   6.679   1.921 -0.1112 -0.9986  0.2598
13663TIP3   OH262479   6.484   2.851  17.165 -0.0174  0.7970  0.1895
13663TIP3    H162480   6.460   2.812  17.249  1.3873  1.6179  1.0067
13663TIP3    H262481   6.536   2.784  17.121 -1.0267  0.2432 -0.1903
13664TIP3   OH262482   3.923   0.175  15.144 -0.0986 -0.9031 -0.0612
13664TIP3    H162483   4.009   0.159  15.105  0.0221 -0.5497  0.0628
13664TIP3    H262484   3.910   0.101  15.204 -0.3999 -1.5970 -0.9530
13665TIP3   OH262485   3.616   5.190  15.955  0.6124 -0.1016 -0.8318
13665TIP3    H162486   3.602   5.131  15.880 -3.0127 -0.2809 -0.2122
13665TIP3    H262487   3.671   5.140  16.015 -0.9980 -2.2827 -1.0405
13666TIP3   OH262488   6.300   0.975  13.507 -0.6134 -0.4601 -0.1862
13666TIP3    H162489   6.389   0.992  13.475 -0.4238 -0.3091  0.4069
13666TIP3    H262490   6.277   1.054  13.556 -0.3143 -1.2741  1.3267
13667TIP3   OH262491   2.024   0.868   2.854 -0.0848  0.0870  0.2188
13667TIP3    H162492   1.984   0.905   2.933 -0.1073 -0.3118  0.3924
13667TIP3    H262493   2.049   0.779   2.879  0.3989  0.1434 -0.0601
13668TIP3   OH262494   2.456   5.901  11.989  0.0866  0.0080  0.3279
13668TIP3    H162495   2.384   5.962  11.971 -0.5160 -0.7481  0.1022
13668TIP3    H262496   2.487   5.875  11.902  1.0583  0.7988  0.4207
13669TIP3   OH262497   4.184   0.214   0.379 -0.3649 -0.5275 -0.6317
13669TIP3    H162498   4.276   0.210   0.405 -0.1135  1.3806 -1.0458
13669TIP3    H262499   4.153   0.297   0.416 -1.0102  0.4273 -3.0840
13670TIP3   OH262500   4.494   5.285  14.343 -0.4061  0.3849  0.0529
13670TIP3    H162501   4.548   5.207  14.357 -1.2270 -0.2867 -0.4658
13670TIP3    H262502   4.505   5.306  14.251  0.5793  1.4915  0.3858
13671TIP3   OH262503   5.453   6.413  12.648  0.6346 -0.0204 -0.0591
13671TIP3    H162504   5.511   6.453  12.582  1.5945  1.2131  1.4681
13671TIP3    H262505   5.417   6.336  12.604 -1.1026  2.2854 -3.0716
13672TIP3   OH262506   3.652   5.699  16.889 -0.4579  0.3182 -0.2036
13672TIP3    H162507   3.659   5.787  16.850 -0.2068  0.8571  1.0086
13672TIP3    H262508   3.726   5.694  16.949 -1.3512 -0.1351  0.8784
13673TIP3   OH262509   2.202   3.623  11.535 -0.6738  0.4004  0.7304
13673TIP3    H162510   2.205   3.553  11.469  0.2273  2.0790 -1.1409
13673TIP3    H262511   2.111   3.650  11.537 -0.5602  0.9746 -0.6224
13674TIP3   OH262512   4.049   5.109  15.062  0.2360  0.9582 -0.6552
13674TIP3    H162513   4.017   5.161  14.988 -0.0308 -0.1239 -1.3182
13674TIP3    H262514   4.080   5.027  15.022 -1.6533 -0.4435  0.6223
13675TIP3   OH262515   3.828   4.618   4.493  0.4744  0.5415  0.2350
13675TIP3    H162516   3.858   4.556   4.426 -2.3816 -2.4081  1.4381
13675TIP3    H262517   3.782   4.686   4.443 -0.9154 -1.1721 -0.9490
13676TIP3   OH262518   6.201   2.661   5.265 -0.1056 -0.3213 -0.1859
13676TIP3    H162519   6.207   2.574   5.225 -2.4883  0.3914 -2.3829
13676TIP3    H262520   6.229   2.721   5.195 -3.1239  0.8905 -0.5019
13677TIP3   OH262521   0.661   1.987  14.019  0.1790 -0.1936 -0.2057
13677TIP3    H162522   0.742   2.029  14.049  0.4790  1.0929 -2.5457
13677TIP3    H262523   0.688   1.900  13.989  0.4260 -0.3133  0.3622
13678TIP3   OH262524   5.760   3.896   4.027  0.0782  0.1618 -0.1305
13678TIP3    H162525   5.703   3.820   4.032 -0.5068  0.6197  3.3721
13678TIP3    H262526   5.700   3.969   4.010 -0.0510  0.3030  0.8351
13679TIP3   OH262527   3.808   5.880  13.277 -0.0287  0.2032 -0.3770
13679TIP3    H162528   3.726   5.926  13.262 -0.7918 -1.0336 -0.2159
13679TIP3    H262529   3.822   5.829  13.198  1.0692  1.0656 -0.7641
13680TIP3   OH262530   6.211   0.049  16.478  0.4952 -0.3093  0.3399
13680TIP3    H162531   6.156  -0.029  16.472  2.2537 -1.5271 -1.5138
13680TIP3    H262532   6.300   0.015  16.484  1.2236  1.5875  1.1114
13681TIP3   OH262533   3.691   4.435   6.281 -0.4737  0.2540  0.4048
13681TIP3    H162534   3.605   4.419   6.319 -0.8021  1.4126  0.2022
13681TIP3    H262535   3.752   4.425   6.354 -0.7241 -0.9513  0.4701
13682TIP3   OH262536   0.111   4.064  13.280 -0.4179 -0.2987  0.1259
13682TIP3    H162537   0.170   3.998  13.317  0.0787  0.9695  1.7294
13682TIP3    H262538   0.099   4.037  13.189  1.3907 -1.4731  0.1809
13683TIP3   OH262539   2.912   4.595  12.453 -0.1283  0.1926  0.3003
13683TIP3    H162540   2.961   4.677  12.448 -1.2317  0.8708  0.1936
13683TIP3    H262541   2.967   4.538  12.507  0.6263  1.0218  0.4424
13684TIP3   OH262542   5.827   6.293   0.048 -0.3585 -0.0955 -0.1993
13684TIP3    H162543   5.759   6.322   0.109  0.3661 -0.8520  1.0075
13684TIP3    H262544   5.791   6.215   0.007 -0.4918 -0.1053 -0.0636
13685TIP3   OH262545   3.770   4.675  11.530  0.4042  0.8351 -0.2584
13685TIP3    H162546   3.798   4.613  11.597 -0.3957 -1.2362 -1.7258
13685TIP3    H262547   3.815   4.646  11.450  0.5870  2.6261 -0.8428
13686TIP3   OH262548   5.844   2.554  14.100 -0.2590  0.2949 -0.0444
13686TIP3    H162549   5.804   2.570  14.186 -2.3588 -2.4122 -0.3923
13686TIP3    H262550   5.799   2.614  14.041 -0.3221  0.6626  0.3722
13687TIP3   OH262551   4.009   6.293  17.093  0.3553 -0.2014  0.6121
13687TIP3    H162552   3.969   6.210  17.120 -0.1112  0.3180  1.5753
13687TIP3    H262553   3.934   6.351  17.077  0.4773 -0.8224 -3.2606
13688TIP3   OH262554   4.917   4.365  14.086  0.4684  0.1681  0.0793
13688TIP3    H162555   5.009   4.371  14.111  0.9058 -3.0414 -0.3608
13688TIP3    H262556   4.879   4.302  14.148 -1.8451  2.2958  1.0476
13689TIP3   OH262557   3.996   3.378   3.195 -0.5764 -0.1619  0.5001
13689TIP3    H162558   4.020   3.351   3.283  0.3149  1.1336  0.6802
13689TIP3    H262559   3.920   3.436   3.207  1.9810  3.4310  0.9465
13690TIP3   OH262560   2.677   4.989   1.540  0.1404  0.2790  0.2042
13690TIP3    H162561   2.727   5.069   1.560 -0.3315  0.5135  0.4556
13690TIP3    H262562   2.616   4.980   1.613 -1.8561  1.3353 -1.2242
13691TIP3   OH262563   4.556   3.746   3.363 -0.4160 -0.3651  0.1802
13691TIP3    H162564   4.579   3.774   3.451  1.8493 -0.3854 -0.3432
13691TIP3    H262565   4.489   3.679   3.375 -2.0580  1.4339  1.7156
13692TIP3   OH262566   1.359   0.981   5.030 -0.0379 -0.4882  0.7375
13692TIP3    H162567   1.450   0.953   5.038 -0.0722 -0.5107  1.0579
13692TIP3    H262568   1.346   0.992   4.936  0.3969 -0.1547  0.7122
13693TIP3   OH262569   5.316   5.218   5.454  0.3959  0.5496  0.0841
13693TIP3    H162570   5.319   5.211   5.359  1.0297  1.5295  0.0119
13693TIP3    H262571   5.348   5.134   5.486  1.6246  0.7432 -0.5906
13694TIP3   OH262572   1.231   1.514   6.140 -0.1560 -0.4317  0.0165
13694TIP3    H162573   1.285   1.576   6.091  1.4260 -2.6758 -1.2928
13694TIP3    H262574   1.220   1.440   6.080 -3.9039 -0.5548  0.6319
13695TIP3   OH262575   1.911   1.394   4.607  0.5305  0.0874 -0.3976
13695TIP3    H162576   1.970   1.465   4.584  0.0957 -0.1756 -2.5016
13695TIP3    H262577   1.824   1.434   4.607  0.4487 -0.0831  0.0820
13696TIP3   OH262578   2.833   0.952  14.631 -0.0248  0.4673  0.9184
13696TIP3    H162579   2.893   0.903  14.575 -2.5158  0.1765 -1.7510
13696TIP3    H262580   2.838   0.908  14.716  0.3815 -2.2896 -0.4148
13697TIP3   OH262581   0.779   0.930  15.226  0.3294 -0.2926 -0.0971
13697TIP3    H162582   0.789   0.841  15.261  1.4899  0.5273  1.7834
13697TIP3    H262583   0.857   0.943  15.172  0.6607 -0.0712  0.4319
13698TIP3   OH262584   3.324   6.295   1.498 -0.0903 -0.1420 -0.0806
13698TIP3    H162585   3.338   6.283   1.404 -1.0177  1.2862 -0.4438
13698TIP3    H262586   3.264   6.369   1.504  1.7073  1.3043  1.7096
13699TIP3   OH262587   2.723   3.395   3.623 -0.1211 -0.2740 -0.1275
13699TIP3    H162588   2.797   3.349   3.585  0.7987  1.0376  0.0075
13699TIP3    H262589   2.686   3.333   3.687  3.6840  0.5388  3.2899
13700TIP3   OH262590   6.011   2.007  13.826 -0.9654  0.1828  0.4234
13700TIP3    H162591   6.075   2.057  13.776 -0.5198  0.0393  0.8517
13700TIP3    H262592   5.958   2.073  13.871 -0.3314  0.2738  1.0472
13701TIP3   OH262593   6.177   0.820   2.586 -0.4676  0.1238 -0.3969
13701TIP3    H162594   6.106   0.873   2.621 -0.7517 -0.2265 -0.4401
13701TIP3    H262595   6.134   0.751   2.537 -0.1071 -0.2635 -0.1777
13702TIP3   OH262596   3.496   4.727  15.959  0.3007  0.4370  0.2845
13702TIP3    H162597   3.547   4.702  15.882 -2.9249 -2.2156 -1.2436
13702TIP3    H262598   3.456   4.811  15.934 -1.7341 -0.9826 -1.6718
13703TIP3   OH262599   4.594   4.992   4.692 -0.5346  0.3430  0.1571
13703TIP3    H162600   4.601   5.049   4.615  0.0601  0.2387  0.1280
13703TIP3    H262601   4.536   5.039   4.751 -2.1762 -0.2300 -0.9257
13704TIP3   OH262602   4.429   6.082  15.094  0.4299  0.3801  0.6217
13704TIP3    H162603   4.442   5.991  15.121  0.0607  0.6101  1.6041
13704TIP3    H262604   4.417   6.131  15.176 -2.7328  0.8023  0.0532
13705TIP3   OH262605   2.906   1.674   0.976  0.6502 -0.5456  0.6814
13705TIP3    H162606   2.827   1.654   1.028 -1.6225  1.2707 -1.7766
13705TIP3    H262607   2.900   1.768   0.960  1.7763 -0.8509 -1.9308
13706TIP3   OH262608   2.434   6.803  14.063 -0.2811 -0.2723  0.4958
13706TIP3    H162609   2.365   6.861  14.095 -1.0189 -1.5210  1.2748
13706TIP3    H262610   2.389   6.741  14.006  0.3342 -0.6244  0.3795
13707TIP3   OH262611   2.781   6.384   2.867 -0.3946  0.2125 -0.2476
13707TIP3    H162612   2.703   6.356   2.915  0.5618 -2.6421 -0.1764
13707TIP3    H262613   2.756   6.468   2.829 -3.2576 -0.2468  0.3287
13708TIP3   OH262614   2.121   5.485  16.033  0.0612 -0.6907 -0.1398
13708TIP3    H162615   2.117   5.459  15.941  1.0860 -1.6542  0.0730
13708TIP3    H262616   2.090   5.408  16.081 -0.4745 -0.1911  0.3426
13709TIP3   OH262617   0.546   1.112  11.713  1.0265 -0.0817 -0.3834
13709TIP3    H162618   0.532   1.017  11.719  2.1514 -0.2111  0.4514
13709TIP3    H262619   0.637   1.122  11.684  1.0012  0.7468 -0.2120
13710TIP3   OH262620   5.053   0.178   2.003  0.0528 -0.0165  0.3982
13710TIP3    H162621   4.965   0.173   1.966 -0.3530 -0.1247  1.3591
13710TIP3    H262622   5.102   0.232   1.941 -0.8771  0.6270  0.2119
13711TIP3   OH262623   2.676   6.561  13.860 -0.2532 -0.2039 -0.6174
13711TIP3    H162624   2.662   6.602  13.946  0.0559 -0.1366 -0.5954
13711TIP3    H262625   2.593   6.520  13.839 -0.5756  0.4653 -0.6535
13712TIP3   OH262626   0.421   4.107  16.123  0.2254 -0.1339  0.1202
13712TIP3    H162627   0.504   4.117  16.077 -0.0397  0.3070 -0.2814
13712TIP3    H262628   0.416   4.014  16.146 -0.3259 -0.7059 -2.0962
13713TIP3   OH262629   1.805   2.913   5.661  0.1817 -0.6359 -0.0414
13713TIP3    H162630   1.899   2.909   5.674  0.2270 -1.8527 -0.5649
13713TIP3    H262631   1.768   2.905   5.749  0.5589  0.0100  0.1809
13714TIP3   OH262632   5.767   4.851   2.783  0.2916  0.0970  0.5806
13714TIP3    H162633   5.775   4.915   2.712 -1.8209  0.2727  0.4328
13714TIP3    H262634   5.842   4.869   2.840  1.0889  1.0701 -0.7235
13715TIP3   OH262635   6.372   6.147  12.300 -0.2115  0.2304  0.4468
13715TIP3    H162636   6.463   6.163  12.326 -0.3587  0.3165  0.9150
13715TIP3    H262637   6.369   6.054  12.277 -0.0474  0.1875  0.5998
13716TIP3   OH262638   1.074   0.489  13.316  0.3252 -0.0707 -0.5339
13716TIP3    H162639   0.979   0.491  13.317  0.3390  0.4009  0.1948
13716TIP3    H262640   1.096   0.457  13.228 -0.4913  0.1223 -0.8183
13717TIP3   OH262641   1.709   5.269  13.238  0.1316  0.2330 -0.2862
13717TIP3    H162642   1.627   5.306  13.270 -0.1427  1.1332 -1.9318
13717TIP3    H262643   1.771   5.283  13.309 -0.3670  2.4723 -0.2281
13718TIP3   OH262644   1.507   4.178  10.897 -0.4091 -0.6770 -0.4076
13718TIP3    H162645   1.572   4.234  10.939 -0.5671  0.1621 -1.2472
13718TIP3    H262646   1.435   4.237  10.875 -1.1887 -1.4724 -0.0839
13719TIP3   OH262647   3.747   4.906  16.021  0.2333 -0.2617 -0.0301
13719TIP3    H162648   3.789   4.820  16.023 -1.3808 -1.1135 -0.9209
13719TIP3    H262649   3.773   4.944  15.937 -0.1329 -0.4505 -0.2293
13720TIP3   OH262650   1.574   0.342  13.118 -0.3998  0.1702  0.4396
13720TIP3    H162651   1.521   0.262  13.114  0.1606 -0.2610  1.3891
13720TIP3    H262652   1.664   0.312  13.111 -0.0975  0.5560  2.2298
13721TIP3   OH262653   3.286   4.171  14.870  0.0922  0.1578  0.3169
13721TIP3    H162654   3.319   4.147  14.957  2.1886  0.8531 -0.2288
13721TIP3    H262655   3.271   4.087  14.827 -1.1075 -0.1989  1.3613
13722TIP3   OH262656   1.544   2.862   1.026 -0.6528  0.0506 -0.4261
13722TIP3    H162657   1.511   2.784   0.983 -1.6765  1.0886 -1.5927
13722TIP3    H262658   1.636   2.842   1.046 -1.4697 -2.3200  1.4890
13723TIP3   OH262659   3.053   1.714  17.111 -0.1353 -0.1811  0.3665
13723TIP3    H162660   3.024   1.660  17.037  0.1905 -0.2630  0.2977
13723TIP3    H262661   2.975   1.725  17.165 -0.6467  0.7975 -0.5460
13724TIP3   OH262662   1.565   0.443  14.032 -0.2018 -0.1175  0.5854
13724TIP3    H162663   1.515   0.485  13.962 -0.2280 -0.6787  0.2584
13724TIP3    H262664   1.575   0.511  14.099 -1.4497 -0.0148  0.6855
13725TIP3   OH262665   3.343   1.327  11.602  0.2429 -0.1978  0.7732
13725TIP3    H162666   3.435   1.340  11.579  0.3750  1.2141  1.9511
13725TIP3    H262667   3.315   1.252  11.551  1.3870  0.8043 -1.4358
13726TIP3   OH262668   4.911   6.412   4.800  0.2929 -0.2274  0.5345
13726TIP3    H162669   4.842   6.430   4.736  0.2914  1.2794  0.9177
13726TIP3    H262670   4.875   6.342   4.855 -0.2483 -0.5926 -0.2597
13727TIP3   OH262671   5.208   3.384  12.811  0.1148 -0.2707 -0.5333
13727TIP3    H162672   5.303   3.384  12.820 -0.0240 -0.0208  1.2963
13727TIP3    H262673   5.189   3.307  12.756  1.2267 -1.7822  1.0887
13728TIP3   OH262674   0.054   3.489   3.890 -0.4364  0.2900  0.2166
13728TIP3    H162675   0.010   3.563   3.849  0.9008  0.8806 -0.2052
13728TIP3    H262676   0.046   3.418   3.827 -1.2454  0.2212  0.3847
13729TIP3   OH262677   3.331   2.095  12.722 -0.3722  0.0062 -1.0363
13729TIP3    H162678   3.282   2.141  12.790  0.1715  0.9283 -1.2399
13729TIP3    H262679   3.321   2.002  12.743  0.6010  0.2895  0.8768
13730TIP3   OH262680   2.749   6.678   4.224  0.0564  0.3466  1.1417
13730TIP3    H162681   2.753   6.620   4.148 -1.5038 -0.4664  1.6454
13730TIP3    H262682   2.779   6.763   4.191 -2.5156  0.5761 -0.9804
13731TIP3   OH262683   0.574   5.183   0.092 -0.1040  0.8587  0.0112
13731TIP3    H162684   0.610   5.099   0.121  0.4530  0.7544 -0.9312
13731TIP3    H262685   0.648   5.226   0.048 -0.3520  1.8888  0.5751
13732TIP3   OH262686   0.360   5.951   3.030 -0.1349 -0.1507 -0.8231
13732TIP3    H162687   0.419   6.027   3.030 -0.6526  0.2566 -0.8033
13732TIP3    H262688   0.418   5.876   3.015  0.8073 -0.0830  1.8437
13733TIP3   OH262689   1.959   1.763   0.761 -0.2485 -0.5236 -0.1917
13733TIP3    H162690   1.929   1.703   0.829  1.5875 -0.9636  0.2885
13733TIP3    H262691   1.978   1.845   0.806  0.8153 -0.7656 -0.1562
13734TIP3   OH262692   2.139   1.673   0.334  0.0823  0.5868  0.3041
13734TIP3    H162693   2.072   1.607   0.316 -0.2953  1.1839 -0.5331
13734TIP3    H262694   2.133   1.689   0.428 -0.1342 -0.2239  0.4412
13735TIP3   OH262695   0.145   2.093  12.417 -0.0644 -0.0116  0.3503
13735TIP3    H162696   0.083   2.046  12.361  0.8049 -0.3606 -0.3521
13735TIP3    H262697   0.170   2.170  12.365  1.2559 -0.6859 -0.0604
13736TIP3   OH262698   0.680   5.418  13.834  0.6241 -0.2190  0.1725
13736TIP3    H162699   0.760   5.367  13.828  0.4293 -0.5706  0.5303
13736TIP3    H262700   0.705   5.498  13.882  1.3016  0.8074 -1.7877
13737TIP3   OH262701   3.970   4.317   2.364 -0.3987  0.3520  0.0833
13737TIP3    H162702   3.985   4.380   2.293 -1.0524  0.7636  0.3070
13737TIP3    H262703   3.978   4.369   2.444  0.4162 -0.1275  0.3307
13738TIP3   OH262704   5.531   1.665  14.105  0.0493  0.1862 -0.3889
13738TIP3    H162705   5.501   1.615  14.029 -1.8345  1.7315 -0.7225
13738TIP3    H262706   5.624   1.641  14.114 -0.5404 -2.7378 -0.9705
13739TIP3   OH262707   5.861   1.731  13.019  0.0305 -0.3255  0.3505
13739TIP3    H162708   5.904   1.678  13.086  1.0603 -1.0144 -0.8010
13739TIP3    H262709   5.779   1.685  13.001 -0.7652  0.4489  1.8619
13740TIP3   OH262710   1.431   3.212   2.488 -0.0558  0.5307  0.1349
13740TIP3    H162711   1.457   3.277   2.423  0.0424 -0.1003 -0.4687
13740TIP3    H262712   1.380   3.261   2.552  0.5789  1.3286  0.0527
13741TIP3   OH262713   0.556   1.502   1.659 -0.3314 -0.1106 -0.4003
13741TIP3    H162714   0.536   1.414   1.692 -1.0197  0.7469  1.6665
13741TIP3    H262715   0.476   1.530   1.615 -0.4134 -0.2061 -0.3142
13742TIP3   OH262716   6.508   0.237  16.896 -0.3992 -0.2372  0.8182
13742TIP3    H162717   6.513   0.155  16.846  0.3705  0.9525 -1.1606
13742TIP3    H262718   6.564   0.222  16.971 -0.8706 -1.7861  0.9092
13743TIP3   OH262719   6.698   0.817   3.315  0.1627 -0.1822  0.2158
13743TIP3    H162720   6.617   0.851   3.351 -0.4375 -0.2501 -1.0070
13743TIP3    H262721   6.757   0.892   3.312 -0.0504 -0.0024  0.5795
13744TIP3   OH262722   6.195   3.066  13.587 -0.2600 -0.5120 -0.0125
13744TIP3    H162723   6.248   3.091  13.512  0.4165  2.0568  1.1993
13744TIP3    H262724   6.256   3.019  13.645 -0.3352 -0.9759 -0.3064
13745TIP3   OH262725   6.470   0.754  13.569  0.7469  0.2609  0.0559
13745TIP3    H162726   6.561   0.740  13.592  1.1633 -1.0224 -2.1104
13745TIP3    H262727   6.469   0.837  13.520  0.8753  0.0022 -0.3965
13746TIP3   OH262728   1.110   0.941  12.562  0.1421 -0.1965  0.2794
13746TIP3    H162729   1.198   0.947  12.599  0.2774 -0.7834  0.0541
13746TIP3    H262730   1.077   0.855  12.589  0.0158 -0.3887 -0.4512
13747TIP3   OH262731   1.675   3.908  15.790  0.0079  0.1584  1.1450
13747TIP3    H162732   1.620   3.862  15.853 -0.8763 -2.2000 -1.1747
13747TIP3    H262733   1.750   3.851  15.776 -0.3055  0.1223 -0.6272
13748TIP3   OH262734   6.064   3.784   4.508 -0.0872  0.5208  0.0577
13748TIP3    H162735   6.093   3.793   4.417  1.7841 -1.9220  0.3174
13748TIP3    H262736   6.110   3.854   4.555 -0.8400  1.6108 -0.7613
13749TIP3   OH262737   6.197   4.592   4.078 -0.2107  0.0745  0.6585
13749TIP3    H162738   6.187   4.529   4.006  0.7773  0.8753 -0.2007
13749TIP3    H262739   6.254   4.548   4.141  0.1585 -0.0475  0.2415
13750TIP3   OH262740   6.338   6.761  14.376  0.7082 -0.3641 -0.3918
13750TIP3    H162741   6.247   6.741  14.356  0.8868 -1.1245 -0.4729
13750TIP3    H262742   6.384   6.752  14.293  1.0964 -1.4483 -0.0811
13751TIP3   OH262743   0.059   1.885  14.947  0.3239  0.2208 -0.5335
13751TIP3    H162744   0.058   1.816  15.013 -2.7508  1.1660  0.6084
13751TIP3    H262745   0.067   1.839  14.864 -1.0059 -1.5261  0.2357
13752TIP3   OH262746   2.577   6.278  15.076  0.1618  0.3175  0.2097
13752TIP3    H162747   2.500   6.335  15.077 -0.4559 -0.5013  0.5362
13752TIP3    H262748   2.561   6.217  15.003  0.7547  0.4745 -0.0587
13753TIP3   OH262749   3.295   2.452   3.432  0.5405  0.5113 -0.7464
13753TIP3    H162750   3.234   2.389   3.394 -0.1156 -0.1258  1.2184
13753TIP3    H262751   3.251   2.537   3.422 -0.9294  0.0228  0.9615
13754TIP3   OH262752   2.743   5.154   6.051  0.1383  0.0774  0.2122
13754TIP3    H162753   2.660   5.187   6.086 -0.2810 -0.2831 -0.4412
13754TIP3    H262754   2.808   5.180   6.116 -0.4268  0.7304  0.5224
13755TIP3   OH262755   3.013   2.406   2.076  0.0553  0.2974  0.0676
13755TIP3    H162756   2.938   2.366   2.120 -0.9467  0.9635 -0.9375
13755TIP3    H262757   3.077   2.336   2.067 -0.0944 -0.0879  1.6763
13756TIP3   OH262758   2.872   3.788  16.071  0.0506 -0.0943  0.3913
13756TIP3    H162759   2.906   3.862  16.122  0.4198  0.5406 -0.7346
13756TIP3    H262760   2.946   3.763  16.015 -0.4939 -0.4838 -0.1540
13757TIP3   OH262761   4.329   2.112   2.698  0.1637 -0.3221 -0.0897
13757TIP3    H162762   4.233   2.105   2.697  0.0959  0.4766 -0.2021
13757TIP3    H262763   4.360   2.026   2.672 -0.5258 -0.6407  0.1154
13758TIP3   OH262764   5.098   5.182  14.179  0.2260 -0.0984  1.2255
13758TIP3    H162765   5.106   5.116  14.247  1.8503 -1.8065 -0.5095
13758TIP3    H262766   5.025   5.152  14.124 -1.0036  1.2128  2.0346
13759TIP3   OH262767   0.520   3.757   5.228 -0.6521 -0.5855 -0.0704
13759TIP3    H162768   0.457   3.798   5.288 -0.8005  0.7724 -1.1000
13759TIP3    H262769   0.589   3.823   5.217  0.6464 -1.7972  0.5124
13760TIP3   OH262770   0.262   4.774  12.005 -0.5618 -0.8722  0.1283
13760TIP3    H162771   0.177   4.777  11.962 -1.4656 -0.0459  1.8499
13760TIP3    H262772   0.323   4.808  11.940 -1.2318 -3.0033 -1.7200
13761TIP3   OH262773   1.606   6.354   1.794 -0.2066  0.7322 -0.1673
13761TIP3    H162774   1.569   6.306   1.720  0.5536  1.7603 -1.2389
13761TIP3    H262775   1.568   6.441   1.789 -0.0389  0.8620  0.5860
13762TIP3   OH262776   1.396   2.096   5.239 -0.5717  0.2370  0.4921
13762TIP3    H162777   1.439   2.086   5.324  1.7707 -0.0138 -0.6430
13762TIP3    H262778   1.354   2.012   5.223 -1.7722  0.5603  1.7287
13763TIP3   OH262779   4.786   2.273  11.352  0.0751 -0.0988 -0.1197
13763TIP3    H162780   4.876   2.256  11.323  0.6614 -0.2954  1.6950
13763TIP3    H262781   4.744   2.187  11.350  1.1480 -0.8134  2.8142
13764TIP3   OH262782   0.276   3.675  14.363  0.1460 -0.7757 -0.3322
13764TIP3    H162783   0.357   3.723  14.382  0.3462 -1.7766  1.6286
13764TIP3    H262784   0.304   3.600  14.311  0.6395 -1.5428  0.9940
13765TIP3   OH262785   3.665   5.871  12.654 -0.1945 -0.6658  0.1959
13765TIP3    H162786   3.678   5.792  12.705 -1.0421  0.1239  1.6974
13765TIP3    H262787   3.583   5.856  12.606  1.0386 -1.7509 -1.6807
13766TIP3   OH262788   3.286   6.705   0.392  0.8346 -0.2013  0.1010
13766TIP3    H162789   3.294   6.611   0.377  1.2206 -0.2826  0.7977
13766TIP3    H262790   3.232   6.712   0.470  0.9783  0.1544  0.1674
13767TIP3   OH262791   1.297   4.628  14.146 -0.0061  0.2875 -0.7111
13767TIP3    H162792   1.246   4.706  14.126  0.5077  0.5287 -1.0653
13767TIP3    H262793   1.251   4.557  14.101  0.4105  0.6255 -1.6830
13768TIP3   OH262794   2.627   5.186   4.643 -0.8907 -0.2846  0.2918
13768TIP3    H162795   2.676   5.238   4.707 -0.4286  0.1272 -0.3971
13768TIP3    H262796   2.535   5.196   4.670 -0.7418  0.2904  0.6017
13769TIP3   OH262797   6.660   3.950   5.340 -0.6595 -0.3229  0.3809
13769TIP3    H162798   6.707   3.998   5.408 -1.7509  0.6828  0.4434
13769TIP3    H262799   6.720   3.879   5.315  0.4859  0.3657  1.1122
13770TIP3   OH262800   4.257   1.860  11.073 -0.4342  0.4323  0.2651
13770TIP3    H162801   4.230   1.885  10.985 -0.0396  2.9320  0.7535
13770TIP3    H262802   4.353   1.863  11.071 -0.3413 -1.4460  0.3163
13771TIP3   OH262803   4.818   3.717   4.987  0.3201 -0.3976  0.1559
13771TIP3    H162804   4.850   3.688   4.901  1.8399  0.4253  0.4130
13771TIP3    H262805   4.758   3.647   5.015  3.6440 -3.2836  0.6718
13772TIP3   OH262806   3.589   6.436  11.298  0.0277  0.3839 -0.2793
13772TIP3    H162807   3.637   6.498  11.242  3.6651 -1.8189  0.0968
13772TIP3    H262808   3.637   6.436  11.381 -0.2983 -2.2751  0.0068
13773TIP3   OH262809   5.270   1.672  11.355 -0.1829 -0.5315  0.0114
13773TIP3    H162810   5.198   1.636  11.304  0.6548 -1.1156 -0.7981
13773TIP3    H262811   5.251   1.766  11.361 -1.6058 -0.8505  0.8514
13774TIP3   OH262812   6.025   4.824   5.792  0.1035  0.3099  0.0810
13774TIP3    H162813   5.948   4.881   5.789 -0.0172  0.2220  1.1712
13774TIP3    H262814   6.062   4.839   5.879  0.3830 -0.8804  0.1764
13775TIP3   OH262815   2.950   6.145  15.905 -0.0594 -0.1309 -0.3835
13775TIP3    H162816   3.006   6.116  15.977 -0.4227 -1.3497 -0.5709
13775TIP3    H262817   3.005   6.206  15.855  1.2449 -1.5538 -0.7585
13776TIP3   OH262818   4.128   0.105   1.897  0.0456 -0.3595  0.0462
13776TIP3    H162819   4.205   0.107   1.841 -1.0218  2.1632 -1.5091
13776TIP3    H262820   4.098   0.014   1.893  2.4517 -1.2302  0.1164
13777TIP3   OH262821   3.115   1.544  13.437  0.5085  0.1384 -0.0429
13777TIP3    H162822   3.075   1.541  13.524  0.8105  1.5295  0.1575
13777TIP3    H262823   3.197   1.495  13.447 -0.8581 -2.4121 -0.3670
13778TIP3   OH262824   6.269   1.744  16.307  0.6268 -0.0855 -0.3937
13778TIP3    H162825   6.361   1.739  16.334  0.5267  0.6872  0.1377
13778TIP3    H262826   6.222   1.769  16.386  0.0766  0.3998 -0.8603
13779TIP3   OH262827   3.556   2.190   5.139 -0.1609  0.6355  0.2407
13779TIP3    H162828   3.485   2.243   5.175 -0.4179  1.7491 -1.7187
13779TIP3    H262829   3.590   2.243   5.066  2.0515 -0.3019  0.5206
13780TIP3   OH262830   1.191   4.986  11.289 -0.0269  0.0294  0.3766
13780TIP3    H162831   1.219   5.075  11.269  1.6100 -0.5442  0.0292
13780TIP3    H262832   1.223   4.933  11.216 -1.8662 -0.7248  0.0538
13781TIP3   OH262833   5.004   3.638   6.226 -0.2027 -0.5122 -0.0676
13781TIP3    H162834   5.005   3.542   6.229  0.8850 -0.6200 -2.0097
13781TIP3    H262835   5.058   3.665   6.300  0.5551 -1.4615 -0.2591
13782TIP3   OH262836   1.861   2.445  17.187 -0.2006  0.2802  0.2457
13782TIP3    H162837   1.920   2.489  17.126  0.8072 -1.1862  0.1049
13782TIP3    H262838   1.801   2.396  17.132  0.3688 -0.6112  0.3909
13783TIP3   OH262839   5.400   2.103   6.460  0.4927  0.0701  0.3851
13783TIP3    H162840   5.360   2.164   6.398  1.1094 -0.2266 -0.3181
13783TIP3    H262841   5.328   2.048   6.490  0.4400 -0.8686 -1.3360
13784TIP3   OH262842   3.915   0.193   6.605  0.2063  0.3066  0.0996
13784TIP3    H162843   3.988   0.223   6.659  0.4591 -2.5092  1.5222
13784TIP3    H262844   3.879   0.119   6.654 -1.5517 -0.4266 -2.1540
13785TIP3   OH262845   0.548   1.003  11.009 -0.0477 -0.2499  0.7739
13785TIP3    H162846   0.579   1.087  10.974 -1.9173 -0.3092 -1.2414
13785TIP3    H262847   0.603   0.937  10.967  0.4090 -0.1268  1.1690
13786TIP3   OH262848   4.898   5.929   3.674 -0.2906  0.1591  0.1259
13786TIP3    H162849   4.879   6.009   3.723 -0.2082  0.6217 -0.5937
13786TIP3    H262850   4.967   5.953   3.613 -2.1724  0.3538 -2.1053
13787TIP3   OH262851   6.559   0.112   2.087 -0.1795  0.1267 -0.0765
13787TIP3    H162852   6.533   0.202   2.070 -0.5876 -0.2167 -1.3656
13787TIP3    H262853   6.478   0.061   2.080  0.3005 -0.5409 -0.9888
13788TIP3   OH262854   1.955   6.389  12.532 -0.0427  0.2189 -0.4666
13788TIP3    H162855   1.957   6.405  12.626 -2.6022  0.6380 -0.4203
13788TIP3    H262856   2.037   6.427  12.499  0.6400  0.5545  1.4928
13789TIP3   OH262857   2.369   4.893   1.728  0.5176 -0.1441 -0.3610
13789TIP3    H162858   2.327   4.896   1.642  0.7562 -1.4940 -0.5620
13789TIP3    H262859   2.300   4.865   1.788  0.1848  1.4486  0.0263
13790TIP3   OH262860   5.375   1.894   5.603  0.4491 -0.6107 -0.4692
13790TIP3    H162861   5.453   1.896   5.658 -0.1068 -0.1141  0.3238
13790TIP3    H262862   5.405   1.857   5.520  1.5503 -0.2884 -0.2277
13791TIP3   OH262863   3.908   2.268  11.427 -0.0424 -0.0144 -0.0524
13791TIP3    H162864   3.996   2.231  11.438 -0.2596 -0.9977 -1.4613
13791TIP3    H262865   3.849   2.194  11.438 -0.5181  0.0072 -2.1197
13792TIP3   OH262866   4.504   3.661   1.597  0.0199 -0.3869 -0.3808
13792TIP3    H162867   4.471   3.571   1.600 -2.0292  0.3319  0.9716
13792TIP3    H262868   4.506   3.683   1.504  0.5444 -1.8198 -0.7248
13793TIP3   OH262869   6.635   2.269  13.981  0.1971  0.3214  0.0716
13793TIP3    H162870   6.614   2.227  14.064  0.6513  0.0776  0.0650
13793TIP3    H262871   6.702   2.334  14.002  0.6572 -0.0673 -0.1768
13794TIP3   OH262872   6.160   5.759   1.890 -0.3044 -0.2041 -0.0664
13794TIP3    H162873   6.155   5.727   1.800 -1.6116  2.1021 -0.9072
13794TIP3    H262874   6.251   5.787   1.901 -0.5920  1.4659 -1.4874
13795TIP3   OH262875   2.588   1.216  16.858 -0.2105  0.8311 -0.2844
13795TIP3    H162876   2.543   1.132  16.868 -0.2959  0.9997  0.8142
13795TIP3    H262877   2.679   1.196  16.878 -0.2617  1.0313  0.1534
13796TIP3   OH262878   0.963   3.669   4.373  0.2119  0.3171  0.3504
13796TIP3    H162879   0.942   3.576   4.367  0.0473  0.1391  2.7451
13796TIP3    H262880   0.901   3.711   4.313  0.9197 -1.1375 -1.5133
13797TIP3   OH262881   3.178   1.394  15.155 -0.5551 -0.0654 -0.2466
13797TIP3    H162882   3.257   1.445  15.136 -0.0900 -0.9596 -0.7865
13797TIP3    H262883   3.134   1.385  15.070 -0.5902 -0.6316 -0.1671
13798TIP3   OH262884   5.662   2.842   5.644  0.2633  0.4410 -0.6975
13798TIP3    H162885   5.709   2.877   5.720 -0.2290 -0.1979 -0.0872
13798TIP3    H262886   5.591   2.904   5.630 -1.7991 -1.2257  1.6038
13799TIP3   OH262887   2.034   2.651  13.535  0.6158  1.2292  0.1512
13799TIP3    H162888   1.975   2.691  13.598  1.0063  0.0735  1.3019
13799TIP3    H262889   2.060   2.723  13.477  0.2370  2.3183  1.2937
13800TIP3   OH262890   1.616   5.771   5.958 -0.6646  0.6756  0.6104
13800TIP3    H162891   1.666   5.837   6.006  0.0824 -0.0236  0.8207
13800TIP3    H262892   1.588   5.708   6.025  1.6356 -1.1099  0.0389
13801TIP3   OH262893   2.896   3.699  12.009  0.3443 -0.0532  0.6595
13801TIP3    H162894   2.942   3.765  11.955 -0.8187  0.3533  0.1369
13801TIP3    H262895   2.806   3.732  12.015 -0.3056 -1.6936  0.2338
13802TIP3   OH262896   1.083   1.101  12.351  0.4709 -0.5170 -0.0732
13802TIP3    H162897   1.056   1.028  12.407 -1.7220  0.6794  0.5325
13802TIP3    H262898   1.167   1.072  12.314 -1.0170 -4.0052 -1.1317
13803TIP3   OH262899   4.646   0.064  13.450  0.3759 -0.3710  0.5910
13803TIP3    H162900   4.597  -0.005  13.496 -0.8037 -0.5750 -0.9076
13803TIP3    H262901   4.599   0.145  13.471  0.1659 -0.3925  0.2205
13804TIP3   OH262902   5.779   6.549  13.669 -0.0098 -0.0934 -0.2995
13804TIP3    H162903   5.828   6.631  13.663  0.5683 -0.3505  0.6536
13804TIP3    H262904   5.710   6.566  13.733  0.0966 -0.3290 -0.1164
13805TIP3   OH262905   0.542   6.302  11.957 -0.0274 -0.4066 -0.3107
13805TIP3    H162906   0.563   6.396  11.963 -0.7800 -0.1846 -0.9903
13805TIP3    H262907   0.470   6.298  11.894  0.2931 -1.4940 -0.6154
13806TIP3   OH262908   4.891   6.579   2.237 -0.9129  0.4355  0.1003
13806TIP3    H162909   4.949   6.608   2.307 -0.7494 -0.7440  0.4892
13806TIP3    H262910   4.897   6.483   2.240 -1.7380  0.3396 -0.8258
13807TIP3   OH262911   0.663   0.480   4.626 -0.2752 -0.1728  0.2455
13807TIP3    H162912   0.597   0.410   4.633 -1.0051  0.6377  1.9477
13807TIP3    H262913   0.739   0.446   4.672  0.1332 -0.6597 -0.7548
13808TIP3   OH262914   5.266   1.871   0.832 -0.2439  0.0285  0.0821
13808TIP3    H162915   5.259   1.898   0.741 -0.1752 -1.7708 -0.4854
13808TIP3    H262916   5.286   1.778   0.828 -0.2174 -0.0777  1.9450
13809TIP3   OH262917   5.914   5.620   3.173 -0.8867 -0.0612 -0.0428
13809TIP3    H162918   5.876   5.552   3.116 -3.6412  0.7730  0.6668
13809TIP3    H262919   5.884   5.597   3.261  0.7497  0.4019  0.6727
13810TIP3   OH262920   1.994   6.225   1.614  0.2444  0.9397 -0.1254
13810TIP3    H162921   2.087   6.215   1.592  0.3611  2.7201 -0.5611
13810TIP3    H262922   1.957   6.275   1.541 -1.0135  0.4556  0.1632
13811TIP3   OH262923   1.325   0.101   2.983  0.3553  0.6627 -0.3078
13811TIP3    H162924   1.257   0.131   2.923 -0.8382 -1.4068 -0.0918
13811TIP3    H262925   1.366   0.028   2.937 -0.0498 -0.4369  1.0154
13812TIP3   OH262926   1.997   6.077  14.750 -0.1119 -0.2658  0.3900
13812TIP3    H162927   1.967   6.047  14.664  0.4096  0.4346 -0.0517
13812TIP3    H262928   2.010   5.997  14.800  2.5487 -0.9551 -1.1897
13813TIP3   OH262929   3.116   1.354   4.632  0.2651 -0.1324  0.7587
13813TIP3    H162930   3.096   1.365   4.539  2.3275 -0.1234  0.2700
13813TIP3    H262931   3.126   1.260   4.644 -0.2905 -0.1571  1.0394
13814TIP3   OH262932   1.587   4.490   3.168 -0.3940  0.1901 -0.1764
13814TIP3    H162933   1.577   4.528   3.256  0.5043  1.1082 -0.4521
13814TIP3    H262934   1.681   4.477   3.158 -0.5222 -0.2498 -0.8681
13815TIP3   OH262935   0.446   0.865  11.553 -0.6987  0.3180  0.3402
13815TIP3    H162936   0.358   0.829  11.545 -1.3671  2.1164 -1.5770
13815TIP3    H262937   0.479   0.867  11.463  1.1746  0.0130  0.9766
13816TIP3   OH262938   1.152   1.311   3.696  0.0641  0.2202  0.0311
13816TIP3    H162939   1.142   1.217   3.714 -0.0759 -0.3132 -2.4261
13816TIP3    H262940   1.064   1.339   3.670  0.5993  0.4148 -1.6530
13817TIP3   OH262941   0.081   0.076  12.300  0.5754  0.2076 -0.0184
13817TIP3    H162942   0.176   0.084  12.312  0.5711  0.5517 -0.1883
13817TIP3    H262943   0.044   0.097  12.385  0.6475  0.2398  0.0048
13818TIP3   OH262944   0.702   4.944   1.466  0.1150 -0.4909 -0.2650
13818TIP3    H162945   0.651   4.973   1.390 -0.2318  0.1222  0.1903
13818TIP3    H262946   0.654   4.979   1.541  0.3635 -1.2307  0.2448
13819TIP3   OH262947   5.354   3.751  15.681  0.3997 -0.7429 -0.1794
13819TIP3    H162948   5.291   3.727  15.749 -0.3579  0.6192 -0.3706
13819TIP3    H262949   5.433   3.776  15.729 -0.5960  1.6741  0.3677
13820TIP3   OH262950   4.121   2.956  17.122 -0.3065  0.7297 -1.0050
13820TIP3    H162951   4.211   2.977  17.150 -0.3629  0.0919 -0.3211
13820TIP3    H262952   4.078   3.041  17.117 -0.4500  0.8742  1.4615
13821TIP3   OH262953   3.142   2.756   2.633 -0.1578 -0.1837  0.5427
13821TIP3    H162954   3.162   2.664   2.652  0.0842 -0.4979 -1.0654
13821TIP3    H262955   3.141   2.798   2.719  2.2957 -1.1819  1.1586
13822TIP3   OH262956   5.047   1.441   2.249  0.0463 -0.2884 -0.2060
13822TIP3    H162957   5.100   1.427   2.170  0.7855  0.5211  0.1309
13822TIP3    H262958   5.045   1.355   2.292 -2.4665 -1.4100 -2.3268
13823TIP3   OH262959   3.199   0.210   2.650 -0.4140 -0.1981 -1.0465
13823TIP3    H162960   3.223   0.118   2.639  1.0883  0.0670 -0.3328
13823TIP3    H262961   3.115   0.208   2.696 -0.6964 -1.2126 -1.5975
13824TIP3   OH262962   4.087   5.430  11.787  0.1587 -0.3597  0.3243
13824TIP3    H162963   4.146   5.398  11.855  0.7937  0.8918  0.3987
13824TIP3    H262964   4.016   5.366  11.784 -0.3405 -0.0135  2.7687
13825TIP3   OH262965   1.130   3.927  14.826 -0.1771  0.2136 -0.7901
13825TIP3    H162966   1.059   3.927  14.762 -0.8768 -1.0859 -0.0709
13825TIP3    H262967   1.112   3.851  14.881 -0.6134  2.2431  2.0723
13826TIP3   OH262968   5.564   3.242  13.894  0.0414  0.0343 -0.6831
13826TIP3    H162969   5.487   3.240  13.837  0.1771  0.8465 -0.9047
13826TIP3    H262970   5.621   3.308  13.855 -0.2762  1.3150  0.9229
13827TIP3   OH262971   1.260   5.212   3.034  0.5909 -0.0955 -0.0169
13827TIP3    H162972   1.228   5.128   3.068  1.1366 -0.1031  0.4905
13827TIP3    H262973   1.271   5.197   2.940  2.6716 -1.2649  0.3532
13828TIP3   OH262974   3.921   6.805   2.996  0.4630 -0.4320  0.6614
13828TIP3    H162975   3.947   6.755   3.073  0.1146 -1.9951 -0.1805
13828TIP3    H262976   3.827   6.820   3.007  0.5961  0.1584  0.9827
13829TIP3   OH262977   2.121   5.789  14.355 -0.3063 -0.1026 -0.0901
13829TIP3    H162978   2.156   5.719  14.300  0.6751 -0.2055  0.6322
13829TIP3    H262979   2.097   5.746  14.436 -0.3995  0.2777  0.0863
13830TIP3   OH262980   0.423   2.560   0.755 -1.1171 -0.0504 -0.3357
13830TIP3    H162981   0.495   2.583   0.697 -0.9609 -0.8111 -0.4579
13830TIP3    H262982   0.449   2.477   0.794 -0.3257  1.3706  2.3596
13831TIP3   OH262983   1.985   3.984  10.486  0.6835  0.2396 -0.1176
13831TIP3    H162984   2.005   3.895  10.517  1.1474  0.6778  0.8905
13831TIP3    H262985   2.070   4.020  10.462  0.3493 -0.0256 -1.7940
13832TIP3   OH262986   6.125   3.701  12.069  0.1033 -0.3405 -0.1101
13832TIP3    H162987   6.101   3.741  12.152 -0.4837 -1.7055  0.3999
13832TIP3    H262988   6.053   3.724  12.010 -1.3673 -2.3700  0.7625
13833TIP3   OH262989   4.021   4.491   1.763  0.4349  0.4192 -0.9453
13833TIP3    H162990   4.110   4.509   1.794 -0.5369  0.4479  2.0889
13833TIP3    H262991   4.010   4.397   1.772 -0.8390  0.7554  1.8765
13834TIP3   OH262992   6.089   6.272  14.679  0.0285 -0.4206  0.0855
13834TIP3    H162993   6.062   6.207  14.615  1.7878 -0.5900 -0.5209
13834TIP3    H262994   6.151   6.328  14.633  0.8239 -0.1394  1.4404
13835TIP3   OH262995   3.191   3.965  11.595 -0.1910  0.8542 -0.6330
13835TIP3    H162996   3.095   3.961  11.601 -0.0749 -0.9758  1.5179
13835TIP3    H262997   3.220   3.880  11.627  2.2159  2.2084  1.1126
13836TIP3   OH262998   0.159   5.215   1.141 -0.3398 -0.2832 -0.1840
13836TIP3    H162999   0.183   5.160   1.215  0.3428  0.2885  0.0362
13836TIP3    H263000   0.156   5.156   1.066  0.8397 -0.5538 -0.0372
13837TIP3   OH263001   5.702   4.805  12.792 -0.0196 -0.2684 -0.1742
13837TIP3    H163002   5.773   4.750  12.825  1.7129  2.2730  0.6823
13837TIP3    H263003   5.638   4.806  12.864  0.1002 -0.8519 -0.0543
13838TIP3   OH263004   4.053   3.344  11.401  0.1163  0.4681 -0.7924
13838TIP3    H163005   4.123   3.358  11.338 -1.4152 -1.9418 -3.2702
13838TIP3    H263006   3.989   3.412  11.381  1.2868  2.1871  0.9580
13839TIP3   OH263007   5.232   0.166   0.133 -0.3027 -0.1070  0.5970
13839TIP3    H163008   5.235   0.133   0.223 -0.7296  0.7659  0.9411
13839TIP3    H263009   5.139   0.165   0.111 -0.4129  1.4822  0.8674
13840TIP3   OH263010   3.224   1.440   1.115 -0.5887  0.2285 -0.1843
13840TIP3    H163011   3.181   1.517   1.151 -1.5235 -0.2423 -0.2575
13840TIP3    H263012   3.205   1.370   1.178  1.0636  0.2397  0.3910
13841TIP3   OH263013   6.123   6.288  12.960 -0.1152  0.1706  0.1224
13841TIP3    H163014   6.095   6.212  12.909  3.0985 -0.6358 -0.6703
13841TIP3    H263015   6.104   6.363  12.903 -1.5970 -0.1695  0.1246
13842TIP3   OH263016   4.536   1.774  11.158  0.4430 -0.1891  0.8262
13842TIP3    H163017   4.553   1.834  11.086  2.7424 -1.5804  0.0968
13842TIP3    H263018   4.584   1.811  11.232  0.8386 -0.4588  0.7102
13843TIP3   OH263019   6.134   2.550   5.629  0.3401  0.4261  0.1120
13843TIP3    H163020   6.058   2.525   5.576  1.0055 -1.2096 -0.1265
13843TIP3    H263021   6.194   2.476   5.623  1.7098  1.4149  0.8051
13844TIP3   OH263022   1.921   3.682   4.450 -0.8425  0.1749 -0.3815
13844TIP3    H163023   1.936   3.702   4.543  1.4564 -2.3596 -0.0936
13844TIP3    H263024   1.826   3.671   4.444 -1.0073 -0.1195  1.8148
13845TIP3   OH263025   3.414   3.823   2.875 -0.1448  0.0131 -0.3615
13845TIP3    H163026   3.494   3.873   2.894 -0.1389  0.4920 -1.5573
13845TIP3    H263027   3.427   3.790   2.785 -0.5699 -1.3290  0.0420
13846TIP3   OH263028   0.437   5.130   0.328 -0.0740 -0.0538 -0.0879
13846TIP3    H163029   0.447   5.174   0.244 -2.7066  0.3286 -0.2781
13846TIP3    H263030   0.419   5.039   0.306  0.1282 -0.1481  0.1242
13847TIP3   OH263031   2.528   0.063   5.302 -0.4517  0.2828  0.2395
13847TIP3    H163032   2.470  -0.007   5.331 -0.5208 -0.2020 -1.0089
13847TIP3    H263033   2.610   0.020   5.280 -0.6888  0.4873 -1.1165
13848TIP3   OH263034   3.704   1.422   3.527 -0.5741 -0.0381 -0.2522
13848TIP3    H163035   3.648   1.453   3.456 -1.4042  1.1089  0.8491
13848TIP3    H263036   3.683   1.480   3.600  1.7739  0.1801  0.3211
13849TIP3   OH263037   0.648   4.563   2.975  0.5718 -0.3294 -0.1053
13849TIP3    H163038   0.739   4.536   2.988  0.1721 -2.0169 -0.5423
13849TIP3    H263039   0.604   4.541   3.057  0.3375 -0.5460 -0.2870
13850TIP3   OH263040   4.555   1.172   1.890  0.0968  0.4286  0.5551
13850TIP3    H163041   4.463   1.181   1.866 -0.0611  0.3703  1.1313
13850TIP3    H263042   4.596   1.131   1.813 -0.3066  0.6763  0.2044
13851TIP3   OH263043   1.780   0.168   5.077  0.1304 -0.1465 -0.0213
13851TIP3    H163044   1.689   0.140   5.085 -0.0512  0.6035  0.7263
13851TIP3    H263045   1.822   0.100   5.024 -0.9081 -0.3853 -0.5542
13852TIP3   OH263046   1.870   1.663   5.513 -0.0515  0.4971 -0.4598
13852TIP3    H163047   1.876   1.758   5.523  1.0714  0.3243  0.6911
13852TIP3    H263048   1.813   1.635   5.584  1.3196  0.1084  0.5131
13853TIP3   OH263049   2.018   4.277  16.000 -0.2951  0.5187 -0.5229
13853TIP3    H163050   1.978   4.203  15.954 -0.1531 -1.2016  1.9135
13853TIP3    H263051   1.950   4.344  16.002 -2.1733 -1.2986  1.1022
13854TIP3   OH263052   0.121   3.329  11.496 -0.1956 -0.1658  0.1555
13854TIP3    H163053   0.169   3.347  11.415 -1.7744 -0.9261 -1.0057
13854TIP3    H263054   0.141   3.237  11.516 -0.6522 -0.3031  0.0050
13855TIP3   OH263055   6.292   2.327   5.531 -0.3592 -0.0224  0.1465
13855TIP3    H163056   6.223   2.270   5.565  0.4035 -0.9531  0.1923
13855TIP3    H263057   6.273   2.334   5.438  1.1600 -2.8580 -0.5062
13856TIP3   OH263058   4.507   2.619  12.885  0.0596 -0.2904 -0.0549
13856TIP3    H163059   4.555   2.576  12.955  0.9914 -0.9966 -1.1047
13856TIP3    H263060   4.565   2.687  12.853 -0.5376  0.3230  0.1310
13857TIP3   OH263061   2.131   0.924  15.588 -0.3508  0.2233  0.0871
13857TIP3    H163062   2.088   0.999  15.546  0.0127  0.0742 -0.5631
13857TIP3    H263063   2.089   0.848  15.548  0.0314  0.0791 -0.0356
13858TIP3   OH263064   0.733   6.817  14.365  0.0217 -0.3594  0.2762
13858TIP3    H163065   0.650   6.783  14.331 -0.4850 -0.7178  1.8057
13858TIP3    H263066   0.736   6.907  14.332 -0.5591 -0.6029 -0.4938
13859TIP3   OH263067   1.641   2.695  13.917  0.5654  0.4397 -0.4420
13859TIP3    H163068   1.575   2.664  13.978  0.8471  1.5142  0.4314
13859TIP3    H263069   1.612   2.782  13.891  0.7252  0.2087 -1.4438
13860TIP3   OH263070   2.649   5.737   3.211 -0.6792 -0.3174  0.0076
13860TIP3    H163071   2.744   5.741   3.204 -0.4850 -1.4303  1.5156
13860TIP3    H263072   2.617   5.812   3.160  1.0990  1.7691  1.7995
13861TIP3   OH263073   3.427   1.525   3.490 -0.1354 -0.2318 -0.2962
13861TIP3    H163074   3.345   1.571   3.505 -0.2885 -0.4242 -0.5386
13861TIP3    H263075   3.404   1.452   3.433  0.0600 -0.7569  0.2810
13862TIP3   OH263076   4.596   6.098   3.917  0.5519  0.4388  0.2481
13862TIP3    H163077   4.616   6.007   3.939  0.9634  0.3189 -0.5798
13862TIP3    H263078   4.679   6.136   3.890  0.8154  1.6881  2.5671
13863TIP3   OH263079   4.100   5.114  17.009  0.1699 -0.4507 -0.0161
13863TIP3    H163080   4.105   5.020  16.990 -0.0161 -0.1713 -1.6120
13863TIP3    H263081   4.188   5.138  17.035  0.4695 -0.8905 -0.5866
13864TIP3   OH263082   4.902   5.457  15.760 -0.0834 -0.2350 -0.6528
13864TIP3    H163083   4.992   5.441  15.733 -0.2177  0.2239 -1.4075
13864TIP3    H263084   4.865   5.510  15.689 -1.9973 -3.2978 -2.1276
13865TIP3   OH263085   0.892   0.182  13.367  0.4166 -0.1232  0.2059
13865TIP3    H163086   0.892   0.278  13.361  2.3520 -0.0194  1.1551
13865TIP3    H263087   0.807   0.161  13.406 -0.4975  1.0998 -1.0163
13866TIP3   OH263088   5.644   3.629  10.994  0.0847  0.4260  0.0397
13866TIP3    H163089   5.622   3.662  10.906 -0.2898  0.7009  0.2353
13866TIP3    H263090   5.733   3.594  10.985  0.1863  0.7817 -0.3613
13867TIP3   OH263091   4.752   2.510   1.925  0.0834  0.4891 -0.1303
13867TIP3    H163092   4.838   2.531   1.889 -0.3336  2.5439 -0.0618
13867TIP3    H263093   4.750   2.414   1.928  2.5789  0.3749  0.4236
13868TIP3   OH263094   6.303   3.907   6.379  0.2746 -0.2484  0.5198
13868TIP3    H163095   6.368   3.943   6.318  1.3358 -2.9158 -0.0751
13868TIP3    H263096   6.247   3.981   6.402  1.7046  1.4983 -1.3198
13869TIP3   OH263097   4.827   1.490   4.931 -0.1087 -0.3099 -0.3814
13869TIP3    H163098   4.901   1.472   4.874 -0.0843 -2.1146  0.1668
13869TIP3    H263099   4.810   1.584   4.920  2.6707  0.3136 -0.0019
13870TIP3   OH263100   0.156   2.987   4.015 -0.1001 -0.1648  0.9391
13870TIP3    H163101   0.196   2.986   4.102  0.0384  0.7181  0.8987
13870TIP3    H263102   0.221   2.946   3.958  0.2080  0.1001  1.0968
13871TIP3   OH263103   2.907   0.184  10.880 -0.0414  0.1518  0.3905
13871TIP3    H163104   2.856   0.128  10.821  0.3332  0.5906 -0.3545
13871TIP3    H263105   2.884   0.152  10.967  0.8016 -1.7305 -0.0259
13872TIP3   OH263106   3.694   2.379   6.638 -0.5590 -0.2466 -0.3667
13872TIP3    H163107   3.781   2.387   6.597 -0.7814  1.5305 -0.5574
13872TIP3    H263108   3.687   2.286   6.659  1.4136 -0.4375 -0.3121
13873TIP3   OH263109   6.622   5.268   4.008  0.6688  0.2629 -0.1566
13873TIP3    H163110   6.689   5.271   3.940  0.6943 -0.5997 -0.1767
13873TIP3    H263111   6.559   5.204   3.976  0.1623  0.5886  0.1715
13874TIP3   OH263112   4.018   5.470  15.030 -0.1405  0.0777  0.0900
13874TIP3    H163113   4.049   5.459  14.940 -0.3754 -1.5386  0.1699
13874TIP3    H263114   3.941   5.526  15.023 -1.1403 -1.3699 -0.9489
13875TIP3   OH263115   1.619   5.149  11.752 -0.3682 -0.6199  0.2334
13875TIP3    H163116   1.602   5.132  11.659  0.1974 -0.2905  0.0621
13875TIP3    H263117   1.603   5.243  11.762 -0.2643 -0.6227  0.4294
13876TIP3   OH263118   4.975   6.207   5.501 -0.1831  0.4892 -0.4498
13876TIP3    H163119   4.928   6.287   5.523 -0.5568  0.4368 -1.0262
13876TIP3    H263120   5.029   6.189   5.577 -0.5793  0.9357 -0.0567
13877TIP3   OH263121   0.941   4.927  15.475  0.5466 -0.6510 -0.3474
13877TIP3    H163122   0.928   4.932  15.569  1.3730 -0.5106 -0.2367
13877TIP3    H263123   1.009   4.991  15.456 -0.3246  0.0695 -1.1883
13878TIP3   OH263124   5.098   2.585  16.134  0.5059 -0.3432 -0.2408
13878TIP3    H163125   5.019   2.533  16.118  0.1090  0.3374 -0.5556
13878TIP3    H263126   5.149   2.579  16.053  0.4187 -0.1816 -0.3094
13879TIP3   OH263127   6.474   6.590   5.987 -0.2598  0.1850 -0.9559
13879TIP3    H163128   6.407   6.659   5.982  1.2098  1.6197 -2.1140
13879TIP3    H263129   6.522   6.610   6.067 -0.7613 -0.4075 -0.5055
13880TIP3   OH263130   0.296   3.593   0.075 -0.3544  0.4354  0.0907
13880TIP3    H163131   0.208   3.631   0.076 -0.7302 -0.3136 -1.6635
13880TIP3    H263132   0.332   3.618  -0.010 -0.0029 -1.7218 -0.4381
13881TIP3   OH263133   2.256   0.228   5.331  0.1381 -0.5377 -0.3123
13881TIP3    H163134   2.333   0.283   5.348 -0.5283  0.1113  0.7485
13881TIP3    H263135   2.256   0.165   5.402 -0.6275 -0.1545  0.0422
13882TIP3   OH263136   2.785   3.417  13.874 -0.9084 -0.0413  0.5302
13882TIP3    H163137   2.782   3.368  13.956 -2.6598 -0.1976  0.3925
13882TIP3    H263138   2.858   3.478  13.886  0.3768 -1.6478  1.2650
13883TIP3   OH263139   1.920   0.925  13.112 -0.0870  0.8140 -0.2259
13883TIP3    H163140   1.865   0.910  13.035 -0.0887  0.7043 -0.2029
13883TIP3    H263141   2.004   0.953  13.076  0.2498 -0.2754 -0.3038
13884TIP3   OH263142   1.226   0.293   5.106  0.5402 -0.6418 -0.1033
13884TIP3    H163143   1.156   0.263   5.048  0.5123  0.1131 -0.4765
13884TIP3    H263144   1.181   0.314   5.188  0.1158  1.0007 -0.7267
13885TIP3   OH263145   3.504   2.177   0.285 -0.2273  0.3535 -0.3722
13885TIP3    H163146   3.586   2.226   0.290  0.7836 -1.3155  3.7988
13885TIP3    H263147   3.445   2.221   0.347 -1.1244 -0.6871 -0.4475
13886TIP3   OH263148   0.926   5.540  15.968 -0.1997  0.5309  0.9034
13886TIP3    H163149   0.849   5.596  15.965 -0.5297  0.1223  1.5083
13886TIP3    H263150   0.988   5.588  16.024  0.1614  1.0639  0.0606
13887TIP3   OH263151   1.415   5.037   4.825  0.2825  0.2741 -0.1202
13887TIP3    H163152   1.319   5.040   4.832  0.2631 -1.1493  0.5843
13887TIP3    H263153   1.433   4.957   4.775  1.1138  0.2739  0.1748
13888TIP3   OH263154   5.036   4.523   0.934  0.4904  0.2928  0.2426
13888TIP3    H163155   4.950   4.552   0.903 -0.3979 -1.0831  1.2896
13888TIP3    H263156   5.075   4.478   0.859  0.8213  1.8957 -0.5944
13889TIP3   OH263157   4.483   1.755  14.461  0.4802 -0.1850 -0.2779
13889TIP3    H163158   4.482   1.729  14.369  1.5374  1.8632 -0.9114
13889TIP3    H263159   4.573   1.782  14.478  0.3508 -0.6848  1.4370
13890TIP3   OH263160   4.667   3.390   3.409  0.1274 -0.0587 -0.4346
13890TIP3    H163161   4.675   3.299   3.383 -1.5839 -0.0695 -1.0762
13890TIP3    H263162   4.757   3.423   3.410  0.6598 -1.3764 -1.5230
13891TIP3   OH263163   3.925   5.709   2.503 -0.3927  0.5175  0.2071
13891TIP3    H163164   4.000   5.753   2.542 -1.6251  2.3213  0.6679
13891TIP3    H263165   3.963   5.648   2.440  1.5701 -0.7765  2.4680
13892TIP3   OH263166   3.432   0.910  12.743 -0.4702 -0.1697  0.5181
13892TIP3    H163167   3.476   0.834  12.704  0.0676  0.0402  0.7242
13892TIP3    H263168   3.359   0.928  12.683  1.5028  1.3981 -1.5570
13893TIP3   OH263169   5.156   5.137   2.830  0.2850 -0.4253 -0.1273
13893TIP3    H163170   5.174   5.192   2.906  0.0105  0.9670 -1.0253
13893TIP3    H263171   5.240   5.098   2.808  0.2271 -1.3964  1.2854
13894TIP3   OH263172   5.459   4.596   2.251 -0.4650  0.1812 -0.7589
13894TIP3    H163173   5.398   4.660   2.289 -0.0226  1.6843 -2.4470
13894TIP3    H263174   5.490   4.638   2.170  2.5914 -0.6485 -0.1262
13895TIP3   OH263175   4.457   4.888  11.186 -0.2376  0.0401  0.1934
13895TIP3    H163176   4.491   4.886  11.096 -1.0743  0.3210 -0.1414
13895TIP3    H263177   4.513   4.827  11.234  0.4726  0.1906 -0.4276
13896TIP3   OH263178   3.681   4.275   1.574  0.3189 -0.0131 -0.2511
13896TIP3    H163179   3.608   4.331   1.548  1.2665  1.5116  0.2438
13896TIP3    H263180   3.753   4.336   1.590  1.1508 -1.3182  1.1625
13897TIP3   OH263181   2.376   5.423  15.663 -0.1580 -0.0148  0.2941
13897TIP3    H163182   2.391   5.443  15.571 -1.0590 -0.3632  0.0686
13897TIP3    H263183   2.350   5.331  15.665  0.8154 -0.2955  1.0048
13898TIP3   OH263184   2.236   4.792   4.320  0.0123  0.3703  0.6663
13898TIP3    H163185   2.246   4.699   4.337  1.1611  0.5543  1.1062
13898TIP3    H263186   2.299   4.811   4.250 -0.6407  0.7061  0.1532
13899TIP3   OH263187   6.156   5.686   1.607 -0.0368 -0.1679  0.3209
13899TIP3    H163188   6.224   5.653   1.547 -0.1589  1.0219 -0.5027
13899TIP3    H263189   6.076   5.643   1.577  0.0491 -0.2240  0.1681
13900TIP3   OH263190   4.632   4.004  16.967  0.1289  0.1945 -0.1314
13900TIP3    H163191   4.626   4.097  16.944 -0.1961  0.5801  1.3845
13900TIP3    H263192   4.638   4.004  17.063 -0.7139 -1.3896 -0.0510
13901TIP3   OH263193   2.707   4.864   3.401  0.2754  0.0271 -0.3201
13901TIP3    H163194   2.703   4.947   3.449  0.4772 -0.1352 -0.0208
13901TIP3    H263195   2.783   4.873   3.344 -1.1200  1.0392 -2.1529
13902TIP3   OH263196   0.833   3.099   1.785  0.5491 -0.3374 -0.0629
13902TIP3    H163197   0.863   3.008   1.776  0.0190 -0.4978 -0.2162
13902TIP3    H263198   0.906   3.151   1.750  1.5756 -0.6051  1.5553
13903TIP3   OH263199   4.082   5.325   5.825  0.2866 -0.5470 -0.0189
13903TIP3    H163200   4.078   5.420   5.818  1.4183 -0.4676  0.3480
13903TIP3    H263201   4.139   5.297   5.754 -0.1692 -0.9738 -0.2263
13904TIP3   OH263202   0.276   2.876  13.018  0.1448 -0.5057  0.6253
13904TIP3    H163203   0.335   2.947  12.992 -0.9616  0.4172  0.5333
13904TIP3    H263204   0.199   2.888  12.962 -0.7770 -0.7092  1.8065
13905TIP3   OH263205   2.138   1.403  17.047 -0.2751 -0.0105  0.2165
13905TIP3    H163206   2.212   1.461  17.063 -0.6674  0.5251  0.1352
13905TIP3    H263207   2.068   1.438  17.103 -2.1181  2.7357 -3.4219
13906TIP3   OH263208   1.230   2.093  14.067  0.2296 -0.0739  0.7452
13906TIP3    H163209   1.218   2.169  14.124  1.2365  0.4501  0.2897
13906TIP3    H263210   1.243   2.131  13.979  0.6527 -0.7682  0.4995
13907TIP3   OH263211   1.092   5.498  12.065 -0.5362 -0.1662 -0.4952
13907TIP3    H163212   1.186   5.512  12.064 -0.3945 -1.0341 -1.6027
13907TIP3    H263213   1.081   5.403  12.072 -1.3558  0.0004  0.7947
13908TIP3   OH263214   1.344   4.592  17.141 -0.5865 -0.2688  0.5531
13908TIP3    H163215   1.295   4.531  17.086 -0.4633  1.6251 -1.7932
13908TIP3    H263216   1.435   4.565  17.132 -0.6589 -0.5312  0.6012
13909TIP3   OH263217   6.572   2.503   5.911 -0.0757  0.6556  0.3350
13909TIP3    H163218   6.485   2.493   5.871  0.2003  0.3745 -0.2082
13909TIP3    H263219   6.578   2.596   5.933 -0.2320  0.8201 -0.3000
13910TIP3   OH263220   3.639   4.404   1.191 -0.4128 -0.1001  0.0780
13910TIP3    H163221   3.720   4.451   1.176 -1.0836  1.6435  1.5060
13910TIP3    H263222   3.570   4.469   1.175 -1.4867 -1.2853 -0.2512
13911TIP3   OH263223   3.125   5.587   0.090 -0.2902 -0.1835 -0.0709
13911TIP3    H163224   3.150   5.630   0.008 -1.8433  1.2406  0.1540
13911TIP3    H263225   3.079   5.507   0.063 -1.6573  0.7712 -0.6390
13912TIP3   OH263226   2.841   1.155   2.049 -0.2247  0.1736  0.1007
13912TIP3    H163227   2.784   1.117   1.982 -0.9178 -0.8647  1.2333
13912TIP3    H263228   2.922   1.104   2.042  0.2456  1.0299 -0.8887
13913TIP3   OH263229   4.515   5.786  15.522  0.1926  0.6925  0.4058
13913TIP3    H163230   4.455   5.732  15.470 -0.1891  0.1045  1.4196
13913TIP3    H263231   4.601   5.746  15.510  0.1146  0.5963  0.1723
13914TIP3   OH263232   5.868   5.795   2.952  0.1166  0.2669 -0.7541
13914TIP3    H163233   5.834   5.743   3.025 -0.3404  1.3672 -0.1558
13914TIP3    H263234   5.957   5.819   2.980 -0.6118  2.0558  0.2422
13915TIP3   OH263235   1.069   6.348  14.435  0.6707 -0.2273 -0.4315
13915TIP3    H163236   1.039   6.273  14.488 -0.2735  0.3387 -0.1278
13915TIP3    H263237   0.991   6.404  14.428  1.4327  0.8535 -0.4257
13916TIP3   OH263238   3.577   3.169  13.133  0.0098 -0.2447  0.3193
13916TIP3    H163239   3.643   3.153  13.201 -1.3677 -1.3922  1.4403
13916TIP3    H263240   3.567   3.085  13.089  0.4189  0.3282 -0.9173
13917TIP3   OH263241   4.607   0.274   1.636  0.1118  0.3224 -0.6295
13917TIP3    H163242   4.672   0.344   1.626  0.7231 -0.4594 -2.7785
13917TIP3    H263243   4.651   0.196   1.602 -1.4851 -0.5311 -0.8413
13918TIP3   OH263244   1.182   0.732  16.084 -0.3673  0.7674 -0.0593
13918TIP3    H163245   1.226   0.815  16.104  0.0952  0.6257 -0.4689
13918TIP3    H263246   1.151   0.742  15.994 -2.6119  1.4732  0.7300
13919TIP3   OH263247   3.485   6.213  11.144  0.2115 -0.2868  0.1941
13919TIP3    H163248   3.545   6.259  11.202 -0.4241 -0.8491  1.3467
13919TIP3    H263249   3.410   6.272  11.135  0.0689 -0.4316  0.4116
13920TIP3   OH263250   5.237   0.538  15.021 -0.1663  0.2628 -0.0320
13920TIP3    H163251   5.145   0.520  15.002 -0.0604 -1.6718  1.0383
13920TIP3    H263252   5.236   0.567  15.112  0.3063 -0.0257  0.0645
13921TIP3   OH263253   5.076   1.362   3.480 -0.5630  0.4620 -0.6428
13921TIP3    H163254   5.122   1.284   3.511  1.6249  2.3706  1.4106
13921TIP3    H263255   4.996   1.365   3.532 -1.1434 -0.8435 -1.4083
13922TIP3   OH263256   0.500   0.817  13.782 -0.5887 -0.2898 -0.3703
13922TIP3    H163257   0.489   0.798  13.875 -2.2759 -2.6855 -0.9524
13922TIP3    H263258   0.594   0.832  13.771 -0.4753  1.1374  1.8274
13923TIP3   OH263259   1.902   2.113  15.738  0.0348 -0.7708 -0.5765
13923TIP3    H163260   1.952   2.110  15.656  2.9290 -0.4991  1.0196
13923TIP3    H263261   1.935   2.039  15.789 -0.6490 -0.1232  0.8660
13924TIP3   OH263262   0.611   6.311   1.942  0.0993  1.2879  0.0619
13924TIP3    H163263   0.692   6.334   1.896 -0.9250  3.2080 -0.9113
13924TIP3    H263264   0.548   6.377   1.914 -1.8339 -0.1576  0.7793
13925TIP3   OH263265   6.663   0.388   3.174  0.3444  0.1723  0.5034
13925TIP3    H163266   6.625   0.324   3.113  1.3735 -0.1244  0.1527
13925TIP3    H263267   6.689   0.336   3.250 -0.1600  0.4135  0.8491
13926TIP3   OH263268   1.115   5.106   6.486 -0.0828  0.6852  0.1264
13926TIP3    H163269   1.052   5.084   6.418  0.6878  1.3420 -0.8309
13926TIP3    H263270   1.136   5.198   6.470 -1.1444  1.3890  2.3051
13927TIP3   OH263271   4.994   4.973   3.720 -0.6715 -0.6713 -0.0142
13927TIP3    H163272   4.979   4.952   3.628  0.2020  1.4390 -0.7056
13927TIP3    H263273   5.088   4.989   3.726 -0.8849  0.3586  0.9669
13928TIP3   OH263274   4.289   5.026   0.479  0.3239  0.0671  0.0503
13928TIP3    H163275   4.271   5.105   0.428 -1.5969 -0.1629  0.2858
13928TIP3    H263276   4.233   4.959   0.440 -1.3971 -0.0726  2.5034
13929TIP3   OH263277   1.773   3.230   0.263 -0.3238  0.3843 -0.4975
13929TIP3    H163278   1.837   3.160   0.253  1.3894  1.7314  0.3929
13929TIP3    H263279   1.739   3.245   0.175 -1.0909 -1.8456 -0.6312
13930TIP3   OH263280   3.577   0.342   6.294 -0.5918 -0.3032  0.4824
13930TIP3    H163281   3.547   0.389   6.372 -0.0065 -0.5154  0.8367
13930TIP3    H263282   3.554   0.251   6.311 -0.8794 -0.2860  0.2006
13931TIP3   OH263283   5.579   6.059   4.051  0.0010 -0.1241 -0.3416
13931TIP3    H163284   5.596   6.002   3.977 -0.2636  0.4426 -0.8504
13931TIP3    H263285   5.616   6.144   4.025 -1.4671  0.5007 -0.4929
13932TIP3   OH263286   2.830   3.861   5.239  0.0800  0.6979 -0.3219
13932TIP3    H163287   2.742   3.890   5.266 -0.5312  0.8488 -2.3278
13932TIP3    H263288   2.880   3.942   5.231  1.1926  0.5032  3.0656
13933TIP3   OH263289   6.341   4.935   1.909 -0.5857  0.3936 -0.4362
13933TIP3    H163290   6.257   4.954   1.951 -0.7909  0.1799 -0.7389
13933TIP3    H263291   6.320   4.867   1.844  0.3084 -1.7283  1.3805
13934TIP3   OH263292   0.189   2.118  13.941  0.4553  0.1193  0.4054
13934TIP3    H163293   0.167   2.059  14.014 -0.5717 -0.4845 -0.3497
13934TIP3    H263294   0.251   2.068  13.888  0.7012  0.2928  0.5335
13935TIP3   OH263295   2.586   3.198  10.579 -0.0515 -0.5001 -0.0217
13935TIP3    H163296   2.504   3.193  10.529 -1.1634  0.1355  1.6347
13935TIP3    H263297   2.626   3.280  10.552  0.2087 -0.9498 -1.0497
13936TIP3   OH263298   6.202   0.917  15.312 -0.1424 -0.2642 -0.1095
13936TIP3    H163299   6.185   0.854  15.242  1.7613  0.1882 -1.0553
13936TIP3    H263300   6.184   1.002  15.272  0.7433 -0.0159  0.0087
13937TIP3   OH263301   4.666   0.901  14.503  0.2899 -0.0644 -0.0164
13937TIP3    H163302   4.617   0.859  14.574  0.5240  0.2612  0.3436
13937TIP3    H263303   4.746   0.848  14.495  0.6025  0.3203  0.4631
13938TIP3   OH263304   2.161   2.667   2.136  0.1774 -0.5150  0.2176
13938TIP3    H163305   2.249   2.704   2.138 -1.0210  2.7334 -0.8544
13938TIP3    H263306   2.140   2.650   2.228  2.1828 -2.3717  0.4438
13939TIP3   OH263307   5.951   3.581  10.975  0.0893 -0.3698  0.0353
13939TIP3    H163308   6.018   3.628  10.927  2.2135 -0.8336  2.3299
13939TIP3    H263309   5.944   3.496  10.932  2.2730 -0.9477  0.6858
13940TIP3   OH263310   4.405   1.838   2.640  0.0094  0.3966 -0.1582
13940TIP3    H163311   4.431   1.807   2.553 -0.5149 -0.1093 -0.1399
13940TIP3    H263312   4.465   1.793   2.700 -0.0068  0.3028 -0.2128
13941TIP3   OH263313   6.259   5.888   6.403  0.1596  0.3299 -0.0720
13941TIP3    H163314   6.191   5.847   6.456  1.0141 -2.3177 -0.8938
13941TIP3    H263315   6.341   5.866   6.447  0.6866  0.8205 -0.7735
13942TIP3   OH263316   4.270   0.233   2.277  0.0300 -0.1372 -0.4866
13942TIP3    H163317   4.224   0.256   2.358  0.7530  0.5545 -0.2643
13942TIP3    H263318   4.353   0.197   2.306  0.1510 -0.2033 -0.9120
13943TIP3   OH263319   3.501   5.375   6.685 -0.9612  0.3654 -0.1662
13943TIP3    H163320   3.497   5.459   6.638  0.5091  0.3480 -0.3753
13943TIP3    H263321   3.546   5.396   6.766  1.7727 -0.6187 -1.3094
13944TIP3   OH263322   5.430   4.357   0.076  0.1852 -0.6577  0.1082
13944TIP3    H163323   5.384   4.274   0.084 -0.4822 -0.1256  2.6279
13944TIP3    H263324   5.499   4.352   0.142 -0.8534  1.3428  1.4345
13945TIP3   OH263325   4.995   3.964   4.239 -0.4377  0.7902 -0.5089
13945TIP3    H163326   5.041   3.913   4.305 -0.8360  0.3826 -0.5440
13945TIP3    H263327   5.061   4.025   4.206 -0.2899  1.1513  0.4126
13946TIP3   OH263328   4.796   4.722   0.175 -0.2248  0.2074  0.2961
13946TIP3    H163329   4.804   4.692   0.266 -0.0173 -1.2990 -0.1915
13946TIP3    H263330   4.768   4.645   0.127 -0.2887  0.9785 -0.9490
13947TIP3   OH263331   2.143   3.227   0.239  0.3109 -0.2460  0.1470
13947TIP3    H163332   2.100   3.222   0.325 -0.3659 -2.0992 -0.2510
13947TIP3    H263333   2.100   3.159   0.187  1.2359  0.3365 -1.4348
13948TIP3   OH263334   1.485   0.785   1.997  0.0459 -0.2028  0.1495
13948TIP3    H163335   1.430   0.750   2.067 -0.1564 -1.5402 -0.6587
13948TIP3    H263336   1.460   0.736   1.919  0.1871  1.3330 -0.9081
13949TIP3   OH263337   2.795   1.359  14.260  0.5030  0.1647  0.4711
13949TIP3    H163338   2.763   1.296  14.195  0.9963  0.5331 -0.1367
13949TIP3    H263339   2.832   1.430  14.208 -0.6171  1.2724  1.1234
13950TIP3   OH263340   6.108   4.022  13.341  0.3342 -0.1577  0.3194
13950TIP3    H163341   6.064   4.050  13.261 -1.2039  0.1407  1.2457
13950TIP3    H263342   6.085   4.088  13.406  1.1440 -0.6698  1.1608
13951TIP3   OH263343   6.148   5.949   2.114  0.3611  0.5601 -0.3019
13951TIP3    H163344   6.151   5.963   2.019 -0.3198  0.0460 -0.4024
13951TIP3    H263345   6.068   5.898   2.128  0.6220  0.3710  0.5130
13952TIP3   OH263346   0.882   1.858   1.050 -0.7063 -0.4478  0.2232
13952TIP3    H163347   0.875   1.834   1.143 -0.5400  0.7599  0.5636
13952TIP3    H263348   0.964   1.819   1.021 -0.7093 -0.7460  0.6036
13953TIP3   OH263349   3.299   3.219   6.275  0.3261 -0.1973 -0.2858
13953TIP3    H163350   3.341   3.133   6.278 -0.7920 -0.7372  1.2609
13953TIP3    H263351   3.291   3.245   6.367 -1.1797  0.6232 -0.6158
13954TIP3   OH263352   1.327   0.187  12.183 -0.0764 -0.0733  0.7595
13954TIP3    H163353   1.416   0.152  12.176 -0.6215 -1.6150  1.0613
13954TIP3    H263354   1.275   0.113  12.214 -1.8146  0.2834 -1.1203
13955TIP3   OH263355   0.688   1.004   2.497  0.0942  0.2050  0.1962
13955TIP3    H163356   0.700   1.075   2.560 -0.0977  1.1452 -0.8027
13955TIP3    H263357   0.628   0.943   2.541 -0.2374  0.9715  0.8255
13956TIP3   OH263358   1.454   5.608  15.023  0.5154 -0.0142 -0.1833
13956TIP3    H163359   1.538   5.562  15.013 -1.0733 -2.7933 -2.2607
13956TIP3    H263360   1.456   5.675  14.954  1.7728  1.3548  1.1151
13957TIP3   OH263361   4.392   3.069   2.054 -0.4206 -0.0629 -0.0132
13957TIP3    H163362   4.303   3.092   2.082 -1.2881  0.0438 -2.5704
13957TIP3    H263363   4.406   2.981   2.088 -1.2990  0.1184  0.8571
13958TIP3   OH263364   5.231   3.935  16.011 -0.2031  0.0032  0.0374
13958TIP3    H163365   5.258   3.944  16.103 -4.0710 -0.6397  1.4460
13958TIP3    H263366   5.234   3.841  15.994 -0.6888  0.0022 -0.0533
13959TIP3   OH263367   0.834   5.125   5.783  0.0348 -0.5079  0.0619
13959TIP3    H163368   0.908   5.137   5.723  0.5484 -0.1825  0.7454
13959TIP3    H263369   0.874   5.115   5.869 -0.7327  0.3715  0.5524
13960TIP3   OH263370   1.370   6.789   5.706 -0.7358  0.4755  0.1477
13960TIP3    H163371   1.355   6.858   5.772 -0.1277  1.3616 -0.6121
13960TIP3    H263372   1.374   6.836   5.623  0.5720 -0.3725 -0.2999
13961TIP3   OH263373   1.515   4.310  13.521  0.2157 -0.2160 -0.3038
13961TIP3    H163374   1.484   4.322  13.431  1.0771 -1.0789 -0.7300
13961TIP3    H263375   1.563   4.228  13.519 -1.9798 -1.6469  1.5679
13962TIP3   OH263376   4.092   0.660   3.237 -0.5874  0.9647  0.1155
13962TIP3    H163377   3.999   0.653   3.218 -0.2904 -0.9289 -0.9125
13962TIP3    H263378   4.098   0.657   3.332 -1.4815 -1.1916  0.1442
13963TIP3   OH263379   2.486   2.201  12.059  0.0937  0.5143  0.1295
13963TIP3    H163380   2.552   2.249  12.111  0.9134  0.0999 -0.5073
13963TIP3    H263381   2.408   2.201  12.115  0.1357  2.3649  0.2601
13964TIP3   OH263382   5.067   5.609  16.716 -0.0905 -0.2659 -0.3248
13964TIP3    H163383   4.988   5.564  16.688 -1.1047  0.0469  1.8388
13964TIP3    H263384   5.064   5.694  16.672 -0.4360 -0.6171 -0.9931
13965TIP3   OH263385   2.654   6.569  12.949  0.2298  0.4095 -0.3878
13965TIP3    H163386   2.731   6.610  12.910  0.8769  0.5922  1.0026
13965TIP3    H263387   2.667   6.475  12.936  1.3582  0.3483  0.9300
13966TIP3   OH263388   4.787   5.895  14.505  0.5074 -0.6394 -0.2938
13966TIP3    H163389   4.797   5.835  14.432  0.9218  1.3454 -1.9457
13966TIP3    H263390   4.877   5.912  14.534  0.3002 -2.8454  2.0130
13967TIP3   OH263391   5.811   4.634   1.901 -0.2413  1.2139 -0.1228
13967TIP3    H163392   5.884   4.618   1.841 -0.0256  0.2006  0.3940
13967TIP3    H263393   5.760   4.704   1.859  0.6087  1.4112 -0.8494
13968TIP3   OH263394   5.323   5.611   2.330 -0.0126 -1.0884  0.2561
13968TIP3    H163395   5.366   5.691   2.360 -0.0255 -0.5379 -1.1271
13968TIP3    H263396   5.293   5.568   2.410 -1.0627  0.8757  0.9673
13969TIP3   OH263397   1.038   5.592   2.161  0.5255  0.8808 -0.0521
13969TIP3    H163398   1.029   5.603   2.255 -0.5000  0.2066 -0.0554
13969TIP3    H263399   1.011   5.676   2.124 -1.2678  0.4582  0.1816
13970TIP3   OH263400   4.867   1.714   5.400  0.1975 -0.5790  0.1741
13970TIP3    H163401   4.855   1.697   5.493 -2.2361 -0.7231 -0.0994
13970TIP3    H263402   4.934   1.782   5.396 -2.2238  2.1364  2.2807
13971TIP3   OH263403   6.062   3.721  13.336 -0.2809  0.0385  0.4723
13971TIP3    H163404   6.066   3.816  13.335  0.1534  0.0294  0.8364
13971TIP3    H263405   6.048   3.698  13.428 -0.2091 -0.2522  0.4139
13972TIP3   OH263406   4.633   6.427   2.747 -0.0391 -0.2381 -0.1388
13972TIP3    H163407   4.588   6.349   2.781 -2.1875  1.1311  0.3617
13972TIP3    H263408   4.563   6.492   2.735  1.6070  1.4858 -0.9788
13973TIP3   OH263409   3.106   1.932  12.542  0.6453 -0.5806 -0.4537
13973TIP3    H163410   3.111   2.021  12.577 -2.3618 -0.7222  0.5722
13973TIP3    H263411   3.114   1.876  12.620  1.1722 -1.1871 -0.9322
13974TIP3   OH263412   3.133   6.724   2.107  0.0101  0.3625  0.2104
13974TIP3    H163413   3.042   6.754   2.100 -0.4697 -1.0313  0.1480
13974TIP3    H263414   3.163   6.755   2.192 -0.8608  0.0024  0.6581
13975TIP3   OH263415   5.896   1.800  14.608 -0.0907 -0.3331 -0.0502
13975TIP3    H163416   5.857   1.743  14.542  0.4377 -1.0233  0.2189
13975TIP3    H263417   5.924   1.877  14.559  0.3263 -0.8547 -0.6492
13976TIP3   OH263418   6.423   4.201   1.363  0.2039 -0.2305 -0.0306
13976TIP3    H163419   6.403   4.289   1.394  0.2213  0.4656 -1.8794
13976TIP3    H263420   6.485   4.166   1.427 -0.0103  0.9825  0.8729
13977TIP3   OH263421   1.403   5.601   4.395  0.4842  0.5183  0.3368
13977TIP3    H163422   1.419   5.647   4.478 -1.1252  0.4670  0.6925
13977TIP3    H263423   1.469   5.637   4.335  1.1440  1.1500  1.4053
13978TIP3   OH263424   4.127   1.264   2.406  0.2012  0.0367  0.4018
13978TIP3    H163425   4.075   1.257   2.326 -0.4769 -1.1309  0.9305
13978TIP3    H263426   4.081   1.329   2.459  0.3650  0.4269  0.0733
13979TIP3   OH263427   6.189   5.101   5.541 -0.1278  0.1559 -0.2861
13979TIP3    H163428   6.116   5.088   5.480 -0.0411 -1.3346 -0.1057
13979TIP3    H263429   6.205   5.014   5.578 -0.0001  0.9639  1.6794
13980TIP3   OH263430   5.926   0.961   4.634  0.3371  0.1483 -0.3237
13980TIP3    H163431   5.896   0.903   4.704  0.5000  0.1124 -0.2838
13980TIP3    H263432   5.971   1.033   4.679  0.9708 -0.1833 -0.4162
13981TIP3   OH263433   5.999   3.971   5.392  0.8936 -1.5190 -0.4453
13981TIP3    H163434   5.967   3.929   5.472 -2.0978  1.4898  0.1665
13981TIP3    H263435   6.039   4.052   5.422 -0.9034  0.0135 -1.8884
13982TIP3   OH263436   5.915   2.155   1.428  0.4856 -0.0670  0.0515
13982TIP3    H163437   5.885   2.205   1.352 -0.5839 -2.0966 -0.9469
13982TIP3    H263438   6.002   2.125   1.403  0.1114 -0.7825 -0.4292
13983TIP3   OH263439   4.304   6.352   1.046 -0.6017 -0.1197 -0.4402
13983TIP3    H163440   4.234   6.396   0.998 -1.2156 -0.0400  0.5105
13983TIP3    H263441   4.261   6.280   1.091 -0.2552  0.4734  0.8791
13984TIP3   OH263442   4.409   4.360   3.271 -0.4760  0.0433  0.0671
13984TIP3    H163443   4.501   4.361   3.297 -0.4437  0.6867 -0.0687
13984TIP3    H263444   4.381   4.270   3.287 -0.0561  0.0512  0.9168
13985TIP3   OH263445   3.828   4.296   3.147  0.1847 -0.3852 -0.8226
13985TIP3    H163446   3.896   4.348   3.191 -1.2118  0.2990  0.6238
13985TIP3    H263447   3.853   4.205   3.164  0.5448 -0.1450  0.0009
13986TIP3   OH263448   6.240   4.050  16.785 -0.3032 -0.4039  1.4106
13986TIP3    H163449   6.255   4.129  16.732 -0.5033  0.3298  2.4107
13986TIP3    H263450   6.272   3.978  16.730 -1.8135  0.1491 -0.3079
13987TIP3   OH263451   2.307   1.633   4.100  0.2181  0.1052 -0.3378
13987TIP3    H163452   2.384   1.583   4.074  0.1556  0.7208 -1.8323
13987TIP3    H263453   2.244   1.567   4.129  1.2679 -0.4083  0.8663
13988TIP3   OH263454   3.615   0.326  13.700 -0.3590 -0.4862 -0.1228
13988TIP3    H163455   3.526   0.303  13.725 -0.5640  0.6589  0.2523
13988TIP3    H263456   3.612   0.335  13.605 -0.2097 -2.1941 -0.3141
13989TIP3   OH263457   4.549   6.511  11.814  0.5080  0.6032 -0.7316
13989TIP3    H163458   4.620   6.535  11.874  0.9457 -1.9652 -0.0973
13989TIP3    H263459   4.490   6.458  11.867 -0.3041  0.1743 -2.0103
13990TIP3   OH263460   5.694   2.737  15.612 -0.2571  0.4405  0.8621
13990TIP3    H163461   5.662   2.803  15.674  1.0065  1.0285  0.9243
13990TIP3    H263462   5.615   2.695  15.578 -1.0161  0.8764  2.0334
13991TIP3   OH263463   5.324   1.505   1.467  0.1708  0.5625  0.2426
13991TIP3    H163464   5.272   1.511   1.386  1.5141  1.1522 -0.5942
13991TIP3    H263465   5.259   1.481   1.534 -0.7879 -1.1975 -1.2012
13992TIP3   OH263466   3.821   2.041  14.615  0.3060  0.2719 -0.6715
13992TIP3    H163467   3.870   2.121  14.634 -1.3964  1.2982 -0.4151
13992TIP3    H263468   3.794   2.049  14.524  1.1988 -0.6509 -1.0484
13993TIP3   OH263469   0.715   3.730  15.185  0.2598 -0.1046 -0.1667
13993TIP3    H163470   0.680   3.771  15.264  1.8019  0.6934  0.1455
13993TIP3    H263471   0.775   3.663  15.217 -0.3226 -0.8958 -0.6830
13994TIP3   OH263472   0.374   5.375  14.627 -0.2823 -0.1164  0.7676
13994TIP3    H163473   0.461   5.344  14.650  0.1522  0.7445  0.3477
13994TIP3    H263474   0.336   5.405  14.710  0.2073  0.4241  0.7999
13995TIP3   OH263475   6.259   0.252  12.989  0.2815  0.2048 -0.4072
13995TIP3    H163476   6.204   0.330  12.983 -0.3897 -0.2840 -0.7362
13995TIP3    H263477   6.288   0.237  12.899 -0.4704 -0.5355 -0.5400
13996TIP3   OH263478   3.765   2.747   3.656 -0.4017  0.6336  0.0837
13996TIP3    H163479   3.693   2.683   3.654 -0.1175  0.3397 -1.0946
13996TIP3    H263480   3.816   2.728   3.578  1.7950 -0.1030  1.6163
13997TIP3   OH263481   4.860   5.853  12.288 -0.3080  0.8240 -0.3029
13997TIP3    H163482   4.882   5.829  12.378  0.7388  1.4399 -0.3842
13997TIP3    H263483   4.906   5.789  12.234  0.0722  1.2055 -0.4340
13998TIP3   OH263484   1.711   3.510  12.959  0.2766 -0.0438  0.1407
13998TIP3    H163485   1.753   3.492  12.875 -1.2662 -0.3121 -0.6184
13998TIP3    H263486   1.756   3.453  13.021  0.0001 -1.5029 -0.9358
13999TIP3   OH263487   0.887   1.944  15.928 -0.5467  0.6799  1.1491
13999TIP3    H163488   0.897   1.993  15.846  1.4799  0.3346  1.1394
13999TIP3    H263489   0.889   2.011  15.996  0.4403  0.7858  1.0355
14000TIP3   OH263490   0.008   0.587   3.250  0.6354 -0.2041 -0.1395
14000TIP3    H163491  -0.079   0.546   3.249  0.2081  0.6850 -1.3695
14000TIP3    H263492  -0.005   0.668   3.300  0.4603  0.5131 -1.3197
14001TIP3   OH263493   1.976   3.019  14.972  0.5528 -0.2786 -0.3186
14001TIP3    H163494   1.919   2.985  15.041  1.0329 -0.4821 -0.0222
14001TIP3    H263495   1.999   3.107  15.000 -1.5538  0.7839 -1.5886
14002TIP3   OH263496   0.567   5.890  14.542 -0.0201 -0.2023  0.3457
14002TIP3    H163497   0.496   5.931  14.494  1.4368  0.5722 -1.2613
14002TIP3    H263498   0.534   5.803  14.564 -1.9264  0.5966  0.8470
14003TIP3   OH263499   6.076   2.846  16.340 -0.6262 -0.5698 -0.5094
14003TIP3    H163500   6.151   2.903  16.325  0.7276 -2.4783 -1.3729
14003TIP3    H263501   6.000   2.899  16.312  0.2711  1.6000  0.9403
14004TIP3   OH263502   1.880   0.435   6.026  0.2178  0.7601 -0.5151
14004TIP3    H163503   1.801   0.486   6.041  0.6691  1.5987 -0.9404
14004TIP3    H263504   1.878   0.367   6.094 -0.5624  1.1237 -0.1642
14005TIP3   OH263505   1.327   2.048   2.310 -0.0634  0.2130 -0.6223
14005TIP3    H163506   1.337   2.139   2.336 -2.2115  0.1857  0.5990
14005TIP3    H263507   1.303   2.051   2.218 -1.9495  1.0947 -0.1718
14006TIP3   OH263508   3.588   3.084   2.540 -0.3899  0.6389  0.2465
14006TIP3    H163509   3.542   3.161   2.509 -2.3962 -0.0338  1.3792
14006TIP3    H263510   3.614   3.106   2.630  0.9476  0.7473 -0.1399
14007TIP3   OH263511   1.654   0.908   3.304  0.0698 -0.6439  0.5903
14007TIP3    H163512   1.599   0.983   3.281  1.5974  0.8751  1.6037
14007TIP3    H263513   1.592   0.836   3.318 -1.5960  0.7803  0.9157
14008TIP3   OH263514   5.039   6.053  14.213 -0.2674  0.0057 -0.4076
14008TIP3    H163515   4.991   5.989  14.160 -2.2714 -0.4733  1.8084
14008TIP3    H263516   5.057   6.007  14.295 -0.4221  1.8005  0.6758
14009TIP3   OH263517   0.605   2.051  15.708  0.1337 -0.0929  0.4028
14009TIP3    H163518   0.683   2.003  15.681  0.2180 -0.7191  1.7156
14009TIP3    H263519   0.558   1.991  15.766 -0.1106  1.1401  1.5267
14010TIP3   OH263520   5.710   3.377   5.265  0.3688 -0.2128 -0.1690
14010TIP3    H163521   5.692   3.289   5.299 -2.4636  0.0658 -0.7375
14010TIP3    H263522   5.806   3.385   5.271  0.5009 -2.1100  2.8582
14011TIP3   OH263523   5.806   3.189  14.064  0.0673  0.1341 -0.0788
14011TIP3    H163524   5.727   3.202  14.012  0.2158  1.3122 -0.0306
14011TIP3    H263525   5.813   3.268  14.117 -0.4548 -1.2801  2.2525
14012TIP3   OH263526   2.757   5.997   5.468  0.3213  0.4091  0.6623
14012TIP3    H163527   2.669   6.020   5.438  0.1048 -2.1320 -0.9775
14012TIP3    H263528   2.749   5.988   5.563 -1.2742 -0.0829  0.5035
14013TIP3   OH263529   2.601   5.232  12.343 -0.6629  0.3971  0.1404
14013TIP3    H163530   2.650   5.306  12.378 -0.1315 -0.2059  0.6985
14013TIP3    H263531   2.579   5.179  12.420  2.4447 -2.1450 -0.5397
14014TIP3   OH263532   4.868   6.104  11.442 -0.4129 -0.0509 -0.4656
14014TIP3    H163533   4.816   6.027  11.422  0.1740 -0.5036 -0.2596
14014TIP3    H263534   4.931   6.110  11.370 -0.4096  0.2021 -0.4440
14015TIP3   OH263535   3.071   4.164   1.121 -0.3324 -0.6444  0.7179
14015TIP3    H163536   2.986   4.153   1.078  0.4195 -0.6160 -0.8452
14015TIP3    H263537   3.127   4.098   1.081  1.6230  2.2631 -1.7409
14016TIP3   OH263538   6.463   3.719  12.494  0.3337 -0.5379 -0.2193
14016TIP3    H163539   6.398   3.786  12.473  1.0772  0.1310 -0.4355
14016TIP3    H263540   6.492   3.686  12.409  1.2090  0.0906 -0.1799
14017TIP3   OH263541   5.201   0.080  14.121  0.2280  0.0213 -0.4618
14017TIP3    H163542   5.165   0.084  14.033  0.3978 -0.0365 -0.5337
14017TIP3    H263543   5.274   0.018  14.115 -0.4791 -0.8740 -0.0245
14018TIP3   OH263544   4.173   0.209  14.112 -0.4134  0.6246  0.1972
14018TIP3    H163545   4.201   0.149  14.043  1.0652  1.1066  0.3385
14018TIP3    H263546   4.091   0.246  14.080  0.6428  1.4450 -1.7070
14019TIP3   OH263547   3.828   2.566  14.587 -0.3705  0.2826 -0.3329
14019TIP3    H163548   3.784   2.562  14.502 -0.2858  2.6053 -0.5702
14019TIP3    H263549   3.901   2.627  14.573 -0.5961  1.0360  1.4997
14020TIP3   OH263550   0.614   3.201  11.882  0.7958  0.2853 -0.3038
14020TIP3    H163551   0.625   3.284  11.837 -0.6622  0.8730  0.3584
14020TIP3    H263552   0.673   3.205  11.956  0.8505  0.6577 -0.3662
14021TIP3   OH263553   5.248   2.822   5.853 -0.0600 -0.1086  0.2878
14021TIP3    H163554   5.202   2.806   5.936  0.1671 -1.8586  0.1140
14021TIP3    H263555   5.186   2.872   5.801 -0.5122  0.3463  1.2359
14022TIP3   OH263556   3.706   4.316   2.277  0.0248 -0.0299 -0.1112
14022TIP3    H163557   3.777   4.293   2.336 -0.5792 -1.1771  0.2011
14022TIP3    H263558   3.670   4.397   2.314  0.7672  0.2222  0.0769
14023TIP3   OH263559   3.687   5.906   0.093 -0.0544 -0.1518 -0.1910
14023TIP3    H163560   3.760   5.962   0.065  0.5677 -1.4157 -1.2479
14023TIP3    H263561   3.610   5.946   0.052  0.3352  0.0784 -0.7211
14024TIP3   OH263562   0.769   1.258  13.269 -0.1308  0.4498 -0.4480
14024TIP3    H163563   0.696   1.200  13.291 -1.3601  2.2290  0.5031
14024TIP3    H263564   0.800   1.227  13.184 -1.1866 -1.1263 -0.3033
14025TIP3   OH263565   5.497   1.307  11.338  0.5634  0.3230  0.1644
14025TIP3    H163566   5.581   1.345  11.364  0.8225  1.5653 -2.2232
14025TIP3    H263567   5.516   1.260  11.257 -0.5315 -1.8623  1.1016
14026TIP3   OH263568   6.760   4.768   3.122  0.0493  0.1792  0.7260
14026TIP3    H163569   6.798   4.690   3.081  2.0926  1.3011  0.3292
14026TIP3    H263570   6.755   4.746   3.215 -0.7258 -0.9109  0.4439
14027TIP3   OH263571   0.178   3.403   2.414  0.5286 -0.4678 -0.3501
14027TIP3    H163572   0.234   3.473   2.380  0.5452 -0.0694  0.4694
14027TIP3    H263573   0.166   3.425   2.507 -0.3856 -0.9464 -0.3444
14028TIP3   OH263574   3.502   3.952  16.889 -0.2321  0.2045 -0.2967
14028TIP3    H163575   3.480   3.874  16.838  0.2535 -1.1512  1.4703
14028TIP3    H263576   3.418   3.993  16.906 -0.8332 -1.4528  1.0341
14029TIP3   OH263577   3.609   5.199   0.635 -0.5733 -0.5790  0.8623
14029TIP3    H163578   3.572   5.286   0.645 -0.6895 -0.7642  2.2115
14029TIP3    H263579   3.556   5.143   0.691 -1.3135 -1.7984 -0.9445
14030TIP3   OH263580   1.181   5.114  12.580  0.2405  0.2711  0.4086
14030TIP3    H163581   1.097   5.160  12.573  0.4288  0.4693 -0.6233
14030TIP3    H263582   1.235   5.151  12.510  1.3840  0.5277  1.3901
14031TIP3   OH263583   5.292   2.918   4.562 -0.0008 -0.1072 -0.5392
14031TIP3    H163584   5.333   2.842   4.602 -0.1603 -0.0451 -0.2487
14031TIP3    H263585   5.350   2.943   4.491  0.1379 -0.3975 -0.5277
14032TIP3   OH263586   3.217   3.907  16.591 -0.0373 -0.0087  0.3353
14032TIP3    H163587   3.260   3.922  16.675 -1.4487  1.3452  0.8767
14032TIP3    H263588   3.159   3.832  16.607 -0.3598  0.2943  0.6116
14033TIP3   OH263589   0.194   3.751  14.962 -0.1087 -0.1992  0.5131
14033TIP3    H163590   0.169   3.659  14.968 -0.3323 -0.2495 -0.7898
14033TIP3    H263591   0.226   3.761  14.872 -0.4585  1.0801  0.5099
14034TIP3   OH263592   0.437   0.490   2.497 -0.1819  0.0942 -0.5658
14034TIP3    H163593   0.430   0.425   2.427  1.1445 -1.5711  0.7518
14034TIP3    H263594   0.392   0.450   2.572 -0.9294  1.5174 -0.2233
14035TIP3   OH263595   2.623   0.789   5.725 -0.2953 -0.1379  0.7352
14035TIP3    H163596   2.698   0.840   5.696 -1.2858  0.7767 -0.3199
14035TIP3    H263597   2.602   0.824   5.812 -0.8805  1.2119  0.0810
14036TIP3   OH263598   5.729   1.340  12.169 -0.3859  0.4140  0.1770
14036TIP3    H163599   5.667   1.294  12.225  0.7255 -1.0323  0.2694
14036TIP3    H263600   5.675   1.399  12.117 -1.5412  1.1914  2.1562
14037TIP3   OH263601   3.078   3.586   2.116 -0.0869 -0.3208 -0.3096
14037TIP3    H163602   3.102   3.513   2.174  0.2967 -0.7836 -1.0343
14037TIP3    H263603   3.006   3.551   2.063 -0.0697 -0.0848 -0.4873
14038TIP3   OH263604   0.208   1.308   4.007  0.1829 -0.1999 -0.5119
14038TIP3    H163605   0.254   1.226   3.989  1.9208  0.9934 -1.8599
14038TIP3    H263606   0.277   1.369   4.035 -1.1678  0.6411  1.2210
14039TIP3   OH263607   5.769   2.605  11.414 -0.1473  0.1230 -0.5687
14039TIP3    H163608   5.689   2.632  11.370 -0.1372 -1.0691 -1.3573
14039TIP3    H263609   5.791   2.521  11.375 -0.1285 -1.0071  1.6917
14040TIP3   OH263610   5.788   6.562   1.010 -0.1572  0.1499 -0.1265
14040TIP3    H163611   5.769   6.470   1.028  0.2780 -0.1897 -1.2764
14040TIP3    H263612   5.838   6.560   0.928 -1.6203  1.5205 -1.1063
14041TIP3   OH263613   4.635   3.940  17.232 -0.2252 -0.0272  0.8637
14041TIP3    H163614   4.612   4.002  17.302 -0.3997 -1.0087  1.6996
14041TIP3    H263615   4.672   3.865  17.278 -0.1267 -0.6009 -0.1306
14042TIP3   OH263616   1.694   3.821  13.410  0.0101 -0.4933  0.8651
14042TIP3    H163617   1.668   3.830  13.319 -3.2034  1.2710  1.7776
14042TIP3    H263618   1.787   3.843  13.411  0.7675 -2.8863 -2.2072
14043TIP3   OH263619   2.798   4.377   0.911 -0.0373 -0.4420  1.1614
14043TIP3    H163620   2.729   4.417   0.965 -0.6989  1.8058 -1.1430
14043TIP3    H263621   2.762   4.294   0.883 -1.0625 -0.1034  1.4360
14044TIP3   OH263622   0.019   6.478  15.071 -0.2853 -0.0089 -0.6337
14044TIP3    H163623   0.008   6.529  15.152 -0.9442  0.4567 -1.0094
14044TIP3    H263624   0.114   6.476  15.057 -0.2667  1.7984 -1.0299
14045TIP3   OH263625   6.785   2.527  10.362  1.1032 -0.0072  0.1459
14045TIP3    H163626   6.712   2.542  10.303 -0.4589  1.5354  2.2933
14045TIP3    H263627   6.846   2.599  10.344  0.5201  0.5958  0.5231
14046TIP3   OH263628   4.652   3.124   3.363 -0.4095 -0.0055 -0.4166
14046TIP3    H163629   4.706   3.075   3.301 -0.2106 -1.0331  0.5390
14046TIP3    H263630   4.575   3.150   3.312  0.3916  0.4184 -1.4629
14047TIP3   OH263631   0.050   6.689   1.004 -0.1999  0.2801 -0.4667
14047TIP3    H163632   0.051   6.765   0.946 -0.0511 -0.6375 -1.6898
14047TIP3    H263633  -0.002   6.623   0.958  0.2624 -0.6116  0.2487
14048TIP3   OH263634   0.465   1.505   2.768 -0.3414  0.2979  0.7372
14048TIP3    H163635   0.526   1.516   2.696 -1.0394 -0.2194  0.0484
14048TIP3    H263636   0.393   1.454   2.731 -0.5838 -0.2127  1.8742
14049TIP3   OH263637   3.122   4.353  16.401  0.5501 -0.6035  0.5157
14049TIP3    H163638   3.143   4.293  16.329 -0.7820 -2.2062  1.4215
14049TIP3    H263639   3.185   4.330  16.470 -1.2529 -2.4652  1.6334
14050TIP3   OH263640   1.693   6.251  16.021 -0.0707  0.1601 -0.0824
14050TIP3    H163641   1.725   6.161  16.033  0.4530  0.3187 -0.2617
14050TIP3    H263642   1.631   6.245  15.948 -2.0343 -0.5205  1.5409
14051TIP3   OH263643   3.339   2.494   0.721  0.4067  0.0541 -0.2306
14051TIP3    H163644   3.300   2.561   0.777 -1.0769 -1.4035  0.5760
14051TIP3    H263645   3.349   2.418   0.778  2.2685 -0.3890 -1.0622
14052TIP3   OH263646   3.593   0.269   0.348  0.1255  0.1261  0.4112
14052TIP3    H163647   3.498   0.271   0.361  0.2423 -0.7961  1.5651
14052TIP3    H263648   3.621   0.359   0.368 -0.4630  0.3255  0.3678
14053TIP3   OH263649   4.174   0.377   1.684  0.4450 -0.7551 -0.5146
14053TIP3    H163650   4.263   0.348   1.667  0.0194 -3.5037  1.2974
14053TIP3    H263651   4.121   0.331   1.618  0.3089  0.8500 -1.5712
14054TIP3   OH263652   3.078   3.809   4.322  0.2829 -0.5384 -0.0623
14054TIP3    H163653   3.134   3.861   4.264  0.7557 -1.0827 -0.1054
14054TIP3    H263654   3.134   3.786   4.396  0.3032 -1.5776 -0.3830
14055TIP3   OH263655   5.852   2.632  16.048  0.0958  0.1127  0.4833
14055TIP3    H163656   5.829   2.642  16.141 -2.0603 -0.9662  0.1228
14055TIP3    H263657   5.849   2.721  16.013  1.8326  0.6606  1.5845
14056TIP3   OH263658   2.599   4.881   2.722  0.3571  0.3326 -0.4329
14056TIP3    H163659   2.600   4.888   2.626 -0.2358 -0.6365 -0.5244
14056TIP3    H263660   2.507   4.867   2.744  0.7541 -1.8183  0.0692
14057TIP3   OH263661   1.869   2.533  13.349  0.6991 -0.7195 -0.2911
14057TIP3    H163662   1.881   2.583  13.269 -1.2612  0.3923  0.0514
14057TIP3    H263663   1.934   2.570  13.410  0.4448  0.2132 -0.5748
14058TIP3   OH263664   1.972   1.934   5.567 -0.0799 -0.1723  0.1454
14058TIP3    H163665   2.047   1.886   5.531 -0.9557 -0.0209 -2.0205
14058TIP3    H263666   2.010   2.010   5.610  1.0488 -0.4422 -0.3441
14059TIP3   OH263667   5.986   3.290   5.959 -0.0968 -0.1670  0.3127
14059TIP3    H163668   6.052   3.242   5.909 -0.1822  1.3456 -1.3407
14059TIP3    H263669   5.904   3.274   5.912  0.0560  2.4523 -1.0065
14060TIP3   OH263670   6.386   2.202  11.972  0.8440  0.1542  0.3179
14060TIP3    H163671   6.310   2.189  11.915  1.0112 -0.7539  0.2941
14060TIP3    H263672   6.441   2.125  11.957  0.5191 -0.5075  2.3077
14061TIP3   OH263673   0.123   6.820   6.695  0.1905 -0.3698 -0.6865
14061TIP3    H163674   0.197   6.831   6.635 -0.1325  0.6018 -0.9314
14061TIP3    H263675   0.126   6.728   6.720  3.0155  0.1613  1.3418
14062TIP3   OH263676   6.735   2.137   0.055  0.2147 -0.5085  0.2114
14062TIP3    H163677   6.791   2.164   0.127 -0.5231 -0.3721  0.7418
14062TIP3    H263678   6.648   2.128   0.093  0.0420 -1.6341 -0.3992
14063TIP3   OH263679   5.553   4.346  13.905  0.1793 -0.2892 -0.3153
14063TIP3    H163680   5.543   4.440  13.921  2.5220 -0.2383  1.4362
14063TIP3    H263681   5.567   4.339  13.810  2.4862  1.4744 -0.1811
14064TIP3   OH263682   3.347   5.613   0.674 -0.2538 -0.0647  0.1423
14064TIP3    H163683   3.434   5.582   0.649  0.5570  1.0318  1.3901
14064TIP3    H263684   3.299   5.534   0.698  1.3201 -0.5536  2.0242
14065TIP3   OH263685   0.661   1.984   0.910 -0.0691 -0.1533 -0.0458
14065TIP3    H163686   0.637   2.042   0.983  1.3368 -0.0283  0.3434
14065TIP3    H263687   0.711   1.913   0.951 -0.8192 -1.0586 -0.6695
14066TIP3   OH263688   2.445   2.124   3.584  0.1029  0.2887 -0.3299
14066TIP3    H163689   2.486   2.143   3.669 -2.0718  2.2086  0.3885
14066TIP3    H263690   2.371   2.067   3.606  0.2259 -0.1746 -1.1050
14067TIP3   OH263691   2.292   2.173  15.912 -0.5434 -0.0336  0.9986
14067TIP3    H163692   2.234   2.106  15.947 -2.0626  0.9020  0.3970
14067TIP3    H263693   2.234   2.230  15.861  1.3008 -0.5510 -1.9207
14068TIP3   OH263694   3.831   6.342   1.012  0.1091  0.1164  0.3510
14068TIP3    H163695   3.787   6.417   1.053 -0.6226  0.2317 -0.6127
14068TIP3    H263696   3.762   6.298   0.962  1.0184  0.1521 -0.9862
14069TIP3   OH263697   2.305   0.501  14.319 -0.0732  0.4754 -0.3301
14069TIP3    H163698   2.211   0.514  14.305 -0.1863  2.4431  1.7523
14069TIP3    H263699   2.311   0.420  14.370 -0.6775  0.6479  0.0237
14070TIP3   OH263700   5.729   6.010  11.807  0.4416 -0.4529 -0.3105
14070TIP3    H163701   5.821   5.995  11.786  0.2615 -1.1158 -0.6337
14070TIP3    H263702   5.680   5.953  11.748 -0.1674 -0.3572  0.0849
14071TIP3   OH263703   2.214   4.503  16.917 -0.3652  0.1005  0.2514
14071TIP3    H163704   2.209   4.595  16.941 -1.3119 -0.0795  0.7773
14071TIP3    H263705   2.299   4.475  16.951  0.3613  0.9991 -0.7584
14072TIP3   OH263706   3.755   5.336  14.183 -0.3901  0.2108  0.0113
14072TIP3    H163707   3.827   5.369  14.236 -0.5858 -0.9759  1.0678
14072TIP3    H263708   3.696   5.294  14.245 -0.8965 -0.7698 -1.0807
14073TIP3   OH263709   4.461   5.739   4.110  0.2585 -0.4682  0.4669
14073TIP3    H163710   4.449   5.776   4.023  1.5930  0.2869  0.5785
14073TIP3    H263711   4.374   5.710   4.136 -0.4453  0.6808 -0.4990
14074TIP3   OH263712   0.450   1.093  11.284  0.0691  0.1159 -0.1966
14074TIP3    H163713   0.454   1.047  11.201 -0.4902  1.7193 -1.1570
14074TIP3    H263714   0.526   1.063  11.333  0.5019 -0.7146 -1.3523
14075TIP3   OH263715   0.027   2.151  15.285 -0.0442  0.2864 -0.1604
14075TIP3    H163716   0.025   2.207  15.363 -0.7725  1.2654 -0.8676
14075TIP3    H263717  -0.064   2.125  15.272  0.0806  0.1152 -0.6816
14076TIP3   OH263718   4.214   6.755   5.768 -0.0866  0.1030 -0.2384
14076TIP3    H163719   4.128   6.796   5.762 -0.0905  0.1979  0.3725
14076TIP3    H263720   4.243   6.773   5.857 -0.0684 -1.1814  0.0403
14077TIP3   OH263721   4.967   0.246   3.258  0.5466 -0.2471  0.4926
14077TIP3    H163722   4.917   0.261   3.338  0.6839  0.5998  0.4241
14077TIP3    H263723   5.036   0.311   3.260  0.0424  0.3515 -0.7286
14078TIP3   OH263724   4.244   4.771  13.932 -0.0493  0.0622  0.5160
14078TIP3    H163725   4.201   4.691  13.961  0.3671  0.3715  2.1088
14078TIP3    H263726   4.337   4.755  13.945  0.0004  1.0613  1.7000
14079TIP3   OH263727   3.884   4.580  16.898 -0.4574  0.0868 -0.2731
14079TIP3    H163728   3.837   4.512  16.946  0.1361 -1.4124 -1.6953
14079TIP3    H263729   3.817   4.623  16.845 -0.6283 -0.3807 -0.4454
14080TIP3   OH263730   2.711   3.160   3.837  0.7611  0.3740  0.0084
14080TIP3    H163731   2.754   3.237   3.873 -1.0389  0.9674  1.0064
14080TIP3    H263732   2.756   3.086   3.878  2.0321  0.9006 -0.4049
14081TIP3   OH263733   6.120   3.932  13.877  0.3215 -0.0697 -0.4399
14081TIP3    H163734   6.076   3.949  13.793 -0.8244  0.3772  0.2362
14081TIP3    H263735   6.146   3.840  13.872 -0.0711 -0.1502 -1.1446
14082TIP3   OH263736   4.250   2.265   3.573 -0.2542  0.2213  0.5730
14082TIP3    H163737   4.171   2.213   3.564 -0.6135  1.0208 -1.2039
14082TIP3    H263738   4.237   2.341   3.516  2.3257 -0.3035 -0.8855
14083TIP3   OH263739   0.674   6.254  16.374  0.1492 -1.1190 -0.8135
14083TIP3    H163740   0.583   6.222  16.373  0.3474 -1.9523  1.2832
14083TIP3    H263741   0.666   6.347  16.396 -0.2527 -0.7229 -2.5413
14084TIP3   OH263742   4.845   0.874   1.219 -0.0590 -0.3597  0.1784
14084TIP3    H163743   4.939   0.884   1.237 -0.3033 -1.5607  2.5170
14084TIP3    H263744   4.839   0.796   1.165  0.2228 -1.2660  1.4076
14085TIP3   OH263745   6.621   1.960  13.426  0.1769 -0.3340 -0.6655
14085TIP3    H163746   6.716   1.951  13.437  0.0407 -0.4211  0.4596
14085TIP3    H263747   6.598   1.890  13.364  0.8295 -0.3606 -0.8870
14086TIP3   OH263748   6.617   6.678  12.891 -0.3599 -0.0066 -0.5548
14086TIP3    H163749   6.708   6.675  12.862 -0.2357 -0.9987 -0.1054
14086TIP3    H263750   6.582   6.592  12.868 -1.5827  0.8172 -1.9386
14087TIP3   OH263751   3.470   3.047  12.269  0.0509  0.0262 -0.3966
14087TIP3    H163752   3.489   3.091  12.186 -1.1597 -1.2642 -1.4286
14087TIP3    H263753   3.555   3.030  12.308  0.6081  1.5630 -0.8610
14088TIP3   OH263754   3.616   5.400  14.910 -0.3675 -0.8417  0.2561
14088TIP3    H163755   3.647   5.359  14.991 -0.4155 -1.0865  0.1549
14088TIP3    H263756   3.680   5.468  14.890 -1.1694  0.2680  1.3270
14089TIP3   OH263757   5.671   4.290   1.671 -0.3187 -0.2865  0.0825
14089TIP3    H163758   5.656   4.376   1.709  2.1522  0.7077 -0.9658
14089TIP3    H263759   5.693   4.308   1.579 -0.2307 -2.0694 -0.2883
14090TIP3   OH263760   6.086   3.279  14.696  0.1194  0.1674  0.0273
14090TIP3    H163761   6.119   3.300  14.609 -1.4101 -0.7851 -0.8454
14090TIP3    H263762   6.102   3.357  14.748 -1.3703  1.8375 -1.8597
14091TIP3   OH263763   5.894   0.912   5.039  0.0534 -0.5336  1.1054
14091TIP3    H163764   5.839   0.908   4.961  0.2092  1.2903  0.8558
14091TIP3    H263765   5.888   1.003   5.067  1.7716 -0.6541  1.9380
14092TIP3   OH263766   1.630   0.738   3.723  0.3006 -0.7824 -0.1783
14092TIP3    H163767   1.696   0.752   3.655  0.6612 -1.3424  0.0415
14092TIP3    H263768   1.567   0.677   3.683 -1.2561  1.3382 -1.1299
14093TIP3   OH263769   3.681   0.024  15.550  0.3264  0.1211  0.1245
14093TIP3    H163770   3.635   0.035  15.633  0.5093  0.2403  0.2098
14093TIP3    H263771   3.642  -0.055  15.511 -0.8530  0.9455 -0.4039
14094TIP3   OH263772   4.262   6.467   5.725 -0.0837 -0.1303  0.1870
14094TIP3    H163773   4.355   6.480   5.743 -0.1425  0.2953  0.1993
14094TIP3    H263774   4.227   6.556   5.717 -0.4783 -0.2904  0.1326
14095TIP3   OH263775   2.854   5.202   1.578  0.1779 -0.3595  0.1160
14095TIP3    H163776   2.877   5.242   1.662 -2.8512 -0.4756  1.1494
14095TIP3    H263777   2.937   5.193   1.532  2.0556 -0.6004  3.2235
14096TIP3   OH263778   1.051   0.998   5.162  0.4069  0.3043  0.1114
14096TIP3    H163779   1.074   0.911   5.131 -0.7208  0.4644 -1.2617
14096TIP3    H263780   1.075   1.056   5.090 -1.4094  0.7936 -0.1607
14097TIP3   OH263781   0.183   0.794  11.581 -0.4799  0.0618 -0.3311
14097TIP3    H163782   0.143   0.796  11.668 -0.0472 -0.7026 -0.1089
14097TIP3    H263783   0.132   0.858  11.531 -1.1923  0.0009  0.2805
14098TIP3   OH263784   4.379   4.973   3.713 -0.2019  0.3999  0.0601
14098TIP3    H163785   4.473   4.980   3.731 -0.1909  0.2957  0.0457
14098TIP3    H263786   4.338   5.016   3.788 -0.1060  2.6967 -1.1284
14099TIP3   OH263787   6.078   2.496  17.214 -0.1601 -0.2323  0.1907
14099TIP3    H163788   6.036   2.490  17.300  0.1463  1.1370  0.4520
14099TIP3    H263789   6.167   2.526  17.232  0.0988 -0.5229 -0.5605
14100TIP3   OH263790   1.479   3.785   5.700  0.4376  0.2977  0.1184
14100TIP3    H163791   1.472   3.875   5.730  0.2162 -0.0257  1.0612
14100TIP3    H263792   1.478   3.732   5.780  0.8732 -0.5259 -0.4025
14101TIP3   OH263793   3.752   3.943  11.459 -0.0945  0.7122  0.5167
14101TIP3    H163794   3.786   3.999  11.389  0.1561  0.7060  0.6298
14101TIP3    H263795   3.796   3.859  11.446 -1.1256  0.2619 -0.1795
14102TIP3   OH263796   5.229   0.773  16.836  0.5154 -0.2930  0.0942
14102TIP3    H163797   5.293   0.757  16.766 -0.2470  0.6110 -0.8417
14102TIP3    H263798   5.191   0.859  16.815 -3.7421 -2.3068 -1.5658
14103TIP3   OH263799   5.711   4.088   6.140 -0.9084  0.5834  0.3652
14103TIP3    H163800   5.669   4.116   6.221 -2.0869  0.4874 -0.1931
14103TIP3    H263801   5.650   4.115   6.071 -0.1625  0.2110 -0.4536
14104TIP3   OH263802   0.007   3.132  12.078 -0.1777 -0.1376  0.1108
14104TIP3    H163803   0.071   3.170  12.138  1.3287  0.0211 -1.5305
14104TIP3    H263804  -0.078   3.154  12.117  0.6885  2.1663  0.8662
14105TIP3   OH263805   1.955   1.340  12.940 -0.0636  0.6650 -0.1574
14105TIP3    H163806   1.934   1.339  12.847 -0.0218  0.9144 -0.1714
14105TIP3    H263807   1.947   1.432  12.966  1.4756  0.8706 -0.2800
14106TIP3   OH263808   0.531   0.258   2.000 -0.4603 -0.6968 -0.4953
14106TIP3    H163809   0.507   0.176   2.044 -1.5539  0.0016  0.2630
14106TIP3    H263810   0.621   0.245   1.972 -0.2945 -1.7960  0.4865
14107TIP3   OH263811   3.756   3.059   0.694  0.4265  0.2931  0.8562
14107TIP3    H163812   3.680   3.109   0.725 -1.8109 -2.4915  0.3316
14107TIP3    H263813   3.781   3.005   0.769  1.1259  0.3222  0.6497
14108TIP3   OH263814   1.128   3.198   2.209 -0.3668  0.0535 -0.0763
14108TIP3    H163815   1.057   3.135   2.220 -0.9650  0.5358 -1.0114
14108TIP3    H263816   1.105   3.271   2.267  1.7890 -1.6910  3.2829
14109TIP3   OH263817   5.775   4.734   5.993 -0.3842 -0.7320 -0.5402
14109TIP3    H163818   5.763   4.779   6.077 -0.6390  0.4847 -1.2067
14109TIP3    H263819   5.760   4.802   5.927  4.5866 -0.2735 -1.5939
14110TIP3   OH263820   2.764   3.124  11.450  0.1769 -0.2247  0.4846
14110TIP3    H163821   2.719   3.121  11.534 -1.2052  1.6390 -0.1238
14110TIP3    H263822   2.714   3.067  11.392 -0.1149  0.1266  0.3877
14111TIP3   OH263823   3.786   1.638  11.010 -0.1761 -0.0437 -0.3606
14111TIP3    H163824   3.777   1.653  10.915 -1.6531  0.6043 -0.1539
14111TIP3    H263825   3.870   1.594  11.019  2.0699  3.5705 -1.5789
14112TIP3   OH263826   6.193   3.467  12.172  0.1374  0.1892  0.0164
14112TIP3    H163827   6.149   3.552  12.159 -0.5933 -0.2087 -0.1670
14112TIP3    H263828   6.265   3.486  12.231  0.0174  0.9565 -0.0727
14113TIP3   OH263829   2.449   3.796  15.637 -0.0975 -0.1173 -0.4462
14113TIP3    H163830   2.474   3.716  15.591 -1.1960 -1.2010  0.7848
14113TIP3    H263831   2.367   3.774  15.682 -0.5896  1.7917 -0.3147
14114TIP3   OH263832   5.096   3.589  15.533  0.3795 -0.1668 -0.1061
14114TIP3    H163833   5.135   3.676  15.535 -0.7289  0.3176  1.4087
14114TIP3    H263834   5.075   3.575  15.440  0.1030  1.3754 -0.2960
14115TIP3   OH263835   6.298   6.816  13.072 -0.3526 -0.0072 -0.2826
14115TIP3    H163836   6.252   6.898  13.058  0.6009  0.5718 -0.0984
14115TIP3    H263837   6.364   6.836  13.138 -1.1956 -1.3345  1.0341
14116TIP3   OH263838   2.399   1.855  16.447  0.2596  0.0333  0.1980
14116TIP3    H163839   2.375   1.946  16.429 -2.2301 -0.2144  1.6737
14116TIP3    H263840   2.436   1.857  16.535  0.0886 -0.3711  0.2831
14117TIP3   OH263841   3.790   5.446   1.948  0.1947  0.2131 -0.4857
14117TIP3    H163842   3.808   5.540   1.954  0.2259  0.2106 -0.5382
14117TIP3    H263843   3.777   5.430   1.854 -2.4765  0.6524 -0.2693
14118TIP3   OH263844   3.201   2.327   5.635  0.3849 -0.4985 -0.1831
14118TIP3    H163845   3.114   2.316   5.598  0.7360  1.1849 -1.6581
14118TIP3    H263846   3.259   2.283   5.573  0.7049 -0.4318  0.0668
14119TIP3   OH263847   3.962   3.035  11.206  0.3275 -0.2765  0.4126
14119TIP3    H163848   4.046   3.079  11.201  0.4050 -0.5453 -2.6002
14119TIP3    H263849   3.905   3.087  11.149 -1.3341 -0.6144  1.6825
14120TIP3   OH263850   3.375   5.258  15.071 -0.7065 -0.0561  0.2698
14120TIP3    H163851   3.465   5.229  15.082 -0.5050  0.5921  0.3288
14120TIP3    H263852   3.326   5.208  15.136 -0.6531 -1.5781 -0.7971
14121TIP3   OH263853   5.634   4.091   3.132  0.5534  0.0266 -0.3507
14121TIP3    H163854   5.618   4.069   3.224 -0.4834  2.5974  0.1488
14121TIP3    H263855   5.728   4.112   3.129  1.1520 -2.3557 -0.4672
14122TIP3   OH263856   0.528   4.002   1.321 -0.4716 -0.2602 -0.4681
14122TIP3    H163857   0.489   4.083   1.354 -0.4549 -0.4337 -0.0102
14122TIP3    H263858   0.546   4.019   1.229  0.4095  0.5927 -0.1544
14123TIP3   OH263859   3.052   2.831  11.363 -0.0896  0.0935  0.2262
14123TIP3    H163860   2.985   2.848  11.429  1.3055 -0.3632  1.8211
14123TIP3    H263861   3.129   2.806  11.413  0.7143 -1.3594 -1.6379
14124TIP3   OH263862   6.056   5.567   4.654 -0.0695  0.1202  0.2152
14124TIP3    H163863   6.009   5.483   4.649  0.6220 -0.1990 -2.2125
14124TIP3    H263864   6.103   5.573   4.571 -1.5227  3.7865 -0.5377
14125TIP3   OH263865   2.763   3.392  11.265  0.0595  0.2056 -0.1509
14125TIP3    H163866   2.670   3.396  11.288 -0.0358 -0.0235 -0.4972
14125TIP3    H263867   2.798   3.323  11.321  0.0367  0.3426  0.0326
14126TIP3   OH263868   4.330   5.412  12.887  0.6168 -0.2815  0.5113
14126TIP3    H163869   4.357   5.498  12.854  1.1034 -0.7801 -0.4127
14126TIP3    H263870   4.409   5.377  12.928  0.1881  0.0598  1.6761
14127TIP3   OH263871   0.541   2.997   3.702 -0.0699  0.0337 -0.1586
14127TIP3    H163872   0.570   3.000   3.794 -0.0149  0.5291 -0.1926
14127TIP3    H263873   0.447   2.984   3.707  0.0064 -0.5204 -0.0395
14128TIP3   OH263874   5.243   4.461   2.674 -0.0702 -0.0742 -0.8830
14128TIP3    H163875   5.281   4.433   2.757 -1.7512 -0.8737 -0.3550
14128TIP3    H263876   5.318   4.463   2.613  0.9676 -0.6919  0.3272
14129TIP3   OH263877   1.309   0.868  13.604  0.0694 -0.0643  0.3746
14129TIP3    H163878   1.372   0.933  13.572  0.4851 -0.5594  0.1746
14129TIP3    H263879   1.346   0.784  13.578 -0.8487 -0.3524 -0.0422
14130TIP3   OH263880   4.782   5.457  14.049  0.2651  0.0890  0.4154
14130TIP3    H163881   4.861   5.420  14.089 -0.8229 -1.6336  1.0650
14130TIP3    H263882   4.802   5.457  13.955  1.8312  1.7030  0.6966
14131TIP3   OH263883   6.514   5.646  13.622  0.4020  0.0394 -0.3662
14131TIP3    H163884   6.450   5.715  13.603 -1.3848 -1.8314 -1.4783
14131TIP3    H263885   6.592   5.672  13.573  0.1275  1.7506  0.0367
14132TIP3   OH263886   4.026   2.422  13.455 -0.4020 -0.4940 -0.2669
14132TIP3    H163887   4.075   2.384  13.383  0.6873 -0.6998  0.5538
14132TIP3    H263888   3.942   2.376  13.454  0.0276 -1.2847 -0.7053
14133TIP3   OH263889   6.755   2.689  13.103  0.0047 -0.4368 -0.1635
14133TIP3    H163890   6.679   2.631  13.109  0.2413 -1.3505 -3.7566
14133TIP3    H263891   6.719   2.773  13.077 -0.0263  0.2094  1.8072
14134TIP3   OH263892   1.634   4.603   3.433 -0.1825 -0.0503  0.1774
14134TIP3    H163893   1.722   4.590   3.469 -0.3266  0.2192  0.6507
14134TIP3    H263894   1.596   4.671   3.489 -1.2095 -1.1771  0.9029
14135TIP3   OH263895   5.174   2.041   0.029  0.6224  0.5717  0.2305
14135TIP3    H163896   5.125   2.034   0.111  1.1801 -0.1953  0.5023
14135TIP3    H263897   5.204   2.132   0.027  1.6329  0.2924  1.4756
14136TIP3   OH263898   0.370   1.830  13.533  0.2707  0.3433  0.3534
14136TIP3    H163899   0.408   1.791  13.612  0.0885  0.6147  0.5753
14136TIP3    H263900   0.404   1.920  13.531 -1.1864  0.9396  1.1316
14137TIP3   OH263901   2.377   1.315  12.740  0.0046  0.1262 -0.1466
14137TIP3    H163902   2.416   1.235  12.775  0.3762  0.4392  0.1705
14137TIP3    H263903   2.414   1.324  12.653  1.1006  0.7224  0.3652
14138TIP3   OH263904   2.531   3.335   0.989  0.0839  0.0988  0.0524
14138TIP3    H163905   2.520   3.269   0.920  0.9478 -0.4344  0.4121
14138TIP3    H263906   2.506   3.418   0.946 -2.8338 -0.6261  0.1073
14139TIP3   OH263907   0.782   4.313  11.211 -0.1454  0.3603  0.0086
14139TIP3    H163908   0.863   4.279  11.251  1.6758  2.2805 -1.7639
14139TIP3    H263909   0.798   4.408  11.204 -2.9413  0.9169  0.3431
14140TIP3   OH263910   5.007   2.150  14.333  1.6145 -0.0998 -0.0625
14140TIP3    H163911   5.086   2.145  14.388  1.2674 -0.0259  0.4484
14140TIP3    H263912   4.959   2.226  14.368  1.6525  0.2777 -0.8202
14141TIP3   OH263913   1.874   3.502  16.679  0.1759  0.1797 -0.2204
14141TIP3    H163914   1.934   3.429  16.696  0.2212  0.4661  0.9013
14141TIP3    H263915   1.844   3.529  16.765  1.1740  2.3418 -0.4816
14142TIP3   OH263916   5.202   3.730   6.386 -0.1734 -0.3825 -0.2695
14142TIP3    H163917   5.214   3.673   6.462 -1.0527 -2.0989 -1.3449
14142TIP3    H263918   5.180   3.816   6.423 -1.3320 -1.3522  1.4031
14143TIP3   OH263919   5.497   1.129  15.796  0.2802 -0.8575 -0.1086
14143TIP3    H163920   5.550   1.203  15.767 -2.4558  1.1457 -0.3729
14143TIP3    H263921   5.454   1.098  15.717 -0.8260 -0.8143  0.4591
14144TIP3   OH263922   2.178   6.123   5.396 -0.0528  0.2461 -0.5524
14144TIP3    H163923   2.191   6.050   5.456 -0.4277  0.4333 -0.2384
14144TIP3    H263924   2.220   6.096   5.314  0.2005 -0.1308 -0.2957
14145TIP3   OH263925   5.652   4.139  14.936 -0.2622  0.3580 -0.4375
14145TIP3    H163926   5.582   4.186  14.890 -0.6265  0.7902  0.5285
14145TIP3    H263927   5.618   4.128  15.025 -0.0257 -1.4214 -0.5389
14146TIP3   OH263928   4.484   2.145   1.974 -0.1211  0.5635  0.0990
14146TIP3    H163929   4.456   2.075   2.034 -1.4494  0.8214 -0.1746
14146TIP3    H263930   4.424   2.138   1.900  1.2054  0.5447 -1.0062
14147TIP3   OH263931   1.971   5.212   3.059  0.5212 -0.2117 -0.5725
14147TIP3    H163932   1.986   5.240   3.149 -0.1633 -3.9438  0.9080
14147TIP3    H263933   1.890   5.162   3.062 -0.1269  0.4498 -3.5576
14148TIP3   OH263934   4.530   6.199  14.065  0.3477  0.4866 -0.7466
14148TIP3    H163935   4.540   6.118  14.016  0.7303  0.9955 -1.5434
14148TIP3    H263936   4.571   6.181  14.150 -2.0500 -1.0302  0.1658
14149TIP3   OH263937   0.063   4.066   0.153 -0.1161 -0.5260  0.4616
14149TIP3    H163938   0.103   4.152   0.165 -0.7481 -0.5008  3.2511
14149TIP3    H263939   0.089   4.039   0.065  2.9687  1.0000  0.7672
14150TIP3   OH263940   2.604   5.655  12.791  0.2653 -0.0574 -0.6737
14150TIP3    H163941   2.605   5.685  12.882  1.2917  1.7829 -1.2429
14150TIP3    H263942   2.658   5.576  12.791  0.4597  0.0634  0.2823
14151TIP3   OH263943   4.058   2.801   3.034  0.2833 -0.6516 -0.3544
14151TIP3    H163944   4.022   2.755   3.110 -0.0195  0.3675  0.1383
14151TIP3    H263945   3.982   2.832   2.986  0.4797 -0.6488 -0.6661
14152TIP3   OH263946   5.814   1.625   6.715 -0.9245  0.1324  0.1810
14152TIP3    H163947   5.743   1.686   6.733 -0.6793  0.1922  0.9688
14152TIP3    H263948   5.774   1.538   6.722 -1.0366  0.1771  0.1021
14153TIP3   OH263949   3.504   5.594   4.202 -0.2738 -0.3564  0.0762
14153TIP3    H163950   3.599   5.605   4.195 -0.5864  2.1789 -1.7373
14153TIP3    H263951   3.492   5.526   4.268  2.7813 -0.6165  0.4947
14154TIP3   OH263952   4.530   2.581  11.499 -0.4415 -0.6087  0.1264
14154TIP3    H163953   4.618   2.547  11.514  1.3092  2.7533 -1.2558
14154TIP3    H263954   4.503   2.543  11.415  1.1272  0.6474 -1.0106
14155TIP3   OH263955   4.860   6.403   6.206  0.1216 -0.3231 -0.1571
14155TIP3    H163956   4.934   6.446   6.164  0.2264 -1.4657 -1.2141
14155TIP3    H263957   4.898   6.324   6.246 -0.1885  0.1305  1.0873
14156TIP3   OH263958   6.080   0.244   4.243  0.0399 -0.3743  0.7217
14156TIP3    H163959   6.112   0.154   4.243  0.0230 -0.4035 -0.7604
14156TIP3    H263960   5.991   0.238   4.207  0.3347  0.3175 -0.1536
14157TIP3   OH263961   3.512   2.485   2.691  0.2353  0.0150  0.0223
14157TIP3    H163962   3.532   2.422   2.622  0.3230 -1.2932  1.1743
14157TIP3    H263963   3.552   2.567   2.663  2.2809 -1.0746 -0.3975
14158TIP3   OH263964   1.894   4.247  16.275 -0.4291 -0.5463 -0.4277
14158TIP3    H163965   1.931   4.258  16.188 -2.6059  0.4357 -1.3018
14158TIP3    H263966   1.938   4.313  16.329 -2.3215  2.1516 -1.9530
14159TIP3   OH263967   3.759   1.402  13.019 -1.0005 -0.5405 -0.2566
14159TIP3    H163968   3.709   1.483  13.030  0.1500  0.1938 -0.3660
14159TIP3    H263969   3.698   1.333  13.047 -1.5471  0.4672  1.1454
14160TIP3   OH263970   1.223   0.790  14.840 -0.0839  0.5827 -0.3671
14160TIP3    H163971   1.135   0.816  14.869  0.7227  0.4964  2.4330
14160TIP3    H263972   1.271   0.872  14.829  0.4033  0.5697  1.4164
14161TIP3   OH263973   2.452   6.674   0.949 -0.1931 -0.0823  0.5152
14161TIP3    H163974   2.406   6.719   1.020 -0.5231  1.9303 -0.9093
14161TIP3    H263975   2.384   6.655   0.884  0.6139  1.1232 -0.7280
14162TIP3   OH263976   5.161   3.113  14.655  0.0298 -0.9781 -0.2059
14162TIP3    H163977   5.147   3.164  14.734 -1.4493 -1.5416 -0.0752
14162TIP3    H263978   5.224   3.165  14.604 -0.4348  0.3216  0.4903
14163TIP3   OH263979   2.720   3.318  17.076  0.1682  0.7823 -0.1391
14163TIP3    H163980   2.649   3.269  17.036  2.5182 -0.7487 -2.8078
14163TIP3    H263981   2.687   3.342  17.163 -3.1268 -0.7385 -0.8245
14164TIP3   OH263982   5.902   2.912   0.538 -0.4335 -0.4106 -0.2189
14164TIP3    H163983   5.987   2.908   0.582 -0.5357  0.3262  0.0678
14164TIP3    H263984   5.914   2.864   0.456  0.7164  1.0257 -0.9343
14165TIP3   OH263985   4.108   3.094   2.083 -0.0378  0.4606  0.2731
14165TIP3    H163986   4.144   3.037   2.015 -1.7912  0.6584 -0.9064
14165TIP3    H263987   4.055   3.158   2.035  0.4930  2.0397  1.6824
14166TIP3   OH263988   3.176   0.044   5.105 -0.1874  0.1633  0.5073
14166TIP3    H163989   3.132  -0.040   5.120 -1.9671  1.2222  1.6452
14166TIP3    H263990   3.229   0.057   5.183  0.2721  0.0060  0.2255
14167TIP3   OH263991   4.789   2.113   5.588 -0.2655 -0.4284 -0.2513
14167TIP3    H163992   4.842   2.184   5.623 -1.3091  0.8626 -1.1993
14167TIP3    H263993   4.699   2.136   5.611 -0.9988  0.4137 -3.4728
14168TIP3   OH263994   2.131   5.476  13.949  0.1277  0.0543 -0.5132
14168TIP3    H163995   2.060   5.421  13.918  0.3798 -0.5299 -0.0646
14168TIP3    H263996   2.211   5.431  13.923  0.3618  1.1480 -1.8073
14169TIP3   OH263997   1.673   6.260  11.109 -0.4705 -0.4054 -0.3205
14169TIP3    H163998   1.685   6.171  11.143 -1.5789 -0.2601  0.5200
14169TIP3    H263999   1.680   6.250  11.014  0.8995 -1.1237 -0.1667
14170TIP3   OH264000   1.359   0.569  17.234 -0.0371 -0.3654  0.0166
14170TIP3    H164001   1.448   0.596  17.210 -0.2969 -0.2768 -0.8868
14170TIP3    H264002   1.310   0.573  17.152 -1.0524  0.2568  0.6435
14171TIP3   OH264003   1.954   2.120   1.593  0.2629  0.7639 -0.2200
14171TIP3    H164004   2.011   2.044   1.577 -0.7403  0.3104 -1.9631
14171TIP3    H264005   2.014   2.194   1.595  1.3278 -0.0703  2.0175
14172TIP3   OH264006   5.727   4.904   3.919 -0.3250 -0.2440  0.0277
14172TIP3    H164007   5.809   4.913   3.968  1.1184 -1.3858 -2.0301
14172TIP3    H264008   5.708   4.811   3.922  0.3351 -0.5244 -2.2661
14173TIP3   OH264009   6.439   0.445  15.658  0.2516  0.3644  0.3905
14173TIP3    H164010   6.496   0.427  15.583  1.9937 -0.3536  1.8335
14173TIP3    H264011   6.351   0.441  15.622  1.0497  0.9315 -1.8075
14174TIP3   OH264012   6.167   4.014  11.534 -0.2017  0.0181  0.1659
14174TIP3    H164013   6.248   3.999  11.486  0.2247 -1.1075  1.1703
14174TIP3    H264014   6.098   4.001  11.470  0.4017  0.9896 -0.7015
14175TIP3   OH264015   2.719   2.813  14.827  0.1693  0.0427 -0.1862
14175TIP3    H164016   2.706   2.718  14.835  2.3059 -0.6311 -3.0666
14175TIP3    H264017   2.638   2.845  14.786 -0.1210 -0.7277 -0.2257
14176TIP3   OH264018   6.544   4.983   6.317 -0.1659  0.1452  0.1226
14176TIP3    H164019   6.576   4.915   6.257  0.4835  0.5803 -0.0378
14176TIP3    H264020   6.623   5.027   6.347 -0.6238  1.4801 -0.5511
14177TIP3   OH264021   2.604   2.513   0.368  0.7895  0.4987 -0.3121
14177TIP3    H164022   2.673   2.510   0.302  0.4506  0.8325 -0.6874
14177TIP3    H264023   2.642   2.562   0.441  0.8731  0.8825 -0.6104
14178TIP3   OH264024   2.030   0.068  10.506  0.1160  0.4633 -0.1401
14178TIP3    H164025   2.068  -0.018  10.523  1.6253  1.6252  3.2654
14178TIP3    H264026   1.973   0.055  10.430  0.1352 -3.5418  0.3416
14179TIP3   OH264027   0.637   1.508   3.919 -0.1072  0.0793 -0.0901
14179TIP3    H164028   0.698   1.567   3.876 -0.0655  1.3339  1.5715
14179TIP3    H264029   0.575   1.483   3.851  0.5765  1.0847 -1.1167
14180TIP3   OH264030   1.804   3.154   1.820 -0.0466 -0.0344 -0.0275
14180TIP3    H164031   1.766   3.127   1.904 -0.6673 -0.0733 -0.3155
14180TIP3    H264032   1.898   3.159   1.837 -0.0812 -0.8135  0.4638
14181TIP3   OH264033   5.593   4.249   0.526  0.0688 -0.3013 -0.1916
14181TIP3    H164034   5.503   4.245   0.558  0.1615 -0.2863  0.0746
14181TIP3    H264035   5.647   4.248   0.606  0.3195 -0.7969 -0.3613
14182TIP3   OH264036   2.408   1.016  14.338 -0.2335  0.0986  0.1713
14182TIP3    H164037   2.495   1.031  14.375  0.4414 -0.4058 -1.1260
14182TIP3    H264038   2.382   0.930  14.370  0.5238 -0.5175 -0.7971
14183TIP3   OH264039   3.523   4.683   2.011 -0.6107 -0.5141  0.1980
14183TIP3    H164040   3.556   4.737   1.939 -1.4897  0.8696  0.7965
14183TIP3    H264041   3.602   4.656   2.059 -0.2039  2.0143  1.0952
14184TIP3   OH264042   1.277   6.322  13.958 -0.1181 -0.3363 -0.1310
14184TIP3    H164043   1.197   6.331  13.907 -0.6253  0.5377  0.7965
14184TIP3    H264044   1.249   6.284  14.041  0.5308 -0.6286 -0.0349
14185TIP3   OH264045   0.495   2.521   4.199  0.1236  0.3042  0.2616
14185TIP3    H164046   0.453   2.598   4.239  3.9857  2.6785  0.2453
14185TIP3    H264047   0.537   2.476   4.272  2.3558  1.3810 -0.2696
14186TIP3   OH264048   0.164   4.143   2.118  0.7353  0.0765  0.0223
14186TIP3    H164049   0.136   4.191   2.040 -1.6415  0.5717  1.0855
14186TIP3    H264050   0.097   4.164   2.184  1.3627 -2.1917  1.4762
14187TIP3   OH264051   4.216   4.513   4.850  0.0633 -0.0552  0.1669
14187TIP3    H164052   4.141   4.505   4.790 -0.2185 -0.1290  0.5218
14187TIP3    H264053   4.261   4.429   4.843 -1.0936 -0.8435  1.5245
14188TIP3   OH264054   5.210   6.501   3.370 -0.4701 -0.6385  0.1356
14188TIP3    H164055   5.118   6.488   3.347 -0.3667  0.6754 -1.1457
14188TIP3    H264056   5.258   6.463   3.297 -0.0086 -0.6430  0.4371
14189TIP3   OH264057   0.439   1.422  16.646 -0.4683 -0.1480 -0.0002
14189TIP3    H164058   0.485   1.500  16.677 -1.0657  0.3030 -0.2408
14189TIP3    H264059   0.495   1.390  16.574 -0.1291 -0.0468  0.2157
14190TIP3   OH264060   5.181   4.751   2.091  0.1463 -0.3245  0.3773
14190TIP3    H164061   5.274   4.765   2.107  0.2144  0.5954 -0.7173
14190TIP3    H264062   5.178   4.671   2.039  0.4499  0.2859 -0.6225
14191TIP3   OH264063   2.851   1.108   1.620  0.1534  0.0365 -0.5838
14191TIP3    H164064   2.831   1.045   1.551  0.0292  0.1807 -0.6829
14191TIP3    H264065   2.943   1.129   1.609 -0.3701  1.8447 -2.2270
14192TIP3   OH264066   3.945   4.048   3.188 -0.3879  1.1399  0.2539
14192TIP3    H164067   3.955   4.071   3.281 -0.2738  3.2492 -0.2361
14192TIP3    H264068   4.028   4.007   3.165 -0.4096  0.6033  1.0658
14193TIP3   OH264069   4.094   4.443  12.261  0.1748  0.2068 -0.0847
14193TIP3    H164070   4.101   4.531  12.299  1.1765  0.2866 -0.4231
14193TIP3    H264071   4.144   4.448  12.179 -1.4491 -0.1254 -1.1483
14194TIP3   OH264072   5.596   6.563  12.451 -0.0814  0.1985 -0.9687
14194TIP3    H164073   5.618   6.647  12.410  0.6492 -1.3233 -3.9596
14194TIP3    H264074   5.539   6.520  12.387 -0.8069 -1.4585  0.6980
14195TIP3   OH264075   2.560   0.606  12.718 -0.1401 -0.0181 -0.0296
14195TIP3    H164076   2.650   0.576  12.702 -0.4950 -0.8103 -0.6498
14195TIP3    H264077   2.505   0.536  12.682 -1.0131  0.9545 -0.6550
14196TIP3   OH264078   1.371   2.777   4.062  0.5897  0.2066  0.5761
14196TIP3    H164079   1.297   2.802   4.117  0.7704 -1.1294  1.4944
14196TIP3    H264080   1.410   2.702   4.108  1.9487  0.2989 -0.3686
14197TIP3   OH264081   1.723   2.114   2.953 -0.5559  0.0614 -0.3708
14197TIP3    H164082   1.711   2.070   3.037  1.5340  1.2711  0.6515
14197TIP3    H264083   1.685   2.201   2.966  0.5963  0.5752 -0.3384
14198TIP3   OH264084   1.466   5.709   5.293 -0.6687  0.3155  0.3420
14198TIP3    H164085   1.525   5.654   5.242  0.9106  0.3899  1.9858
14198TIP3    H264086   1.387   5.717   5.238  0.1142 -1.2932 -1.1248
14199TIP3   OH264087   0.148   5.599   2.695  0.3787  0.6079 -0.6644
14199TIP3    H164088   0.067   5.556   2.669  1.2106 -1.0728 -0.6057
14199TIP3    H264089   0.152   5.588   2.790  0.6719  0.6553 -0.6698
14200TIP3   OH264090   2.534   4.914   1.320 -0.0204 -0.1765  0.3952
14200TIP3    H164091   2.585   4.928   1.400  1.9585 -0.2828 -0.7638
14200TIP3    H264092   2.473   4.987   1.317  0.8954  0.6653  1.2681
14201TIP3   OH264093   1.082   5.819  12.750 -0.2058 -0.2794  0.0284
14201TIP3    H164094   1.062   5.864  12.832  0.3695  0.1343 -0.0530
14201TIP3    H264095   1.022   5.858  12.686  0.2993  0.3949 -0.0462
14202TIP3   OH264096   0.838   5.760  16.623  0.2098  0.2425  0.3516
14202TIP3    H164097   0.806   5.695  16.561 -3.4813  1.0090  1.2361
14202TIP3    H264098   0.840   5.842  16.573  1.1109  0.1862  0.2673
14203TIP3   OH264099   2.885   6.063   4.939  0.2710 -0.0321  0.1913
14203TIP3    H164100   2.884   6.127   5.010 -0.0536  1.2042 -0.8937
14203TIP3    H264101   2.840   5.987   4.975 -0.2948  0.7402  1.1585
14204TIP3   OH264102   6.456   1.516   1.777  0.1208 -0.1946 -0.4038
14204TIP3    H164103   6.435   1.584   1.841  2.2435 -0.0049  0.1812
14204TIP3    H264104   6.427   1.553   1.693  0.6851  1.1925 -0.0196
14205TIP3   OH264105   4.568   4.481  12.481 -0.4108  0.0827 -0.1846
14205TIP3    H164106   4.557   4.504  12.573 -1.3703  0.3270 -0.3565
14205TIP3    H264107   4.492   4.427  12.460 -0.5274  0.5574 -1.0064
14206TIP3   OH264108   3.794   2.941  11.808  0.3802 -0.1805 -0.3177
14206TIP3    H164109   3.864   2.928  11.873  1.7871  1.9977 -1.2959
14206TIP3    H264110   3.840   2.951  11.725 -1.3151 -1.4353 -1.4827
14207TIP3   OH264111   0.060   4.117   4.804  0.2556 -0.2688 -0.6131
14207TIP3    H164112  -0.008   4.182   4.784  1.4779  0.9980 -0.8494
14207TIP3    H264113   0.014   4.034   4.806 -1.5001  0.6741  0.3682
14208TIP3   OH264114   3.632   3.926  10.454 -0.0816  0.0816  0.1042
14208TIP3    H164115   3.586   3.892  10.377 -1.0281 -0.8804  1.0645
14208TIP3    H264116   3.583   3.891  10.528  1.2586  0.3751  1.1536
14209TIP3   OH264117   6.011   6.516   3.748  0.2344 -0.0905  0.0471
14209TIP3    H164118   5.973   6.489   3.831  1.9980 -1.9211  0.3377
14209TIP3    H264119   6.101   6.542   3.769 -0.0571  1.9523 -0.9394
14210TIP3   OH264120   3.717   2.707  13.563  0.3826  0.5152 -0.3054
14210TIP3    H164121   3.804   2.687  13.598  0.2876  1.4578  0.5325
14210TIP3    H264122   3.686   2.780  13.617 -1.1082 -0.0758 -0.3066
14211TIP3   OH264123   5.853   3.378   1.037  0.4704  0.1044 -0.5106
14211TIP3    H164124   5.831   3.471   1.032  0.6709  0.0982 -1.9761
14211TIP3    H264125   5.873   3.353   0.947 -0.6188 -1.6304 -0.3189
14212TIP3   OH264126   1.263   6.555  14.998  0.0886 -0.3306  0.0100
14212TIP3    H164127   1.355   6.579  14.995 -0.2784  0.9991 -1.1675
14212TIP3    H264128   1.228   6.603  15.074  0.6955 -2.2429  1.5918
14213TIP3   OH264129   2.054   3.712   6.001 -0.7667  0.7106  0.6360
14213TIP3    H164130   2.107   3.732   6.079 -1.4952  3.1975  0.5867
14213TIP3    H264131   1.965   3.702   6.035 -0.9107  0.7040  0.2582
14214TIP3   OH264132   1.539   4.715   1.515  0.2249 -0.5696 -0.3999
14214TIP3    H164133   1.493   4.777   1.459 -0.1713 -0.2640  0.2411
14214TIP3    H264134   1.476   4.697   1.586  0.8812 -0.5926  0.1820
14215TIP3   OH264135   0.087   0.898  14.414 -0.6193 -0.1370 -0.0702
14215TIP3    H164136   0.098   0.832  14.346 -2.9289 -1.9312  1.1487
14215TIP3    H264137   0.123   0.858  14.493 -1.3627  0.3488  0.5290
14216TIP3   OH264138   3.321   3.736  11.690  0.0918  0.2537  0.3040
14216TIP3    H164139   3.393   3.799  11.686 -0.3753  0.7654 -0.1395
14216TIP3    H264140   3.330   3.696  11.777  0.5809  0.7095  0.4727
14217TIP3   OH264141   6.272   4.672   0.148  0.5020 -0.2210 -0.1397
14217TIP3    H164142   6.324   4.704   0.075 -0.0242  0.5217 -0.1956
14217TIP3    H264143   6.297   4.580   0.156  0.9615 -0.1730 -0.9061
14218TIP3   OH264144   1.336   0.192  11.074  1.1444  0.7117  0.0320
14218TIP3    H164145   1.387   0.174  10.994  1.4986  0.9120  0.2110
14218TIP3    H264146   1.248   0.214  11.042  0.9428 -0.4133 -0.2455
14219TIP3   OH264147   3.720   0.193   0.120 -0.2752 -0.3607  0.0535
14219TIP3    H164148   3.697   0.227   0.206  1.6439  2.3939 -0.3674
14219TIP3    H264149   3.655   0.230   0.061  0.5935  0.9802 -0.1163
14220TIP3   OH264150   5.564   3.796  12.615 -0.0843  0.2616 -0.0951
14220TIP3    H164151   5.551   3.701  12.610 -0.4828  0.3613 -0.9765
14220TIP3    H264152   5.546   3.817  12.707  1.5966 -0.7415  0.5343
14221TIP3   OH264153   0.517   5.112   3.561 -0.1788 -1.1400 -0.0853
14221TIP3    H164154   0.562   5.193   3.538 -0.1864 -0.8020  1.0374
14221TIP3    H264155   0.559   5.083   3.642 -0.2901 -2.1680 -0.3822
14222TIP3   OH264156   2.755   4.134   2.203  0.6802 -0.1148  0.3259
14222TIP3    H164157   2.749   4.197   2.275 -0.6599 -0.9362  0.9661
14222TIP3    H264158   2.783   4.186   2.128  0.5724  1.0515  1.0722
14223TIP3   OH264159   4.365   4.991  16.231  0.2573 -0.1497 -0.5274
14223TIP3    H164160   4.298   4.925  16.212  0.8490 -0.4223 -1.7749
14223TIP3    H264161   4.445   4.941  16.243  0.3825  0.2271  0.2413
14224TIP3   OH264162   0.081   5.331   3.140 -0.5067 -0.1981  0.7449
14224TIP3    H164163   0.148   5.377   3.192  0.1214 -0.6538  0.3442
14224TIP3    H264164  -0.001   5.371   3.168 -0.0802  0.3136  1.3094
14225TIP3   OH264165   6.138   4.960  11.978 -0.1483 -0.5427 -0.1744
14225TIP3    H164166   6.088   4.879  11.967 -1.0949 -0.3789  2.2719
14225TIP3    H264167   6.086   5.027  11.934 -1.3465 -0.6625  0.9827
14226TIP3   OH264168   3.239   5.523   4.423 -0.0972  0.2271  0.1682
14226TIP3    H164169   3.261   5.522   4.517  0.7546  1.5784  0.0122
14226TIP3    H264170   3.299   5.460   4.384 -0.4478 -0.3353  0.5186
14227TIP3   OH264171   5.532   3.936  13.363  0.0165  0.3431 -0.4150
14227TIP3    H164172   5.610   3.942  13.417 -0.1967  1.7017 -0.2181
14227TIP3    H264173   5.562   3.900  13.280  0.9549  1.3344 -0.5250
14228TIP3   OH264174   2.939   1.160  16.379  0.1096 -0.3801  1.2266
14228TIP3    H164175   2.925   1.207  16.296 -1.8581  1.0537  2.2935
14228TIP3    H264176   3.024   1.117  16.368  0.5665  0.9306 -0.9941
14229TIP3   OH264177   4.865   2.012  11.090 -0.7057  0.4725  0.4275
14229TIP3    H164178   4.787   2.052  11.128 -1.2777 -0.2150 -0.0042
14229TIP3    H264179   4.850   2.015  10.996 -0.0320  0.6927  0.3253
14230TIP3   OH264180   0.544   2.687  15.911  0.2108 -0.3450  0.5015
14230TIP3    H164181   0.553   2.752  15.841  2.4104 -0.2149  0.8274
14230TIP3    H264182   0.556   2.603  15.867  1.1118 -0.2902  0.6235
14231TIP3   OH264183   3.475   4.691   2.670 -0.1707  0.0515  0.0308
14231TIP3    H164184   3.419   4.613   2.665  1.1441 -1.1045  2.0249
14231TIP3    H264185   3.564   4.657   2.658  0.5173  1.0510  1.9711
14232TIP3   OH264186   6.550   0.442  10.498 -0.7892 -0.6767 -0.1338
14232TIP3    H164187   6.514   0.400  10.576 -0.2068 -0.4335  0.2748
14232TIP3    H264188   6.515   0.531  10.500  0.6695 -0.0662  0.8907
14233TIP3   OH264189   0.445   2.259   4.843  0.2373  0.7064  0.6435
14233TIP3    H164190   0.401   2.255   4.758 -0.7078  1.0201  1.1033
14233TIP3    H264191   0.391   2.207   4.901  1.1253  0.1149  0.9646
14234TIP3   OH264192   4.321   1.055   5.864  0.1892  0.2001 -0.0519
14234TIP3    H164193   4.299   1.048   5.771  0.5023  0.8172 -0.1745
14234TIP3    H264194   4.281   1.137   5.892  1.6761  0.9863 -0.1067
14235TIP3   OH264195   3.979   0.395  10.984 -0.3973  0.6294 -0.1006
14235TIP3    H164196   4.018   0.324  10.932 -0.9366  1.1858 -1.3086
14235TIP3    H264197   3.961   0.355  11.069  0.0797 -0.4439 -0.4767
14236TIP3   OH264198   2.831   3.457   2.430  0.1836  0.2166 -0.0199
14236TIP3    H164199   2.804   3.545   2.402  0.3153 -0.3414 -2.0767
14236TIP3    H264200   2.753   3.403   2.416  0.5687 -0.2861 -0.2185
14237TIP3   OH264201   2.032   4.209   3.700  0.4457 -0.1640 -0.6661
14237TIP3    H164202   2.078   4.136   3.740  0.3185 -0.8374 -1.7098
14237TIP3    H264203   2.061   4.209   3.608  2.0631  2.4000 -0.2588
14238TIP3   OH264204   1.764   5.205   1.121 -0.9568 -0.1796 -0.1303
14238TIP3    H164205   1.808   5.190   1.205 -1.7469  1.9281  0.7109
14238TIP3    H264206   1.834   5.200   1.056  0.0087  0.0922  0.8574
14239TIP3   OH264207   5.773   1.850   6.324  0.6490 -0.1834 -0.4538
14239TIP3    H164208   5.733   1.894   6.399 -1.8052 -1.4151 -0.9563
14239TIP3    H264209   5.865   1.879   6.326 -0.0468  2.2319  1.1769
14240TIP3   OH264210   3.097   3.934  13.910  0.0341 -0.7274  0.3506
14240TIP3    H164211   3.037   3.862  13.928 -0.0568 -1.0174 -0.9934
14240TIP3    H264212   3.058   4.009  13.955 -1.8484 -0.6937 -1.1958
14241TIP3   OH264213   6.678   5.207  16.360  0.4472  0.1059 -0.1959
14241TIP3    H164214   6.729   5.167  16.430  1.8557  0.0304 -1.2488
14241TIP3    H264215   6.684   5.147  16.287 -2.0868 -0.4535 -0.0509
14242TIP3   OH264216   4.651   2.848  12.800  0.3198 -0.1425 -0.0782
14242TIP3    H164217   4.744   2.840  12.819  0.8530 -0.0720 -2.4202
14242TIP3    H264218   4.644   2.927  12.746 -1.1650  0.0747  0.3825
14243TIP3   OH264219   1.896   3.363   3.050 -0.2187  0.1509 -0.0912
14243TIP3    H164220   1.947   3.303   3.104  0.6300 -0.6548 -1.7161
14243TIP3    H264221   1.817   3.314   3.026  1.7280 -1.5959 -3.7580
14244TIP3   OH264222   2.248   0.760   0.889  0.1142  0.2961 -0.6783
14244TIP3    H164223   2.291   0.801   0.965  0.4748 -1.9259  0.4127
14244TIP3    H264224   2.168   0.722   0.925  0.5913 -1.3147 -1.2211
14245TIP3   OH264225   1.116   6.274  12.976 -0.2135  0.1478  0.6275
14245TIP3    H164226   1.056   6.205  12.949  0.6099  0.2183 -1.5862
14245TIP3    H264227   1.182   6.230  13.029 -0.3154 -0.5671  0.1662
14246TIP3   OH264228   4.016   3.069  15.057  0.3194  0.3891 -0.4964
14246TIP3    H164229   3.967   3.116  14.990 -0.2454  0.1441 -0.2695
14246TIP3    H264230   3.973   2.983  15.061 -0.6419  0.8922  1.2038
14247TIP3   OH264231   1.376   4.814  10.847  0.8152 -0.2000 -0.0839
14247TIP3    H164232   1.296   4.787  10.803  0.4917 -0.1283  0.4500
14247TIP3    H264233   1.430   4.853  10.778  0.9628 -1.4681 -0.7165
14248TIP3   OH264234   5.480   6.251   5.341  0.6513  0.0020  0.1020
14248TIP3    H164235   5.516   6.331   5.304  1.7269  0.6614  2.4401
14248TIP3    H264236   5.513   6.182   5.284  1.0301  1.0645 -1.0063
14249TIP3   OH264237   5.504   2.956  13.845  0.1803  0.4106  0.4007
14249TIP3    H164238   5.416   2.943  13.810 -0.2027 -0.4730  1.6441
14249TIP3    H264239   5.498   3.038  13.895  0.1542  0.5007  0.2534
14250TIP3   OH264240   3.185   6.003   5.624 -0.0375 -0.0781  0.2135
14250TIP3    H164241   3.181   5.980   5.531  0.9600 -0.0068  0.1492
14250TIP3    H264242   3.106   5.962   5.661 -1.1258  0.9573 -0.8725
14251TIP3   OH264243   2.814   2.555   6.278  0.4989 -0.1585 -0.1601
14251TIP3    H164244   2.734   2.593   6.240  1.2533  1.4303 -0.2456
14251TIP3    H264245   2.823   2.598   6.363  0.6363 -1.2200  0.3735
14252TIP3   OH264246   2.300   5.942  16.975  0.3297  0.5171 -0.2811
14252TIP3    H164247   2.283   5.914  16.885 -0.1828  0.1820 -0.0844
14252TIP3    H264248   2.213   5.948  17.015  0.6350 -2.4635  1.1182
14253TIP3   OH264249   6.545   2.542   2.729  0.8329  0.5864  0.1754
14253TIP3    H164250   6.517   2.477   2.794  1.9752 -0.4800 -0.3570
14253TIP3    H264251   6.464   2.577   2.694  0.1285 -1.5346 -0.4733
14254TIP3   OH264252   4.340   5.581  14.885  0.0100  0.3754  0.0276
14254TIP3    H164253   4.345   5.653  14.822 -0.1513  0.5267  0.1867
14254TIP3    H264254   4.318   5.623  14.968  1.6256  0.3565  0.5047
14255TIP3   OH264255   2.795   3.839  14.007 -0.0783  0.3251 -0.0557
14255TIP3    H164256   2.790   3.805  14.096 -0.8154 -0.4092 -0.3644
14255TIP3    H264257   2.715   3.891  13.996 -0.3089 -0.1208 -0.5020
14256TIP3   OH264258   3.571   5.972  12.011  0.8356 -0.5069 -0.0806
14256TIP3    H164259   3.547   5.901  12.071  0.1532 -1.2865 -1.2416
14256TIP3    H264260   3.655   6.003  12.043  0.6377 -1.1164  1.0889
14257TIP3   OH264261   4.218   4.772  11.291  0.2106  0.2876  0.4654
14257TIP3    H164262   4.228   4.678  11.277  0.8507  0.4095  0.0875
14257TIP3    H264263   4.302   4.810  11.265 -0.0896  0.9805  0.4786
14258TIP3   OH264264   0.667   1.616   4.173 -0.2853 -0.1335  0.1254
14258TIP3    H164265   0.661   1.572   4.088  0.7430  1.5114 -0.8598
14258TIP3    H264266   0.741   1.574   4.217  0.1652  0.0266 -0.4630
14259TIP3   OH264267   0.990   4.167   4.357 -1.1586  0.0353  0.3597
14259TIP3    H164268   1.079   4.197   4.376 -0.4757  0.3974 -2.9140
14259TIP3    H264269   0.988   4.077   4.390 -0.1649  0.5231  1.9018
14260TIP3   OH264270   2.839   6.619  14.786 -0.0468  0.4725  0.5133
14260TIP3    H164271   2.892   6.675  14.844  0.6555 -1.3035  1.6959
14260TIP3    H264272   2.820   6.542  14.840  0.5589 -1.2367 -1.5844
14261TIP3   OH264273   0.799   0.460  13.312  0.5008 -0.2142 -0.4769
14261TIP3    H164274   0.790   0.511  13.232  0.0478  0.5986  0.0743
14261TIP3    H264275   0.784   0.523  13.382 -0.7018 -1.2221  0.2176
14262TIP3   OH264276   2.212   4.191  13.825  0.3090 -0.1952  0.2778
14262TIP3    H164277   2.283   4.197  13.762 -0.1727  2.2009 -0.1423
14262TIP3    H264278   2.172   4.278  13.825 -1.8963 -1.1078  1.3601
14263TIP3   OH264279   3.683   6.138   4.189 -0.0550  0.2846  0.2944
14263TIP3    H164280   3.660   6.134   4.282  2.0370 -0.7708  0.8304
14263TIP3    H264281   3.734   6.219   4.181  0.2800  0.0677  0.2100
14264TIP3   OH264282   6.171   0.140  15.600  0.1801 -0.1135 -0.6355
14264TIP3    H164283   6.264   0.135  15.620  0.0288 -1.0979 -0.1098
14264TIP3    H264284   6.149   0.053  15.565 -0.3073  0.4684 -1.8405
14265TIP3   OH264285   5.231   3.661  13.643 -0.1731  0.0192 -0.0877
14265TIP3    H164286   5.266   3.604  13.575 -0.5394  0.3624 -0.5659
14265TIP3    H264287   5.238   3.749  13.607  2.9018  0.6650  1.6515
14266TIP3   OH264288   2.412   2.343   5.780  0.6457  0.4399 -0.6703
14266TIP3    H164289   2.460   2.260   5.788  0.7153  0.6407  1.6060
14266TIP3    H264290   2.481   2.409   5.775  0.5806  0.4746 -1.2261
14267TIP3   OH264291   6.102   3.072  15.813  0.9998  0.7911  0.2004
14267TIP3    H164292   6.149   2.993  15.786  0.6913  0.9723 -0.8907
14267TIP3    H264293   6.114   3.133  15.741  1.0728  1.6861  0.9528
14268TIP3   OH264294   0.053   1.447   4.758 -0.3199 -0.4097 -0.4041
14268TIP3    H164295   0.009   1.365   4.782  0.6291 -0.7128  0.3887
14268TIP3    H264296   0.019   1.469   4.672 -0.0847 -2.0278 -0.9423
14269TIP3   OH264297   5.840   3.428   3.768 -0.1635  0.1520 -0.4641
14269TIP3    H164298   5.885   3.490   3.825 -1.5278 -0.4315  1.3229
14269TIP3    H264299   5.761   3.403   3.816 -0.5076 -1.6943 -1.8632
14270TIP3   OH264300   0.399   5.216   4.623 -0.2042  0.1753 -0.8216
14270TIP3    H164301   0.449   5.296   4.637 -0.2189 -0.1891  1.6615
14270TIP3    H264302   0.309   5.240   4.643 -0.3000 -0.3273 -0.6492
14271TIP3   OH264303   1.338   5.177  13.524  0.1447  0.1587 -0.1693
14271TIP3    H164304   1.330   5.270  13.503  0.5548  0.3564  0.5077
14271TIP3    H264305   1.286   5.166  13.604  1.0903  0.0667  0.4478
14272TIP3   OH264306   5.018   1.223  12.034 -0.3710 -0.0721  0.0616
14272TIP3    H164307   5.025   1.163  11.960 -0.7723 -1.5630  1.1690
14272TIP3    H264308   4.933   1.264  12.025 -0.3477 -0.1244 -0.3937
14273TIP3   OH264309   5.848   1.256   1.776  0.3566  0.1561  0.1826
14273TIP3    H164310   5.817   1.312   1.705  0.2841  1.0603  0.9036
14273TIP3    H264311   5.839   1.310   1.855 -0.1045 -1.0218  0.9665
14274TIP3   OH264312   0.080   2.876  16.400 -0.1046 -0.0652  0.5611
14274TIP3    H164313   0.031   2.875  16.482 -0.0504 -0.6444  0.5941
14274TIP3    H264314   0.129   2.958  16.402 -0.9927  0.4821  0.5699
14275TIP3   OH264315   4.937   3.943   1.009  0.3964 -0.1810  0.4552
14275TIP3    H164316   4.980   3.955   1.094  0.9479  2.1361 -0.0708
14275TIP3    H264317   5.003   3.970   0.945 -0.9492  0.9254 -0.5241
14276TIP3   OH264318   0.175   0.677   1.641 -0.5978  0.6525  0.6651
14276TIP3    H164319   0.247   0.672   1.703  0.1640  0.4950 -0.2064
14276TIP3    H264320   0.097   0.656   1.692 -0.0085  0.6563  1.5836
14277TIP3   OH264321   3.724   2.085   5.398  0.2071 -0.2607 -0.5543
14277TIP3    H164322   3.774   2.057   5.475  0.2275 -0.4809 -0.6494
14277TIP3    H264323   3.692   2.172   5.422 -2.8851 -1.7187  1.1812
14278TIP3   OH264324   0.416   3.228  11.117 -0.1431 -0.4617  1.0720
14278TIP3    H164325   0.462   3.148  11.091 -1.1196 -0.4600 -0.8011
14278TIP3    H264326   0.483   3.296  11.118  0.3240 -0.9136  0.7086
14279TIP3   OH264327   3.930   2.002  12.617  0.6291 -0.5133 -0.4108
14279TIP3    H164328   3.941   1.923  12.669  0.2188  0.2320  0.8740
14279TIP3    H264329   3.852   2.044  12.654 -1.1529 -1.1039 -3.1956
14280TIP3   OH264330   1.342   5.768  16.240 -0.2241 -0.7905 -0.0849
14280TIP3    H164331   1.357   5.833  16.308 -1.0522  1.8383 -2.2681
14280TIP3    H264332   1.392   5.799  16.164 -2.7606 -1.1638 -2.0370
14281TIP3   OH264333   6.421   0.876   6.187 -0.5105 -0.1264  0.0142
14281TIP3    H164334   6.437   0.926   6.267  2.6982 -0.2119 -0.4467
14281TIP3    H264335   6.444   0.786   6.209 -4.4930 -1.2782  0.3039
14282TIP3   OH264336   1.291   3.415   4.731  0.3704  0.0552  0.6257
14282TIP3    H164337   1.337   3.494   4.701 -0.4046  0.0313 -0.6754
14282TIP3    H264338   1.199   3.433   4.714  0.1978 -1.1925  0.1917
14283TIP3   OH264339   0.704   6.526  17.114  0.4892  0.4576 -0.2303
14283TIP3    H164340   0.620   6.547  17.074  0.1999 -1.5974 -0.7708
14283TIP3    H264341   0.766   6.521  17.041  0.4261 -1.0370 -0.2125
14284TIP3   OH264342   4.296   2.785   2.861  0.1294 -0.1614  0.2089
14284TIP3    H164343   4.208   2.774   2.895  0.2238  0.8291  0.8049
14284TIP3    H264344   4.292   2.752   2.771 -1.6917  2.7469 -0.9077
14285TIP3   OH264345   6.822   0.485   4.484  0.0301  0.8178  0.4311
14285TIP3    H164346   6.894   0.503   4.545 -0.4807  0.3950  1.1801
14285TIP3    H264347   6.801   0.570   4.445 -0.7094  1.4395  2.0735
14286TIP3   OH264348   5.987   1.767  12.622 -0.5712 -0.1394  0.6539
14286TIP3    H164349   5.944   1.807  12.697  0.6219  0.5905  0.9783
14286TIP3    H264350   5.917   1.720  12.577 -1.3633 -0.3708  2.0608
14287TIP3   OH264351   5.353   2.424   1.275  0.0011  0.4169  0.1520
14287TIP3    H164352   5.340   2.439   1.369 -0.2236 -2.3062  0.6304
14287TIP3    H264353   5.446   2.443   1.260 -0.1888  1.8783  0.6716
14288TIP3   OH264354   5.256   3.075   5.405 -0.0505  0.2795  0.1909
14288TIP3    H164355   5.229   3.010   5.340 -1.2219  0.5958  0.3277
14288TIP3    H264356   5.242   3.159   5.362 -2.2714  0.5566  1.2938
14289TIP3   OH264357   3.160   4.112  13.512  0.0291  0.4279  0.3215
14289TIP3    H164358   3.158   4.097  13.417  0.3062  1.9895  0.0462
14289TIP3    H264359   3.246   4.079  13.539 -0.0768 -0.0834  0.0406
14290TIP3   OH264360   6.124   3.644  11.453 -0.3764 -0.3205  0.8680
14290TIP3    H164361   6.202   3.634  11.508 -0.5862 -0.7741  1.0919
14290TIP3    H264362   6.054   3.664  11.516 -0.3094  0.8203  0.6003
14291TIP3   OH264363   1.676   1.340   2.613 -0.3663  0.4950  0.1087
14291TIP3    H164364   1.660   1.246   2.609  0.9675  0.2433  0.2376
14291TIP3    H264365   1.627   1.369   2.690 -0.4762 -0.1583  0.2902
14292TIP3   OH264366   5.543   4.441   6.205 -0.6046  0.2690 -0.1620
14292TIP3    H164367   5.564   4.453   6.112  0.8551 -1.0615 -0.0536
14292TIP3    H264368   5.543   4.529   6.241 -2.0968  0.8903 -1.5865
14293TIP3   OH264369   3.598   6.059   4.469 -0.4984 -0.1030 -0.3059
14293TIP3    H164370   3.516   6.010   4.463 -1.6202  1.8301 -1.8833
14293TIP3    H264371   3.573   6.145   4.502  1.1275  0.1083  0.5149
14294TIP3   OH264372   3.825   6.540  11.626  0.2280 -0.0474 -0.2702
14294TIP3    H164373   3.894   6.594  11.588  1.7302 -0.7989  1.2633
14294TIP3    H264374   3.863   6.452  11.630 -1.6629 -0.9856 -1.4532
14295TIP3   OH264375   1.322   2.172   2.657 -0.2381  0.2772 -0.2992
14295TIP3    H164376   1.373   2.190   2.736 -2.3344  0.3235  1.1501
14295TIP3    H264377   1.322   2.255   2.609  2.6701 -0.2714 -1.4319
14296TIP3   OH264378   2.399   0.372  16.887 -0.0197  0.4853 -0.2252
14296TIP3    H164379   2.318   0.391  16.934 -0.6824 -0.7934 -0.8219
14296TIP3    H264380   2.467   0.415  16.940 -0.6756 -1.1607  2.1459
14297TIP3   OH264381   4.715   4.138  12.664 -0.8195  0.0989  0.2628
14297TIP3    H164382   4.700   4.044  12.673 -2.7498 -0.1958 -3.9382
14297TIP3    H264383   4.635   4.179  12.697 -0.7271  0.1595  0.4137
14298TIP3   OH264384   3.916   0.898  11.545  0.4807 -0.0376  0.5418
14298TIP3    H164385   3.823   0.922  11.545 -0.0332 -1.5232 -2.2127
14298TIP3    H264386   3.925   0.840  11.621 -1.4214 -1.5586 -0.2993
14299TIP3   OH264387   5.519   4.531   4.911 -0.1766  0.0342  0.3889
14299TIP3    H164388   5.614   4.526   4.901 -0.0543  0.3572  1.3470
14299TIP3    H264389   5.488   4.552   4.823  0.7940  1.6824  0.3937
14300TIP3   OH264390   3.916   0.537  12.104 -0.4708 -0.5756 -0.1446
14300TIP3    H164391   3.833   0.573  12.135  0.9436 -0.3165  3.9396
14300TIP3    H264392   3.966   0.614  12.077 -0.2368 -0.2283  1.1734
14301TIP3   OH264393   5.762   2.778  16.257  0.0456  0.2850  0.2175
14301TIP3    H164394   5.675   2.809  16.284  0.1816  0.0508  0.9344
14301TIP3    H264395   5.808   2.858  16.229 -0.0440  0.5517  0.8213
14302TIP3   OH264396   1.987   3.105  11.802  0.1607 -0.1506 -0.3159
14302TIP3    H164397   1.989   3.191  11.759  0.8551 -0.1629 -0.3239
14302TIP3    H264398   1.952   3.046  11.735 -0.1697  0.0989 -0.3634
14303TIP3   OH264399   1.304   1.954   4.523 -0.1434 -0.3979 -0.0006
14303TIP3    H164400   1.304   2.024   4.457 -0.3968  0.3624  0.7954
14303TIP3    H264401   1.231   1.898   4.498  0.2690 -0.5834 -0.8430
14304TIP3   OH264402   3.902   5.740  15.306  0.0096  0.3226 -0.0054
14304TIP3    H164403   3.900   5.717  15.399  0.0710  0.5428  0.0519
14304TIP3    H264404   3.950   5.823  15.303  1.8534 -0.6765 -0.4331
14305TIP3   OH264405   0.257   0.151   3.360  0.6322  0.2116 -0.0648
14305TIP3    H164406   0.343   0.108   3.353  0.9570  0.8970 -0.4077
14305TIP3    H264407   0.196   0.080   3.381  1.2257 -0.3434 -0.1845
14306TIP3   OH264408   2.633   0.700   1.219 -0.4034 -0.4590 -0.3583
14306TIP3    H164409   2.700   0.708   1.152 -0.2641 -1.1765 -0.3117
14306TIP3    H264410   2.675   0.731   1.299 -0.0218 -1.2236 -0.2632
14307TIP3   OH264411   1.438   4.602   0.596 -0.6274  0.5007  0.4024
14307TIP3    H164412   1.410   4.622   0.685  0.0693  2.2497  0.2764
14307TIP3    H264413   1.364   4.554   0.558  0.4139 -3.5852  2.9125
14308TIP3   OH264414   0.192   5.717  14.553  0.3580 -0.3838  0.1629
14308TIP3    H164415   0.109   5.672  14.536 -0.0857  0.1615  0.8471
14308TIP3    H264416   0.205   5.772  14.475  0.3566 -0.8722 -0.1890
14309TIP3   OH264417   2.617   0.520  13.699  0.3878  0.2808 -0.0631
14309TIP3    H164418   2.702   0.485  13.726 -0.2674  0.2846  2.1699
14309TIP3    H264419   2.636   0.566  13.617  2.7120  0.9850  0.7828
14310TIP3   OH264420   0.691   1.149  16.398 -0.1404 -0.1299 -0.3347
14310TIP3    H164421   0.784   1.154  16.420 -0.0147  0.2987 -0.9231
14310TIP3    H264422   0.688   1.095  16.319 -0.5831 -1.6933  0.7086
14311TIP3   OH264423   2.858   6.695   4.584 -0.4627  0.1417 -0.2425
14311TIP3    H164424   2.882   6.625   4.523  1.2456  0.7546 -0.3291
14311TIP3    H264425   2.786   6.659   4.635  1.5880 -2.5190  1.0491
14312TIP3   OH264426   6.123   6.029   4.217  0.6814  0.3577 -0.5278
14312TIP3    H164427   6.109   6.104   4.275 -1.8337 -0.3774 -0.0384
14312TIP3    H264428   6.035   6.008   4.185  1.6316 -1.0262 -2.3857
14313TIP3   OH264429   4.349   4.566  15.345  0.1742 -0.6629 -0.1172
14313TIP3    H164430   4.436   4.536  15.372 -0.1763 -1.6193 -0.0132
14313TIP3    H264431   4.291   4.532  15.413 -0.4359 -1.1193 -0.8524
14314TIP3   OH264432   4.463   0.662  15.725 -0.1587  0.3906 -0.1124
14314TIP3    H164433   4.375   0.634  15.697 -0.1807 -0.4534  0.7671
14314TIP3    H264434   4.473   0.625  15.812  1.1435  0.3553 -0.2673
14315TIP3   OH264435   3.040   0.127   1.909  0.2889  0.3988  0.4993
14315TIP3    H164436   2.997   0.154   1.990  1.9521  0.6098  1.3609
14315TIP3    H264437   2.969   0.092   1.855 -0.9371  0.6623  1.8623
14316TIP3   OH264438   3.530   5.515  13.596  0.4788  0.2982 -0.3136
14316TIP3    H164439   3.579   5.433  13.606  0.7707  0.6200  1.1303
14316TIP3    H264440   3.597   5.583  13.597  0.0323  0.7668  2.0626
14317TIP3   OH264441   4.541   3.014   6.089 -0.3108 -0.0798 -0.7351
14317TIP3    H164442   4.514   2.961   6.164  0.2469  0.0627 -0.4302
14317TIP3    H264443   4.495   3.097   6.102  0.3298  0.2009 -0.1565
14318TIP3   OH264444   2.611   1.840   3.790  0.6130 -0.9425 -0.5643
14318TIP3    H164445   2.652   1.784   3.856  1.7228 -0.7183 -1.0467
14318TIP3    H264446   2.594   1.923   3.835  0.0565 -1.2576 -0.1804
14319TIP3   OH264447   1.741   0.091  14.090  0.0672  0.3362  0.3749
14319TIP3    H164448   1.826   0.109  14.050  0.3016 -1.5011 -0.0524
14319TIP3    H264449   1.677   0.129  14.030  0.5137 -0.2493 -0.4826
14320TIP3   OH264450   2.376   3.009  17.139  0.3736 -0.0274  0.3365
14320TIP3    H164451   2.330   2.991  17.057  1.7786 -1.7773 -0.1396
14320TIP3    H264452   2.326   2.962  17.206 -0.2380  0.6136  0.3391
14321TIP3   OH264453   1.008   6.072  16.833  0.4824  0.1926 -0.1251
14321TIP3    H164454   0.940   6.078  16.900 -0.3131  0.6259 -0.9508
14321TIP3    H264455   0.966   6.105  16.754  0.0158 -4.1751 -1.9431
14322TIP3   OH264456   3.829   5.028  16.860  0.0705 -0.5403 -0.0244
14322TIP3    H164457   3.836   4.984  16.775 -0.4522 -1.8640  0.5906
14322TIP3    H264458   3.895   5.097  16.857  0.3023 -0.7992 -1.3679
14323TIP3   OH264459   2.511   5.580  14.287 -0.5591 -0.2292 -0.3245
14323TIP3    H164460   2.607   5.588  14.282 -0.5211 -0.8271 -0.6543
14323TIP3    H264461   2.481   5.600  14.199 -0.7770  0.3647 -0.1199
14324TIP3   OH264462   5.503   3.563  12.035 -0.0844  0.3714  0.0284
14324TIP3    H164463   5.461   3.542  12.118 -1.2025  0.4454 -0.5066
14324TIP3    H264464   5.490   3.657  12.024 -1.7144  0.0577 -1.1512
14325TIP3   OH264465   4.204   2.802   0.789 -0.7620  0.1801 -0.0602
14325TIP3    H164466   4.294   2.832   0.796 -0.3750 -1.1906  2.3774
14325TIP3    H264467   4.153   2.866   0.839 -0.7112 -0.4074  0.7671
14326TIP3   OH264468   3.008   1.363   4.877  1.0553  0.6741 -0.3815
14326TIP3    H164469   3.055   1.368   4.795  0.2091 -2.1012 -1.1330
14326TIP3    H264470   2.954   1.284   4.870 -1.4361  2.0296  1.5981
14327TIP3   OH264471   2.820   4.163   5.158 -0.2631  0.4773  0.4394
14327TIP3    H164472   2.755   4.225   5.193 -3.8468 -1.7671 -1.5721
14327TIP3    H264473   2.798   4.157   5.065  2.8149 -0.6305 -0.3130
14328TIP3   OH264474   1.957   2.932   1.390 -0.1898 -0.3935 -0.5512
14328TIP3    H164475   2.050   2.937   1.369  0.2172  0.0250  1.1803
14328TIP3    H264476   1.943   2.842   1.420 -0.4047 -0.5358 -1.0758
14329TIP3   OH264477   2.343   3.416  10.615 -0.7598 -0.3537 -0.2325
14329TIP3    H164478   2.376   3.485  10.557 -1.4329  1.5558  1.5505
14329TIP3    H264479   2.314   3.347  10.556  2.1646 -0.2257 -2.0403
14330TIP3   OH264480   5.804   2.327   1.854  0.9256 -0.7404  0.3042
14330TIP3    H164481   5.811   2.234   1.877  0.1282 -1.7186 -2.8624
14330TIP3    H264482   5.874   2.341   1.790  1.0439  0.8684  0.7434
14331TIP3   OH264483   2.072   0.073  14.653 -0.5563  0.3833  0.0476
14331TIP3    H164484   2.075   0.030  14.738 -1.6562  1.4765  0.6814
14331TIP3    H264485   2.098   0.006  14.591  0.2193 -0.4529  1.2410
14332TIP3   OH264486   1.006   0.989  14.971 -0.0792 -0.1407  0.1202
14332TIP3    H164487   1.071   1.039  15.021 -0.0105  0.6122 -0.7020
14332TIP3    H264488   0.946   1.055  14.936 -0.4210 -0.6992 -0.3721
14333TIP3   OH264489   4.969   4.478   2.690 -0.3615  0.1137  0.4528
14333TIP3    H164490   4.929   4.443   2.610 -1.2630  0.9770  0.5099
14333TIP3    H264491   5.062   4.460   2.680 -0.7818 -2.5174  0.6012
14334TIP3   OH264492   0.113   4.968  14.649 -0.2827 -0.0078  0.4215
14334TIP3    H164493   0.071   4.971  14.735 -0.1825  0.7155  0.4540
14334TIP3    H264494   0.042   4.948  14.589 -0.9970  2.5685  0.3057
14335TIP3   OH264495   1.860   2.880  13.305  0.1401  0.3035 -0.5267
14335TIP3    H164496   1.866   2.816  13.376 -0.2024  1.1395  0.2743
14335TIP3    H264497   1.779   2.857  13.259  0.8921 -0.8864 -1.3180
14336TIP3   OH264498   1.622   4.101  17.151  0.0447  0.2199  0.0778
14336TIP3    H164499   1.662   4.040  17.089 -0.8169 -0.7757  0.4556
14336TIP3    H264500   1.684   4.104  17.224 -0.3773 -1.0697  0.5258
14337TIP3   OH264501   2.168   5.249   1.830  0.1168 -0.5151 -0.1568
14337TIP3    H164502   2.206   5.177   1.779  2.0507  0.7179 -0.5630
14337TIP3    H264503   2.165   5.216   1.920  2.3102 -0.6933 -0.0865
14338TIP3   OH264504   6.244   5.478  15.237 -0.0652 -0.3277  0.2136
14338TIP3    H164505   6.326   5.447  15.199  0.3419  0.2457  0.6016
14338TIP3    H264506   6.193   5.510  15.163  0.5418  0.3831  0.0932
14339TIP3   OH264507   2.891   0.280   6.505  0.5318 -0.2642  0.0062
14339TIP3    H164508   2.817   0.253   6.452  1.8306 -1.0127 -1.5045
14339TIP3    H264509   2.891   0.376   6.500 -0.0824 -0.2810 -0.3222
14340TIP3   OH264510   2.938   5.814   6.316 -0.8441 -0.4068  0.3029
14340TIP3    H164511   2.993   5.889   6.338 -2.2157  0.5735  0.5176
14340TIP3    H264512   2.920   5.772   6.400 -1.2126 -0.1389  0.3640
14341TIP3   OH264513   1.022   5.780  14.070  0.2541 -0.8311 -0.5516
14341TIP3    H164514   1.008   5.866  14.029 -1.7306 -1.0558 -0.4318
14341TIP3    H264515   1.065   5.800  14.153  0.9485 -0.0788 -1.0673
14342TIP3   OH264516   4.906   4.029   5.423  0.0076  0.2946  0.1525
14342TIP3    H164517   4.875   4.015   5.334 -0.2186 -0.0594  0.2846
14342TIP3    H264518   4.890   3.946   5.468 -0.3954  0.6375  0.6727
14343TIP3   OH264519   0.617   5.937   3.867  0.1250  0.0460 -0.3681
14343TIP3    H164520   0.701   5.957   3.825  0.3861 -0.5728 -0.1568
14343TIP3    H264521   0.634   5.949   3.961  0.2538 -0.9750 -0.2427
14344TIP3   OH264522   1.902   4.015   4.420 -0.8514 -0.1238  0.1799
14344TIP3    H164523   1.963   4.027   4.346 -1.4833 -0.7850 -0.4613
14344TIP3    H264524   1.825   3.975   4.381 -1.3784 -0.0600  1.1355
14345TIP3   OH264525   6.207   4.873  11.633 -0.6084  0.0603 -0.0603
14345TIP3    H164526   6.221   4.794  11.684 -1.1415 -0.6898 -1.0393
14345TIP3    H264527   6.159   4.843  11.555  0.5407  1.0967 -1.2035
14346TIP3   OH264528   6.773   4.484  17.093  0.4494 -0.3302  0.0943
14346TIP3    H164529   6.781   4.437  17.010  0.6018 -2.6026  1.2933
14346TIP3    H264530   6.715   4.557  17.074  1.2566 -0.2048 -2.2107
14347TIP3   OH264531   2.400   2.851   4.310  0.1351 -0.9357  0.1188
14347TIP3    H164532   2.483   2.888   4.279  0.1555 -0.7216  0.4231
14347TIP3    H264533   2.394   2.766   4.265 -1.3123  0.5999 -2.8581
14348TIP3   OH264534   5.485   3.237  12.467  0.3577 -0.0521  0.6052
14348TIP3    H164535   5.508   3.326  12.496  1.8937  0.1381 -1.0375
14348TIP3    H264536   5.396   3.245  12.433 -0.0791  0.5110  1.8291
14349TIP3   OH264537   4.163   3.883  16.004 -0.1918 -0.0974 -0.3789
14349TIP3    H164538   4.076   3.857  15.974 -0.7791 -1.3523  2.1105
14349TIP3    H264539   4.153   3.975  16.030 -0.9368 -0.3671  0.3361
14350TIP3   OH264540   0.165   4.932   0.156 -0.0529 -0.0622 -0.0219
14350TIP3    H164541   0.102   4.868   0.124  0.4699  0.1373 -1.5563
14350TIP3    H264542   0.135   5.016   0.121  1.1906 -0.0111 -1.0779
14351TIP3   OH264543   1.204   4.105  13.732  0.2647 -0.6423 -0.1411
14351TIP3    H164544   1.230   4.029  13.783 -0.0192 -2.1760 -2.1377
14351TIP3    H264545   1.259   4.176  13.764  3.6213 -2.6440 -1.0156
14352TIP3   OH264546   6.099   0.467  17.090  0.5353  0.3891 -0.0774
14352TIP3    H164547   6.177   0.514  17.117 -0.2836  1.6952  0.1345
14352TIP3    H264548   6.115   0.442  16.999  1.7456 -0.6193  0.3878
14353TIP3   OH264549   4.011   4.945   1.901  0.2385  0.0955 -0.1972
14353TIP3    H164550   3.963   4.950   1.818  0.3783  2.4698 -0.2194
14353TIP3    H264551   3.995   5.030   1.943  2.9750  0.3176  0.5902
14354TIP3   OH264552   4.721   0.449   4.781  0.3870 -0.3032  0.4173
14354TIP3    H164553   4.647   0.494   4.821  0.2159 -0.4454  0.2585
14354TIP3    H264554   4.720   0.477   4.689 -0.0848 -1.0991  0.1697
14355TIP3   OH264555   3.963   1.002  12.980 -0.1031  0.6882  0.2873
14355TIP3    H164556   3.972   0.950  12.900 -0.2788  1.0036  0.0586
14355TIP3    H264557   4.018   0.957  13.044 -1.3824 -0.6126  0.5190
14356TIP3   OH264558   4.152   5.558  14.571 -0.3016  0.0859 -0.0966
14356TIP3    H164559   4.217   5.624  14.596  0.9155 -0.8932 -0.5964
14356TIP3    H264560   4.114   5.592  14.490  0.2316  0.2434 -0.2850
14357TIP3   OH264561   1.185   5.100  12.861 -0.4968  1.0125  0.1204
14357TIP3    H164562   1.146   5.013  12.866  1.3552  0.1794  0.8728
14357TIP3    H264563   1.207   5.111  12.768  1.8188 -0.5598  0.4114
14358TIP3   OH264564   5.069   1.412  12.240  0.3870  0.0439 -0.1681
14358TIP3    H164565   5.108   1.401  12.153  0.5033  1.2248 -0.2847
14358TIP3    H264566   5.030   1.327  12.260  1.1661 -0.5175 -0.9741
14359TIP3   OH264567   2.100   6.538  14.977 -0.4021  0.0558 -0.3225
14359TIP3    H164568   2.048   6.464  14.946  0.9837 -0.6821 -0.9810
14359TIP3    H264569   2.166   6.552  14.908 -0.1362  1.3844  0.1668
14360TIP3   OH264570   6.429   2.225  13.388 -0.0873  0.1655  0.2706
14360TIP3    H164571   6.482   2.159  13.434  1.4298  0.5584 -0.8368
14360TIP3    H264572   6.411   2.186  13.303 -2.2235 -0.2317  0.8374
14361TIP3   OH264573   2.075   3.397  12.692 -0.4443  0.3215  0.3626
14361TIP3    H164574   2.142   3.406  12.760 -0.1573  0.3495  0.0791
14361TIP3    H264575   1.996   3.371  12.739 -0.1526 -0.0308  0.6623
14362TIP3   OH264576   2.474   5.793  11.739  0.3499 -0.1617 -0.1294
14362TIP3    H164577   2.513   5.767  11.656  3.4224 -2.1669  1.7464
14362TIP3    H264578   2.406   5.727  11.755 -1.4929  1.2308 -1.7159
14363TIP3   OH264579   5.578   0.691   4.328 -0.9686 -0.2780 -0.0809
14363TIP3    H164580   5.586   0.786   4.333 -1.1197 -0.3244  1.4454
14363TIP3    H264581   5.662   0.658   4.357 -0.7798 -0.6283 -0.9854
14364TIP3   OH264582   1.506   1.965   3.074 -0.6467  0.2619 -0.3002
14364TIP3    H164583   1.433   2.013   3.035 -0.8126  0.6898  0.5130
14364TIP3    H264584   1.466   1.915   3.145 -0.4220 -0.8517 -0.9355
14365TIP3   OH264585   6.202   1.314   3.136 -0.0305 -0.3545  1.1888
14365TIP3    H164586   6.206   1.258   3.214  3.1137  1.7705  2.7649
14365TIP3    H264587   6.256   1.390   3.158  0.6277  0.6089 -2.9141
14366TIP3   OH264588   2.642   1.526   4.504  0.0482 -0.2913  0.2453
14366TIP3    H164589   2.563   1.547   4.554 -0.2343 -0.4061 -0.1469
14366TIP3    H264590   2.685   1.456   4.553  0.6209  0.6853  1.1838
14367TIP3   OH264591   2.958   4.414  12.659  0.0215 -0.0286  0.0718
14367TIP3    H164592   3.035   4.415  12.715 -0.1137 -1.0201  0.2976
14367TIP3    H264593   2.986   4.366  12.580  0.4998  2.1745 -1.1884
14368TIP3   OH264594   6.795   1.416  16.770  0.1485 -0.1006  0.8354
14368TIP3    H164595   6.848   1.494  16.754  1.6402 -1.0522  0.8967
14368TIP3    H264596   6.785   1.412  16.865 -1.4955  0.9751  0.7393
14369TIP3   OH264597   3.579   4.003  14.747  0.1200 -0.0694 -0.3337
14369TIP3    H164598   3.593   4.097  14.743 -0.6922  0.0328 -1.1501
14369TIP3    H264599   3.666   3.965  14.742  0.4278  0.6288 -0.3794
14370TIP3   OH264600   6.194   4.293   1.686  0.2370  0.5321 -0.4340
14370TIP3    H164601   6.286   4.267   1.695  0.1108  0.2861  0.2556
14370TIP3    H264602   6.171   4.329   1.772  0.0575  1.8174 -1.0080
14371TIP3   OH264603   2.669   4.850   4.874 -0.5718  0.1815 -0.2836
14371TIP3    H164604   2.726   4.876   4.802  2.0394  0.7791  1.7988
14371TIP3    H264605   2.619   4.928   4.895 -1.0884  0.1028 -1.2109
14372TIP3   OH264606   6.014   6.718   5.723  0.4564 -0.4848 -0.5527
14372TIP3    H164607   5.947   6.662   5.683 -0.4741  0.0826  0.1512
14372TIP3    H264608   5.971   6.804   5.728  1.1079 -0.2053  0.2832
14373TIP3   OH264609   2.301   0.301  16.644 -1.0430 -0.2326  0.3548
14373TIP3    H164610   2.357   0.366  16.687 -1.8279 -0.3680  1.6331
14373TIP3    H264611   2.253   0.350  16.577  0.4719 -0.0919 -0.6720
14374TIP3   OH264612   0.835   0.311  15.718 -0.1687 -0.7618 -0.2327
14374TIP3    H164613   0.834   0.225  15.760  0.0613 -0.6710 -0.0354
14374TIP3    H264614   0.785   0.367  15.777  1.2158 -0.3351  0.5964
14375TIP3   OH264615   6.705   6.478   5.782  0.1069  0.3882 -0.7794
14375TIP3    H164616   6.667   6.460   5.868  0.9448  0.0298 -0.4820
14375TIP3    H264617   6.796   6.501   5.799  0.6811 -1.0720 -1.6822
14376TIP3   OH264618   6.301   3.450  14.123  0.1022 -0.3349 -0.3772
14376TIP3    H164619   6.265   3.532  14.090 -2.9790 -0.0856  3.0575
14376TIP3    H264620   6.371   3.477  14.182  0.0317 -0.2708 -0.3236
14377TIP3   OH264621   2.153   3.337  11.666 -0.0733  0.0390  0.0648
14377TIP3    H164622   2.109   3.367  11.587 -0.1982 -0.3915 -0.0323
14377TIP3    H264623   2.200   3.258  11.639 -1.4204 -1.0598  0.7557
14378TIP3   OH264624   0.671   0.299  14.917  0.3954 -0.6430 -0.9471
14378TIP3    H164625   0.740   0.235  14.902  1.5093 -1.2364  4.6722
14378TIP3    H264626   0.603   0.251  14.963  0.1379  1.5471  1.1646
14379TIP3   OH264627   6.633   2.022  12.101 -0.1843  0.0744 -0.3229
14379TIP3    H164628   6.724   2.005  12.127 -0.4478 -0.9278  0.0121
14379TIP3    H264629   6.582   2.001  12.180 -0.7612 -0.0531 -0.7263
14380TIP3   OH264630   3.858   6.321   0.702  0.1325 -0.0741 -0.6243
14380TIP3    H164631   3.807   6.241   0.695  0.3286 -0.1877 -0.7646
14380TIP3    H264632   3.946   6.296   0.675 -0.0807  0.4821 -1.8997
14381TIP3   OH264633   0.140   1.361   5.320 -0.5167  0.0252  0.2295
14381TIP3    H164634   0.048   1.337   5.305 -0.3120 -2.0157  1.7587
14381TIP3    H264635   0.153   1.440   5.267 -2.6229 -0.6764 -1.5006
14382TIP3   OH264636   5.043   2.952   0.270 -0.2796 -0.2806  0.3956
14382TIP3    H164637   5.085   2.867   0.265  0.7383  0.2609 -1.0286
14382TIP3    H264638   4.950   2.933   0.279 -0.0859 -1.5420 -0.1213
14383TIP3   OH264639   6.293   2.265   3.626 -0.4404  0.1067  0.3724
14383TIP3    H164640   6.242   2.346   3.622 -1.3082 -0.3586  1.6309
14383TIP3    H264641   6.375   2.286   3.581 -0.6092  1.7031  0.7770
14384TIP3   OH264642   4.801   0.602   3.773  0.3114 -0.1069 -0.1663
14384TIP3    H164643   4.761   0.634   3.853 -0.8819 -0.7475 -0.4931
14384TIP3    H264644   4.796   0.676   3.712  2.3344  0.8157  0.6653
14385TIP3   OH264645   3.387   4.240   2.316 -0.6606  0.2867 -0.5557
14385TIP3    H164646   3.378   4.322   2.266 -0.1149  0.0983 -0.9718
14385TIP3    H264647   3.479   4.216   2.306 -0.4392  0.4522  0.9007
14386TIP3   OH264648   2.151   2.867   1.192 -0.1658  0.1123 -0.0093
14386TIP3    H164649   2.212   2.926   1.148 -2.1645  0.7908 -2.0557
14386TIP3    H264650   2.078   2.858   1.131 -0.8983 -2.8651  1.1305
14387TIP3   OH264651   0.264   4.776   5.629  0.1606  0.0282 -0.0662
14387TIP3    H164652   0.360   4.781   5.636  0.0736  1.1295  0.6001
14387TIP3    H264653   0.242   4.691   5.667  0.9290 -0.6092 -0.9960
14388TIP3   OH264654   5.871   1.003  13.156  0.3219 -0.7058  0.4677
14388TIP3    H164655   5.967   1.003  13.152  0.4018 -1.6212  1.7439
14388TIP3    H264656   5.850   1.075  13.216  0.2154 -0.4682  0.1418
14389TIP3   OH264657   2.913   2.742  14.250  0.4816 -0.1794  0.0335
14389TIP3    H164658   2.994   2.728  14.300  0.2792 -0.8902  0.1667
14389TIP3    H264659   2.843   2.736  14.315  0.2221 -1.0189 -0.3097
14390TIP3   OH264660   1.178   4.191  14.607 -0.0884 -0.6022 -0.0639
14390TIP3    H164661   1.204   4.270  14.560  0.5296 -1.3029 -0.9249
14390TIP3    H264662   1.258   4.159  14.648 -0.4403 -0.5065  0.7197
14391TIP3   OH264663   2.186   3.407  12.949 -0.2436 -0.1316 -0.0904
14391TIP3    H164664   2.136   3.353  13.010  0.1248  0.0451  0.3808
14391TIP3    H264665   2.275   3.407  12.986  0.0208 -0.1677 -0.7275
14392TIP3   OH264666   2.531   3.051   6.063 -0.5487  0.0465 -0.2136
14392TIP3    H164667   2.476   3.076   6.137  0.5974  2.4465 -0.0731
14392TIP3    H264668   2.579   3.131   6.040  1.6802 -1.4953 -1.3611
14393TIP3   OH264669   3.622   5.233   2.153 -0.3756 -0.2212 -1.0718
14393TIP3    H164670   3.567   5.161   2.184 -1.6121  0.9546 -0.4389
14393TIP3    H264671   3.711   5.210   2.182 -0.6870 -1.6520 -1.2015
14394TIP3   OH264672   5.942   3.779  16.730 -0.0574  0.1300  0.5484
14394TIP3    H164673   5.906   3.858  16.770  1.2161  0.2432  1.5209
14394TIP3    H264674   5.878   3.710  16.751 -0.5170  0.6408  0.8414
14395TIP3   OH264675   1.440   5.933   1.938 -0.1561 -0.5688  0.1541
14395TIP3    H164676   1.504   5.865   1.918  0.5318 -0.2953  1.3138
14395TIP3    H264677   1.491   6.002   1.981 -1.0082  0.2444 -0.1117
14396TIP3   OH264678   1.242   4.528   4.436  0.0781  0.3190  0.3059
14396TIP3    H164679   1.156   4.568   4.422  1.2620  2.5288 -1.3121
14396TIP3    H264680   1.268   4.558   4.523 -0.2126  0.8181  0.2269
14397TIP3   OH264681   6.219   0.329  16.433  0.4173  0.4804  0.1069
14397TIP3    H164682   6.202   0.236  16.447  0.8254  0.5698  1.3985
14397TIP3    H264683   6.233   0.338  16.339  2.1764 -1.0684  0.1652
14398TIP3   OH264684   4.548   4.833   0.660  0.6265  0.2681 -0.1838
14398TIP3    H164685   4.593   4.911   0.628 -0.1670  1.4439  1.3849
14398TIP3    H264686   4.455   4.852   0.646  0.3699  0.0519  1.0733
14399TIP3   OH264687   1.812   6.319   4.920  0.0464  0.3824 -0.1530
14399TIP3    H164688   1.773   6.345   5.003  1.1460  0.0909  0.4812
14399TIP3    H264689   1.907   6.323   4.936  0.2827  0.9431 -1.5867
14400TIP3   OH264690   6.154   3.482  12.549 -0.0838  0.0898  0.3022
14400TIP3    H164691   6.061   3.462  12.535 -0.3351  2.4585 -2.2190
14400TIP3    H264692   6.192   3.484  12.461  2.7935 -2.2788  1.3361
14401TIP3   OH264693   3.520   5.655  11.447 -0.0437 -0.0151 -0.5573
14401TIP3    H164694   3.470   5.580  11.416 -0.4670  0.0019  0.0735
14401TIP3    H264695   3.471   5.688  11.523  0.7166  0.2255 -0.1563
14402TIP3   OH264696   4.261   1.223  15.883  0.3473 -0.2697  0.9149
14402TIP3    H164697   4.238   1.276  15.807  0.3747  0.6381  1.5163
14402TIP3    H264698   4.212   1.142  15.872  0.1816 -0.0545  0.0434
14403TIP3   OH264699   0.607   0.427  11.331  0.6674 -0.1346 -0.2848
14403TIP3    H164700   0.610   0.494  11.399  0.8791  0.5557 -0.9624
14403TIP3    H264701   0.695   0.428  11.292  0.5492 -0.5228 -0.5678
14404TIP3   OH264702   5.670   3.704  13.557 -0.1167 -0.2979  1.0816
14404TIP3    H164703   5.610   3.771  13.591 -0.2514  1.5171 -2.2390
14404TIP3    H264704   5.616   3.625  13.550 -2.1318  1.1237 -1.2131
14405TIP3   OH264705   2.181   6.732  10.675 -0.5712  0.3888  0.1022
14405TIP3    H164706   2.216   6.658  10.725  0.4617  1.9331  1.8022
14405TIP3    H264707   2.258   6.778  10.642 -1.0921  1.6894  0.6067
14406TIP3   OH264708   2.625   6.248  13.033 -0.3820 -0.3495  0.3962
14406TIP3    H164709   2.612   6.306  13.108 -0.2290  0.6968 -0.3576
14406TIP3    H264710   2.720   6.240  13.024 -0.3744  0.4764 -0.3727
14407TIP3   OH264711   0.176   6.247   2.324  0.3475 -0.6518 -0.0694
14407TIP3    H164712   0.233   6.321   2.306 -0.9278  0.6826  1.0678
14407TIP3    H264713   0.167   6.202   2.240 -0.2229  1.5198 -1.2524
14408TIP3   OH264714   4.520   1.418  16.949  0.1265  0.1668  0.0768
14408TIP3    H164715   4.527   1.445  16.857 -0.8180  0.0432 -0.0429
14408TIP3    H264716   4.481   1.331  16.946  3.1991 -1.3299  0.4684
14409TIP3   OH264717   5.818   1.859   3.143  0.2125  0.3665  0.1259
14409TIP3    H164718   5.823   1.952   3.121 -0.4769  0.5508  0.7123
14409TIP3    H264719   5.843   1.814   3.063  1.0259  1.0597 -0.0315
14410TIP3   OH264720   0.391   5.573  15.829  0.2647  0.6327 -0.9615
14410TIP3    H164721   0.312   5.552  15.879  1.3757 -0.2740  0.4824
14410TIP3    H264722   0.407   5.666  15.847  1.0914  0.1462  1.1018
14411TIP3   OH264723   2.384   2.446  15.010 -0.0695 -0.5195 -0.4496
14411TIP3    H164724   2.379   2.363  15.057 -1.5657  0.1241  0.5916
14411TIP3    H264725   2.293   2.467  14.989  0.1359  1.4382  0.3997
14412TIP3   OH264726   0.120   5.400  13.061 -0.1244  0.1751 -0.4609
14412TIP3    H164727   0.077   5.447  12.990 -2.0141 -1.4614 -0.5010
14412TIP3    H264728   0.119   5.308  13.033  0.7480 -0.2709  0.8673
14413TIP3   OH264729   6.042   3.804  12.297 -1.2004  0.2881  0.0053
14413TIP3    H164730   5.993   3.762  12.368 -2.0359 -0.6401 -1.0818
14413TIP3    H264731   6.003   3.891  12.289 -1.4935  0.1863  0.3032
14414TIP3   OH264732   4.810   2.779  15.132 -0.5795 -0.3305  0.8620
14414TIP3    H164733   4.720   2.797  15.161 -0.1490  2.0898  0.8561
14414TIP3    H264734   4.813   2.812  15.042  0.2829 -0.5438  0.8034
14415TIP3   OH264735   5.894   2.013  13.560 -0.6859 -0.1359  0.2675
14415TIP3    H164736   5.906   2.086  13.622 -2.0536 -0.9020  1.5010
14415TIP3    H264737   5.801   2.013  13.540 -0.1473  0.7881 -2.7900
14416TIP3   OH264738   6.417   0.156  11.501 -0.4886  0.1967  0.4906
14416TIP3    H164739   6.378   0.204  11.428 -1.4687 -0.1867  0.7547
14416TIP3    H264740   6.493   0.113  11.462 -0.4711  0.7347 -0.0930
14417TIP3   OH264741   0.600   6.443  15.808  0.2871 -0.3258 -0.0959
14417TIP3    H164742   0.694   6.433  15.790  0.2946 -0.5148  0.0529
14417TIP3    H264743   0.568   6.499  15.736  0.8812  1.2984  0.8418
14418TIP3   OH264744   1.832   5.572  13.953 -0.1468 -0.3419  0.2934
14418TIP3    H164745   1.827   5.479  13.974 -0.0432 -0.3891  0.1108
14418TIP3    H264746   1.828   5.616  14.038 -1.4213 -0.4558  0.3196
14419TIP3   OH264747   0.003   2.483   3.020 -0.0121  0.2754 -0.0278
14419TIP3    H164748   0.000   2.524   2.934  0.1335 -2.9174 -1.7110
14419TIP3    H264749  -0.067   2.418   3.018 -0.2286  0.3281  2.4403
14420TIP3   OH264750   5.374   3.313   1.140 -0.0874  0.6259 -0.1672
14420TIP3    H164751   5.455   3.293   1.095 -0.8048 -0.1974 -1.1493
14420TIP3    H264752   5.327   3.230   1.143 -1.8039  1.4856 -1.5152
14421TIP3   OH264753   4.683   1.856   5.662  1.4226 -0.2232 -0.1963
14421TIP3    H164754   4.686   1.841   5.757  1.4405  2.9937  0.4289
14421TIP3    H264755   4.736   1.935   5.649 -0.0448  0.4525 -2.6276
14422TIP3   OH264756   4.321   2.193  13.593  0.1525 -0.2325 -0.2623
14422TIP3    H164757   4.405   2.150  13.578  0.4055  0.2966 -0.4117
14422TIP3    H264758   4.317   2.206  13.687 -0.7649 -2.2276  0.0238
14423TIP3   OH264759   1.250   4.455  14.943  0.5574 -0.3626  0.2569
14423TIP3    H164760   1.327   4.503  14.912 -0.2230  1.6964  1.3398
14423TIP3    H264761   1.200   4.436  14.863 -0.2560  2.7707 -0.1118
14424TIP3   OH264762   5.601   4.044  15.460 -0.3970 -0.0824 -0.5153
14424TIP3    H164763   5.611   3.949  15.464  1.4288 -0.1102 -3.2624
14424TIP3    H264764   5.690   4.077  15.461 -1.0005  1.6234  0.0675
14425TIP3   OH264765   4.312   1.842   3.045 -0.0346 -0.2664 -0.4061
14425TIP3    H164766   4.388   1.860   2.990 -0.4802 -0.8881 -1.2566
14425TIP3    H264767   4.306   1.917   3.104 -0.0067  0.8211 -1.7341
14426TIP3   OH264768   0.466   2.699  16.947 -0.3676  0.5146  0.5097
14426TIP3    H164769   0.383   2.681  16.992  0.4767  0.0925  1.9499
14426TIP3    H264770   0.533   2.667  17.007  0.8623  1.2048 -0.4594
14427TIP3   OH264771   3.277   1.619   1.673  0.4261 -0.1005 -0.3629
14427TIP3    H164772   3.309   1.705   1.701  1.3800 -0.0772 -1.4509
14427TIP3    H264773   3.209   1.597   1.737 -0.2206  1.6898 -0.3674
14428TIP3   OH264774   4.955   1.913   0.916 -0.0347 -0.1595 -0.3467
14428TIP3    H164775   5.001   1.898   0.999  0.7583  1.5695 -0.4313
14428TIP3    H264776   5.024   1.940   0.855 -1.0030  1.6128 -0.7200
14429TIP3   OH264777   0.974   0.158  14.041 -0.1279  0.0349  0.0969
14429TIP3    H164778   1.016   0.112  14.113  0.7958  0.1699 -0.3337
14429TIP3    H264779   0.896   0.106  14.021 -0.2783 -0.1114  1.0461
14430TIP3   OH264780   5.052   5.227   2.563  0.0848 -0.2386 -0.2242
14430TIP3    H164781   5.015   5.158   2.617 -0.9291 -0.4258 -1.1437
14430TIP3    H264782   5.145   5.205   2.556  0.1457 -0.4466  1.0620
14431TIP3   OH264783   1.013   1.365   3.921 -0.0321 -0.6031 -0.4459
14431TIP3    H164784   1.061   1.302   3.867 -0.2924  0.9926 -2.6895
14431TIP3    H264785   0.935   1.317   3.951 -0.2478 -1.3476 -2.1044
14432TIP3   OH264786   5.241   2.554   4.360  0.6357 -0.1582 -0.1733
14432TIP3    H164787   5.279   2.529   4.444  1.3885 -0.7787 -0.6875
14432TIP3    H264788   5.269   2.485   4.299 -0.2623  0.0498 -0.8409
14433TIP3   OH264789   4.804   6.440  12.318  0.1218 -0.7349  0.0406
14433TIP3    H164790   4.805   6.513  12.379 -1.8020 -0.9498  0.3939
14433TIP3    H264791   4.895   6.409  12.316  0.2159 -0.9472  3.0516
14434TIP3   OH264792   3.875   5.126  13.000 -0.3834 -0.4026  0.0452
14434TIP3    H164793   3.882   5.046  13.053 -2.8717 -0.4585  0.4125
14434TIP3    H264794   3.792   5.165  13.027  1.1204  2.8030  0.4569
14435TIP3   OH264795   6.256   3.987  10.483 -0.6029 -0.2681  0.1318
14435TIP3    H164796   6.289   4.070  10.447 -0.5497 -0.3230  0.0518
14435TIP3    H264797   6.244   3.931  10.406 -2.4140  0.2711 -0.0265
14436TIP3   OH264798   5.933   0.347  14.067 -0.9017 -0.1327  0.1854
14436TIP3    H164799   6.019   0.304  14.062 -0.4081  0.8423  0.0911
14436TIP3    H264800   5.935   0.395  14.150 -1.3767 -0.1470  0.2069
14437TIP3   OH264801   0.675   2.809   5.106 -0.1185  0.3406  0.5600
14437TIP3    H164802   0.590   2.826   5.065  0.7004  0.7790 -1.0425
14437TIP3    H264803   0.656   2.748   5.177 -1.4978 -1.2355 -1.0611
14438TIP3   OH264804   2.074   2.701  13.937  0.1935 -0.5326  0.4135
14438TIP3    H164805   2.142   2.686  13.871  1.0349  0.4364  1.0393
14438TIP3    H264806   2.022   2.621  13.936  0.2117 -0.5673 -1.3867
14439TIP3   OH264807   0.805   5.274   0.307  1.0934 -0.5176 -0.2083
14439TIP3    H164808   0.867   5.210   0.343  2.0325  1.1787  1.3808
14439TIP3    H264809   0.816   5.267   0.212  2.3554 -1.5588 -0.0165
14440TIP3   OH264810   1.449   4.065   0.143 -0.1350  0.2040  0.3905
14440TIP3    H164811   1.512   4.068   0.071 -2.3168 -1.7310 -1.7805
14440TIP3    H264812   1.486   4.002   0.205  1.2500  1.0730  0.4997
14441TIP3   OH264813   0.232   2.554   0.420  0.7405  0.3788 -0.2024
14441TIP3    H164814   0.198   2.480   0.469  0.6284  1.2751  1.1361
14441TIP3    H264815   0.320   2.528   0.395  0.8844 -0.0407  0.6859
14442TIP3   OH264816   4.946   3.081  10.455  0.3529 -0.3574  0.2998
14442TIP3    H164817   4.953   3.123  10.541 -0.7920  1.9717 -0.6487
14442TIP3    H264818   4.864   3.032  10.460  0.0878  0.0900  0.4296
14443TIP3   OH264819   5.127   4.403  14.574 -0.0661 -0.1342 -0.3121
14443TIP3    H164820   5.146   4.346  14.649 -1.6960  0.5367  0.6530
14443TIP3    H264821   5.185   4.479  14.587 -0.2843 -0.0546  0.2386
14444TIP3   OH264822   4.540   3.865  13.544  0.4979 -0.1572  0.6053
14444TIP3    H164823   4.504   3.939  13.497 -1.2632 -0.1662  1.8450
14444TIP3    H264824   4.463   3.816  13.574  1.5530 -0.7447  2.4993
14445TIP3   OH264825   0.525   5.933  11.681 -0.0860 -0.1791  0.0172
14445TIP3    H164826   0.616   5.904  11.670 -0.0610 -0.5080  0.9559
14445TIP3    H264827   0.490   5.939  11.592  0.8282 -0.1310 -0.3466
14446TIP3   OH264828   0.278   2.435   1.897 -0.0561  0.7422  0.6530
14446TIP3    H164829   0.305   2.351   1.860  3.5546  1.5839  0.9401
14446TIP3    H264830   0.221   2.412   1.971 -1.8033 -1.2176 -1.1635
14447TIP3   OH264831   5.178   3.788   4.668  0.4644  0.1781 -0.2047
14447TIP3    H164832   5.214   3.699   4.675  0.2554  0.1219  0.2440
14447TIP3    H264833   5.175   3.819   4.758 -0.7944  0.0977 -0.1905
14448TIP3   OH264834   3.569   3.932   4.867 -0.4857 -0.1744 -0.0557
14448TIP3    H164835   3.635   3.863   4.871  0.7676  0.8996 -1.2446
14448TIP3    H264836   3.612   4.004   4.822 -1.5153  1.6785  1.7508
14449TIP3   OH264837   0.704   3.341   0.374 -0.7467 -0.1370  0.6048
14449TIP3    H164838   0.700   3.249   0.397  0.2227 -0.5799 -0.8654
14449TIP3    H264839   0.716   3.386   0.458 -0.9379 -1.3545  1.3087
14450TIP3   OH264840   4.757   0.961   5.748  0.6545  0.1989  0.0399
14450TIP3    H164841   4.755   0.927   5.838 -0.4269  0.1713  0.0191
14450TIP3    H264842   4.713   0.894   5.696  0.8935  0.4125 -0.4393
14451TIP3   OH264843   4.505   4.560   1.378 -0.0792 -0.1543  0.3192
14451TIP3    H164844   4.445   4.598   1.441 -0.1498 -0.6982  0.5919
14451TIP3    H264845   4.541   4.634   1.330  0.9702  0.4001  1.8884
14452TIP3   OH264846   3.718   1.819   3.616  0.1252  0.1015 -0.3447
14452TIP3    H164847   3.774   1.869   3.557 -0.0634 -0.0800 -0.6788
14452TIP3    H264848   3.665   1.885   3.661  0.9143  0.3158  0.3103
14453TIP3   OH264849   6.724   2.691   1.024 -0.1104 -0.7644 -0.2613
14453TIP3    H164850   6.803   2.710   0.973  0.6931 -0.5632  0.9915
14453TIP3    H264851   6.697   2.604   0.996 -0.5051 -0.1303 -1.9897
14454TIP3   OH264852   6.712   0.433  15.145  0.2197 -0.2713  0.2330
14454TIP3    H164853   6.755   0.519  15.143 -0.4191  0.0546 -1.0057
14454TIP3    H264854   6.759   0.384  15.212  0.7578  0.9665  0.8016
14455TIP3   OH264855   6.641   3.538  16.889 -0.0273 -0.4103 -0.3085
14455TIP3    H164856   6.684   3.601  16.830 -2.4491 -0.6589 -2.5128
14455TIP3    H264857   6.601   3.593  16.956 -0.1437  0.2333 -0.8854
14456TIP3   OH264858   2.966   3.409   4.873 -0.2225  0.8289 -0.0245
14456TIP3    H164859   2.952   3.493   4.917  1.7756  0.1231  2.1275
14456TIP3    H264860   2.975   3.345   4.943  1.4833 -0.6379 -1.4644
14457TIP3   OH264861   3.897   0.868   5.022 -0.3624  0.1893  0.7762
14457TIP3    H164862   3.852   0.902   4.944 -1.8514 -2.0935  0.5492
14457TIP3    H264863   3.979   0.833   4.989 -0.7956 -0.3819  0.2842
14458TIP3   OH264864   2.890   1.257   5.295 -0.2190  0.2419 -0.4841
14458TIP3    H164865   2.900   1.344   5.258 -0.0919  0.0146 -0.9999
14458TIP3    H264866   2.971   1.241   5.342  0.5967 -0.3409 -1.9973
14459TIP3   OH264867   2.451   3.111   5.101  0.0193 -0.0689 -0.1982
14459TIP3    H164868   2.547   3.114   5.098  0.0419  0.5888  0.6896
14459TIP3    H264869   2.424   3.193   5.059 -0.1325 -0.0250 -0.0182
14460TIP3   OH264870   2.247   5.102  13.864  0.0081 -0.1006  0.1857
14460TIP3    H164871   2.263   5.008  13.853 -0.3120 -0.2636  1.0314
14460TIP3    H264872   2.154   5.113  13.847 -0.0640 -0.0231  0.6209
14461TIP3   OH264873   5.685   2.716  13.893  0.2895  0.0704  0.8617
14461TIP3    H164874   5.776   2.693  13.876 -0.7486 -1.8353 -3.5809
14461TIP3    H264875   5.666   2.785  13.828 -1.6140 -0.1905  1.0881
14462TIP3   OH264876   2.457   4.340  14.950  0.2788 -0.0901  0.0064
14462TIP3    H164877   2.499   4.408  15.003 -1.2313 -0.4585  1.7967
14462TIP3    H264878   2.379   4.383  14.915 -0.3936 -0.7249  0.6970
14463TIP3   OH264879   4.122   0.361  13.491  0.6054 -0.8065  0.0142
14463TIP3    H164880   4.194   0.298  13.483  0.9675 -0.8622  2.8331
14463TIP3    H264881   4.087   0.347  13.579 -1.2479  0.9448 -0.3585
14464TIP3   OH264882   6.417   2.742  15.949 -0.3995  0.3776 -0.0646
14464TIP3    H164883   6.400   2.659  15.904 -1.2456  0.2954  0.3727
14464TIP3    H264884   6.366   2.736  16.030 -0.6273  1.3972 -0.1172
14465TIP3   OH264885   5.221   1.507   5.287  0.2260 -0.6803 -0.3475
14465TIP3    H164886   5.192   1.579   5.344  1.3702 -0.5219  0.0541
14465TIP3    H264887   5.316   1.509   5.293  0.2677 -2.5583  0.0650
14466TIP3   OH264888   4.560   5.174   4.490  0.1066  0.3103  0.1318
14466TIP3    H164889   4.524   5.263   4.497  0.1436  0.2797  0.7281
14466TIP3    H264890   4.547   5.151   4.398 -1.5723  0.2392  0.3520
14467TIP3   OH264891   6.550   1.211   2.074 -0.0203 -0.8495 -0.0657
14467TIP3    H164892   6.601   1.266   2.014 -1.3115 -1.3935 -1.7664
14467TIP3    H264893   6.611   1.144   2.105  0.6236 -0.7154 -1.0107
14468TIP3   OH264894   5.816   2.548   2.450  0.0022 -0.2793 -0.1975
14468TIP3    H164895   5.836   2.641   2.460  0.2661 -0.0841 -2.0584
14468TIP3    H264896   5.896   2.503   2.476 -0.1072  0.0026  0.6624
14469TIP3   OH264897   6.442   4.213   4.289  0.1475 -0.4028  0.1013
14469TIP3    H164898   6.439   4.140   4.227 -0.5601 -1.3582  1.2229
14469TIP3    H264899   6.506   4.274   4.251  0.9049 -1.6885 -0.7708
14470TIP3   OH264900   6.775   5.956  11.905 -0.0971 -0.3116  0.0988
14470TIP3    H164901   6.768   5.890  11.836  0.0291  1.5033 -1.7513
14470TIP3    H264902   6.866   5.984  11.902 -0.7184  1.7917 -1.0397
14471TIP3   OH264903   2.322   3.922  15.319 -0.0013 -0.2477 -0.0726
14471TIP3    H164904   2.304   4.006  15.361 -0.5112  0.0611 -0.8656
14471TIP3    H264905   2.364   3.869  15.386  0.5620  0.7326  0.3615
14472TIP3   OH264906   4.453   3.832   2.284  0.0377  0.1472 -0.3108
14472TIP3    H164907   4.390   3.805   2.352 -0.8218  3.3005  0.2938
14472TIP3    H264908   4.534   3.787   2.309 -1.0056 -1.1115  1.0574
14473TIP3   OH264909   6.321   5.175  15.224 -0.5401 -0.5681 -0.2653
14473TIP3    H164910   6.251   5.111  15.216 -1.4176  0.3843 -0.4840
14473TIP3    H264911   6.295   5.230  15.298  0.7788 -1.1413  0.6633
14474TIP3   OH264912   5.163   4.964  10.927 -0.1027  0.4947  0.3021
14474TIP3    H164913   5.141   4.871  10.915 -1.2303  0.8139 -0.2024
14474TIP3    H264914   5.107   4.992  11.000  2.2618  0.1168  2.4251
14475TIP3   OH264915   1.696   3.179   2.608  0.3954  0.2258 -0.5825
14475TIP3    H164916   1.619   3.213   2.562  0.7388 -0.2193 -1.5084
14475TIP3    H264917   1.687   3.212   2.697 -0.5501  0.6889 -0.8373
14476TIP3   OH264918   6.017   0.148   1.996 -0.0708  0.1037  0.3617
14476TIP3    H164919   6.038   0.224   1.942 -1.7627 -0.1009 -0.6622
14476TIP3    H264920   6.091   0.139   2.055  1.0927  1.3185 -0.8542
14477TIP3   OH264921   3.665   0.521   1.145  0.0512 -0.0663 -0.0982
14477TIP3    H164922   3.575   0.490   1.150 -0.0621  0.1755 -0.5678
14477TIP3    H264923   3.702   0.475   1.069 -0.0063  0.6435 -0.5644
14478TIP3   OH264924   5.480   0.796   5.155  0.4394  0.6515 -0.0686
14478TIP3    H164925   5.511   0.707   5.172 -0.7653  0.4578  1.3056
14478TIP3    H264926   5.405   0.785   5.098 -0.4483  0.6560  1.0596
14479TIP3   OH264927   1.057   0.506  12.955  0.0500 -0.0275 -0.0334
14479TIP3    H164928   0.991   0.459  12.905 -0.1874  0.3709 -0.0918
14479TIP3    H264929   1.022   0.594  12.966  0.3719  0.0621  0.3139
14480TIP3   OH264930   1.123   4.942  10.680 -0.0563 -0.1838 -0.0553
14480TIP3    H164931   1.077   4.985  10.752  0.6148  0.0595  0.2351
14480TIP3    H264932   1.125   4.849  10.706  1.3095  0.0748  0.8882
14481TIP3   OH264933   5.531   5.460  13.588  0.2265  0.2300 -0.3687
14481TIP3    H164934   5.594   5.414  13.643 -1.0498 -2.1939 -0.7853
14481TIP3    H264935   5.481   5.514  13.649 -0.1546 -1.2207  0.6593
14482TIP3   OH264936   1.253   2.547   4.658  0.0830 -0.0993 -0.0195
14482TIP3    H164937   1.262   2.590   4.573 -0.3275  1.2156  0.5558
14482TIP3    H264938   1.161   2.521   4.662 -0.3003  1.2420  0.6075
14483TIP3   OH264939   4.100   4.949  12.313 -0.0428 -0.0786 -0.2889
14483TIP3    H164940   4.153   4.879  12.350 -0.4001 -0.4357 -0.4374
14483TIP3    H264941   4.144   4.972  12.231  0.1919  0.0162 -0.1355
14484TIP3   OH264942   6.676   5.093   0.789  0.7600  0.4681 -0.4927
14484TIP3    H164943   6.680   5.107   0.694 -1.3148  0.6749 -0.6019
14484TIP3    H264944   6.658   4.999   0.798 -0.0323  0.6304 -0.3543
14485TIP3   OH264945   0.373   4.458  15.032  0.1751 -0.5171  0.2382
14485TIP3    H164946   0.353   4.432  15.121 -2.0967 -2.2767 -0.6992
14485TIP3    H264947   0.299   4.513  15.005 -0.4526 -2.0391 -1.3277
14486TIP3   OH264948   1.373   2.849  12.598 -0.1851 -0.2646 -0.2810
14486TIP3    H164949   1.426   2.910  12.650 -0.5533 -0.6654  0.5741
14486TIP3    H264950   1.394   2.872  12.507  0.6006  0.3265  0.0335
14487TIP3   OH264951   0.974   2.184  16.717 -0.4445  0.5690  0.2259
14487TIP3    H164952   0.905   2.145  16.770 -1.9839  1.5343 -0.9689
14487TIP3    H264953   0.951   2.162  16.627  0.1145  1.9371 -0.2807
14488TIP3   OH264954   4.278   2.558  16.037  0.3690 -0.2463  0.5629
14488TIP3    H164955   4.306   2.467  16.026 -0.7342 -0.5027 -0.2483
14488TIP3    H264956   4.183   2.555  16.024  0.2103  0.8982  1.3484
14489TIP3   OH264957   3.952   2.564   4.425 -0.1970 -0.1458  0.4505
14489TIP3    H164958   3.993   2.617   4.357  0.0858 -1.6071 -0.5736
14489TIP3    H264959   3.868   2.607   4.441 -0.6057 -0.1530 -1.3903
14490TIP3   OH264960   0.131   1.676  11.235 -0.0774 -0.3790  0.2695
14490TIP3    H164961   0.144   1.757  11.185  0.4752  0.0600  1.0994
14490TIP3    H264962   0.177   1.691  11.318  1.0523 -1.9937 -0.0108
14491TIP3   OH264963   6.383   0.091   1.664 -0.0255  0.0332  0.1406
14491TIP3    H164964   6.463   0.091   1.716  0.9283 -0.8565 -1.2656
14491TIP3    H264965   6.413   0.079   1.573 -1.8453 -2.7923 -0.2147
14492TIP3   OH264966   4.528   1.751  16.835 -0.4961  0.1002  0.3977
14492TIP3    H164967   4.588   1.790  16.771  0.6749  0.1453  1.4811
14492TIP3    H264968   4.510   1.663  16.799 -1.4505  0.8054 -0.9614
14493TIP3   OH264969   5.368   5.976   5.410  0.0279  0.0093  0.0417
14493TIP3    H164970   5.418   5.978   5.492  0.3606  0.2891 -0.1676
14493TIP3    H264971   5.338   6.066   5.397  0.9605  0.2280 -0.7384
14494TIP3   OH264972   6.142   4.627   4.470 -0.2438 -0.2132  0.1188
14494TIP3    H164973   6.204   4.560   4.440  1.1373  1.5017 -1.0657
14494TIP3    H264974   6.198   4.694   4.511 -1.6011  0.1511  1.4429
14495TIP3   OH264975   0.415   5.805   3.506 -0.4007  0.3830  0.2130
14495TIP3    H164976   0.501   5.847   3.510 -0.2589  0.1179  0.0623
14495TIP3    H264977   0.415   5.761   3.421 -0.3140 -0.3904  0.6024
14496TIP3   OH264978   3.903   1.731   2.585  0.2484  0.8353  0.1560
14496TIP3    H164979   3.946   1.718   2.501 -0.1510 -0.1809  0.0964
14496TIP3    H264980   3.838   1.799   2.568  0.6339  1.1235 -0.1816
14497TIP3   OH264981   6.346   0.461  16.643  0.2445 -0.1516  0.0137
14497TIP3    H164982   6.296   0.401  16.588  1.1006  1.0595 -2.1836
14497TIP3    H264983   6.433   0.421  16.649  0.2505 -0.1098  0.2250
14498TIP3   OH264984   6.793   0.372   2.897 -0.3978  0.0034  0.3609
14498TIP3    H164985   6.841   0.308   2.948 -0.4219 -0.8117 -0.6079
14498TIP3    H264986   6.859   0.437   2.872  0.0611 -0.7018 -0.3121
14499TIP3   OH264987   1.276   1.814   2.000  0.1344 -0.1609 -0.0185
14499TIP3    H164988   1.288   1.909   1.991 -1.4126 -0.0027 -0.5867
14499TIP3    H264989   1.303   1.778   1.915  0.0403 -0.1640 -0.0467
14500TIP3   OH264990   2.025   1.826  11.393  0.3214  0.3095  0.2258
14500TIP3    H164991   2.113   1.840  11.358  0.2354 -1.9619 -1.1088
14500TIP3    H264992   2.038   1.818  11.488  1.6695 -0.6212 -0.0052
14501TIP3   OH264993   5.461   6.141   1.078 -0.0855  0.6428  0.1634
14501TIP3    H164994   5.387   6.198   1.100 -2.1352 -1.7087 -0.1742
14501TIP3    H264995   5.470   6.150   0.983 -0.1411  0.6866  0.1619
14502TIP3   OH264996   4.805   2.617   3.633  0.0070  0.2618  0.5632
14502TIP3    H164997   4.755   2.545   3.672 -1.2163  0.7597 -0.0187
14502TIP3    H264998   4.738   2.674   3.595  0.8554  2.2575  1.8769
14503TIP3   OH264999   3.110   0.145   6.481 -0.0925 -0.1981 -0.4074
14503TIP3    H165000   3.030   0.197   6.480 -0.5734 -0.8898  0.6263
14503TIP3    H265001   3.180   0.208   6.498 -0.9210 -0.1271  3.6362
14504TIP3   OH265002   3.377   6.016  12.298 -0.4173  0.1514  0.4472
14504TIP3    H165003   3.443   5.962  12.255 -1.8884  0.8690 -3.1166
14504TIP3    H265004   3.315   5.953  12.335 -0.9556 -0.6848 -1.7129
14505TIP3   OH265005   4.224   1.073   5.600 -0.4824  0.2017  0.5507
14505TIP3    H165006   4.169   1.002   5.633 -2.0845  0.0134 -2.1682
14505TIP3    H265007   4.170   1.151   5.611 -0.8248  0.2104 -0.9087
14506TIP3   OH265008   4.315   0.086  12.035 -0.1419 -0.2422 -0.5899
14506TIP3    H165009   4.335   0.170  11.993 -0.2404  0.1237  0.0809
14506TIP3    H265010   4.293   0.109  12.125 -0.6415 -0.9445 -0.5239
14507TIP3   OH265011   1.766   5.532  15.997  0.2763  0.0785  0.0216
14507TIP3    H165012   1.817   5.457  16.027  2.4837  0.8021 -1.6785
14507TIP3    H265013   1.690   5.494  15.954 -0.5426 -1.0328  2.2956
14508TIP3   OH265014   1.541   1.446   2.833  0.3001 -0.1918 -0.4212
14508TIP3    H165015   1.566   1.434   2.925 -0.7659  0.3114 -0.0427
14508TIP3    H265016   1.451   1.414   2.829  0.4194 -0.4161 -1.3492
14509TIP3   OH265017   4.679   0.451   0.828  0.2348  0.4007  0.4995
14509TIP3    H165018   4.767   0.429   0.799  0.4967 -1.1570  2.2959
14509TIP3    H265019   4.686   0.542   0.859  1.0651  0.4658  0.1560
14510TIP3   OH265020   0.383   0.677  11.840 -0.0987  0.0239  0.5664
14510TIP3    H165021   0.356   0.769  11.844 -2.0306 -0.4726  0.1317
14510TIP3    H265022   0.309   0.629  11.877  0.5833 -1.4237  0.1278
14511TIP3   OH265023   5.050   2.633   0.329 -0.1705 -0.2894 -0.4369
14511TIP3    H165024   5.071   2.562   0.390 -0.0270 -0.1687 -0.3452
14511TIP3    H265025   5.035   2.590   0.246 -0.7695 -0.4982 -0.2242
14512TIP3   OH265026   0.335   4.812  12.750 -0.4115  0.0861 -0.4333
14512TIP3    H165027   0.347   4.904  12.727 -0.8354  0.1989 -0.2118
14512TIP3    H265028   0.323   4.812  12.845  0.0389 -0.2451 -0.3704
14513TIP3   OH265029   4.527   4.009  16.013 -0.1054  0.4619 -0.0430
14513TIP3    H165030   4.472   3.992  16.089  1.2766 -1.2054  0.6522
14513TIP3    H265031   4.604   4.054  16.050  0.3703  0.0390 -0.4971
14514TIP3   OH265032   3.606   6.636   5.598 -0.2044  0.6230  0.6780
14514TIP3    H165033   3.528   6.610   5.647 -0.8921 -0.7970 -1.0902
14514TIP3    H265034   3.576   6.708   5.542 -0.1914  0.2298  0.1635
14515TIP3   OH265035   5.037   0.719  12.861 -0.4410  0.1436 -0.1106
14515TIP3    H165036   5.016   0.641  12.913  0.6419  0.6663  1.1657
14515TIP3    H265037   4.972   0.784  12.888  0.2890  0.5025  0.8423
14516TIP3   OH265038   2.206   4.621   5.583 -0.8656 -0.1972 -0.3809
14516TIP3    H165039   2.286   4.673   5.577  0.1076 -1.7673 -2.8881
14516TIP3    H265040   2.136   4.682   5.562 -0.1546  0.8387  0.1631
14517TIP3   OH265041   5.162   3.260  11.401  0.2299  0.6890  0.1127
14517TIP3    H165042   5.122   3.179  11.370 -0.8057  1.3824 -0.4232
14517TIP3    H265043   5.162   3.318  11.325 -2.0283  2.2998  1.2175
14518TIP3   OH265044   4.155   6.550   3.079  0.2480  0.3011  0.3725
14518TIP3    H165045   4.069   6.589   3.095  0.8176  1.2455  1.2039
14518TIP3    H265046   4.156   6.472   3.135 -0.8258 -0.8808 -1.1675
14519TIP3   OH265047   6.122   6.175  16.009  0.2429  0.1498 -0.2110
14519TIP3    H165048   6.178   6.153  15.935 -0.0859  1.1292 -0.7607
14519TIP3    H265049   6.159   6.256  16.044 -1.4481  1.4490 -1.2709
14520TIP3   OH265050   4.713   4.238   4.449 -0.2949  0.3611 -0.1405
14520TIP3    H165051   4.676   4.281   4.526 -0.0544 -1.3479  1.0149
14520TIP3    H265052   4.690   4.145   4.461 -2.4283  0.2950 -3.4257
14521TIP3   OH265053   2.051   5.019  13.433  0.2216  0.0467 -0.1747
14521TIP3    H165054   2.121   5.084  13.434 -0.8920  1.2725 -0.1686
14521TIP3    H265055   2.096   4.935  13.423  1.7067  0.7794  0.1936
14522TIP3   OH265056   4.938   3.247  11.584  0.0298  0.1062  0.6221
14522TIP3    H165057   4.907   3.194  11.510 -1.7515  0.7707  0.8372
14522TIP3    H265058   4.893   3.331  11.573 -0.1749  0.2605  2.3875
14523TIP3   OH265059   2.645   4.578   2.469  0.3700 -0.2706  0.1719
14523TIP3    H165060   2.562   4.551   2.432  0.3489 -1.0807  0.7906
14523TIP3    H265061   2.626   4.593   2.562  0.2257  2.5354 -0.2219
14524TIP3   OH265062   5.913   4.457  12.449  0.2764  0.2348 -0.0522
14524TIP3    H165063   5.834   4.493  12.488 -0.0233 -1.3703  0.9038
14524TIP3    H265064   5.949   4.529  12.398 -1.3057  1.2731  0.2230
14525TIP3   OH265065   2.838   6.274  11.142 -0.8606  0.0168 -0.3625
14525TIP3    H165066   2.871   6.187  11.166  0.5163  0.5066 -0.3989
14525TIP3    H265067   2.916   6.323  11.117 -1.3289  1.8681  1.5116
14526TIP3   OH265068   1.154   4.345  15.937 -0.3708 -0.3130 -0.0831
14526TIP3    H165069   1.066   4.383  15.930  0.2746  1.1851 -0.6056
14526TIP3    H265070   1.176   4.354  16.030 -1.1634 -1.6855  0.2588
14527TIP3   OH265071   2.167   5.944   2.195  0.1236 -0.0015 -0.2186
14527TIP3    H165072   2.095   5.891   2.228  1.1957  0.0568  2.4559
14527TIP3    H265073   2.141   5.968   2.107 -1.9140 -2.1524 -0.2864
14528TIP3   OH265074   3.828   5.845  13.777 -0.3210 -0.5925  0.2231
14528TIP3    H165075   3.861   5.773  13.830  0.4373  0.2044  0.8742
14528TIP3    H265076   3.802   5.912  13.841 -3.1279 -1.1041 -0.2458
14529TIP3   OH265077   3.852   5.706  14.041 -0.9683  0.0413  0.0554
14529TIP3    H165078   3.918   5.646  14.076 -0.0801  0.5627 -0.6933
14529TIP3    H265079   3.841   5.772  14.109  0.1817  0.6171 -0.2797
14530TIP3   OH265080   2.928   0.939   3.861 -0.1940 -0.6833 -0.1380
14530TIP3    H165081   2.916   0.915   3.952  0.5337 -0.7672 -0.0544
14530TIP3    H265082   2.975   0.865   3.822 -1.6965 -1.2654 -0.9253
14531TIP3   OH265083   1.403   6.133   5.286  0.5056 -0.3280 -0.1416
14531TIP3    H165084   1.380   6.198   5.353  0.3921 -0.1637 -0.3407
14531TIP3    H265085   1.472   6.080   5.327  1.1580  0.4037 -0.2580
14532TIP3   OH265086   5.916   0.853   3.274  0.0884 -0.1318  0.7658
14532TIP3    H165087   5.854   0.826   3.341  0.1675  0.6598  1.1718
14532TIP3    H265088   5.863   0.905   3.213  0.0547 -0.6949  0.3113
14533TIP3   OH265089   6.226   6.784   6.553  0.3385 -0.1772 -0.1585
14533TIP3    H165090   6.241   6.776   6.647  0.0152  0.6915 -0.0255
14533TIP3    H265091   6.270   6.708   6.515  2.9941  0.9657  0.4159
14534TIP3   OH265092   5.136   5.803   5.961 -0.2140 -0.2229  0.1036
14534TIP3    H165093   5.193   5.806   6.037 -0.2739  1.1760  0.1127
14534TIP3    H265094   5.052   5.772   5.996 -0.4757  1.1575  0.7986
14535TIP3   OH265095   1.676   3.465  15.096  0.9701 -0.4920  0.3086
14535TIP3    H165096   1.755   3.417  15.071  1.7334  0.9671 -0.2087
14535TIP3    H265097   1.618   3.458  15.020  0.6801 -1.3712  0.6006
14536TIP3   OH265098   5.802   1.424   3.296  0.0710  0.5084  0.1654
14536TIP3    H165099   5.792   1.329   3.307  1.0156  0.1067 -1.8634
14536TIP3    H265100   5.861   1.450   3.367 -0.6937 -0.2818  1.1273
14537TIP3   OH265101   3.747   1.389   0.587  0.2560  0.8190 -0.4024
14537TIP3    H165102   3.769   1.481   0.575  0.3838  0.8675  0.1625
14537TIP3    H265103   3.676   1.390   0.651  1.8152  0.4276  1.4450
14538TIP3   OH265104   4.057   6.625   1.231 -0.2648  0.3582  0.4144
14538TIP3    H165105   3.970   6.587   1.222 -0.3916  0.7389 -0.0127
14538TIP3    H265106   4.110   6.556   1.271 -0.4986 -0.2500 -0.3162
14539TIP3   OH265107   1.661   4.399  15.013  0.3889  0.2890 -0.0355
14539TIP3    H165108   1.626   4.327  14.962  0.2235 -0.5781  1.2569
14539TIP3    H265109   1.627   4.478  14.970 -0.7463 -0.4498 -0.5311
14540TIP3   OH265110   6.740   1.902  14.199 -0.3436  0.4584  0.0557
14540TIP3    H165111   6.760   1.898  14.293  1.5349 -0.3571 -0.3296
14540TIP3    H265112   6.821   1.935  14.159 -0.8864  0.1685 -1.3356
14541TIP3   OH265113   1.121   3.789  11.738  0.0800 -0.3825 -0.7665
14541TIP3    H165114   1.117   3.850  11.812 -2.2233  0.1802 -1.2661
14541TIP3    H265115   1.200   3.737  11.754  0.9605  1.3120  0.7989
14542TIP3   OH265116   0.424   2.211  10.800  0.5145 -0.6165  0.1320
14542TIP3    H165117   0.375   2.271  10.743  1.8333 -0.0571 -0.4651
14542TIP3    H265118   0.387   2.125  10.782 -1.7219  0.0311  1.3207
14543TIP3   OH265119   0.289   6.365  11.818 -0.0101  0.0281  0.2164
14543TIP3    H165120   0.346   6.357  11.742 -0.6897 -0.2914 -0.2696
14543TIP3    H265121   0.200   6.363  11.782 -0.4194 -2.4065  1.1451
14544TIP3   OH265122   1.358   5.881   5.921 -0.5704 -0.1112 -0.3603
14544TIP3    H165123   1.429   5.824   5.947 -0.7977 -0.9057 -1.4046
14544TIP3    H265124   1.279   5.840   5.957 -0.5101  0.8312  0.8991
14545TIP3   OH265125   2.712   1.918  10.836  0.7444 -0.0571  0.2258
14545TIP3    H165126   2.690   1.866  10.913 -0.1016  0.6111  0.4486
14545TIP3    H265127   2.757   1.994  10.872  0.7860  0.0167  0.0161
14546TIP3   OH265128   1.213   4.174   0.524 -0.0706  0.1426  0.5021
14546TIP3    H165129   1.196   4.093   0.572  1.7087 -0.1269  0.7402
14546TIP3    H265130   1.169   4.242   0.575 -1.0289 -0.5620  0.6497
14547TIP3   OH265131   5.700   3.986  16.532  0.1013 -0.8607  0.3102
14547TIP3    H165132   5.616   4.005  16.573 -0.5770  0.9318 -1.7278
14547TIP3    H265133   5.758   4.056  16.563 -0.2104  0.0553 -1.0654
14548TIP3   OH265134   0.983   4.014  16.061  0.1015 -0.3198  0.3247
14548TIP3    H165135   0.978   4.044  15.970  0.0604  1.8438  0.9943
14548TIP3    H265136   0.906   4.051  16.103  0.4788 -0.7246  1.4104
14549TIP3   OH265137   3.219   6.775  12.635  0.2264 -0.4029 -0.6946
14549TIP3    H165138   3.272   6.773  12.715  1.8009  1.1423 -1.6171
14549TIP3    H265139   3.204   6.868  12.618 -2.7929 -0.7608 -0.5617
14550TIP3   OH265140   4.225   3.256  16.282 -0.4222  0.5267 -0.1672
14550TIP3    H165141   4.201   3.171  16.245  0.9610  0.6305 -1.3722
14550TIP3    H265142   4.287   3.235  16.352 -0.9640  0.5008  0.3197
14551TIP3   OH265143   1.643   2.459  15.387  0.0267 -0.0129  1.2889
14551TIP3    H165144   1.733   2.431  15.399 -0.1085 -1.5547 -0.7396
14551TIP3    H265145   1.590   2.386  15.419 -0.4410 -0.1246  0.2927
14552TIP3   OH265146   2.761   6.763  12.063  0.8310 -0.1885 -0.5364
14552TIP3    H165147   2.856   6.774  12.064  0.8642 -0.4768 -0.4549
14552TIP3    H265148   2.728   6.842  12.021  1.1242 -0.2017 -0.7965
14553TIP3   OH265149   0.700   6.150   1.224 -0.6346 -0.1094  0.4434
14553TIP3    H165150   0.792   6.145   1.197 -1.2344 -1.0730 -1.6190
14553TIP3    H265151   0.651   6.118   1.148 -2.7692  1.6332  0.9909
14554TIP3   OH265152   3.676   2.857   0.401 -0.0184  0.0928 -0.6703
14554TIP3    H165153   3.753   2.849   0.457  0.5649  0.2990 -1.4195
14554TIP3    H265154   3.608   2.890   0.459  1.1491  2.4867 -0.4980
14555TIP3   OH265155   5.327   3.634  16.423  0.4324 -0.1470 -0.0830
14555TIP3    H165156   5.233   3.618  16.414 -0.1202  2.0701  0.9564
14555TIP3    H265157   5.355   3.574  16.492 -0.2695 -0.6280 -0.2079
14556TIP3   OH265158   4.492   1.354   0.319  0.0909  0.2225  0.1237
14556TIP3    H165159   4.478   1.332   0.227  1.0575 -1.2163  0.2863
14556TIP3    H265160   4.554   1.427   0.317 -0.1576  0.4245 -0.3620
14557TIP3   OH265161   0.688   3.357  16.934  0.0928  0.4427 -0.0573
14557TIP3    H165162   0.632   3.406  16.994  0.5511  0.9878 -0.0587
14557TIP3    H265163   0.715   3.422  16.869  0.9320  0.2592  0.0967
14558TIP3   OH265164   5.493   4.824  16.546 -0.4234 -0.1032 -0.1824
14558TIP3    H165165   5.454   4.855  16.627 -1.1911  0.9241 -0.9230
14558TIP3    H265166   5.509   4.731  16.561 -0.7823  0.0254  1.0532
14559TIP3   OH265167   1.471   6.107   5.837  0.0706 -0.1335  0.5905
14559TIP3    H165168   1.429   6.023   5.852  0.9718 -0.4145  1.5965
14559TIP3    H265169   1.401   6.161   5.799 -0.5285 -1.3010 -0.0351
14560TIP3   OH265170   4.859   0.255  13.499 -0.4114 -0.1281  0.1229
14560TIP3    H165171   4.810   0.174  13.491 -0.1774 -0.2165 -0.4570
14560TIP3    H265172   4.792   0.323  13.511 -0.6877 -0.2232 -0.8355
14561TIP3   OH265173   5.570   2.051   0.486  0.0451 -0.8387  0.0399
14561TIP3    H165174   5.661   2.072   0.507 -0.0566  0.5827 -0.7749
14561TIP3    H265175   5.575   1.966   0.442  1.2062 -0.0919 -1.3916
14562TIP3   OH265176   0.929   5.075   3.485 -0.3082 -0.4364 -0.3078
14562TIP3    H165177   0.899   5.109   3.401  3.4584  1.8731 -0.9697
14562TIP3    H265178   0.896   5.137   3.550 -2.3178 -1.6329 -0.0977
14563TIP3   OH265179   2.812   5.156   1.253 -0.3074 -0.0637 -0.1118
14563TIP3    H165180   2.756   5.190   1.324  2.2791  2.0055  1.1021
14563TIP3    H265181   2.817   5.228   1.191  1.4229  0.0164  0.0893
14564TIP3   OH265182   1.818   1.583   4.290  0.6262  0.2367 -0.3185
14564TIP3    H165183   1.761   1.652   4.321  2.4152  0.8637  1.8432
14564TIP3    H265184   1.784   1.503   4.330  1.9708  0.8144  2.1976
14565TIP3   OH265185   5.267   5.141   2.165  0.1711  0.1406 -0.4217
14565TIP3    H165186   5.266   5.236   2.167  0.3649  0.1388  1.0244
14565TIP3    H265187   5.209   5.115   2.237  2.6712 -0.7645  1.4340
14566TIP3   OH265188   2.333   4.913   2.390 -0.6064 -0.0980  0.2121
14566TIP3    H165189   2.252   4.870   2.419  0.3652 -1.5250  0.9575
14566TIP3    H265190   2.367   4.955   2.469 -1.0240  1.2249 -0.2891
14567TIP3   OH265191   4.583   6.538  14.355 -0.5022  0.1257 -0.1216
14567TIP3    H165192   4.621   6.451  14.366 -0.8797 -0.0825 -0.4514
14567TIP3    H265193   4.499   6.534  14.401 -0.7321  0.1659 -0.5315
14568TIP3   OH265194   3.730   6.278   5.105 -0.2284  0.1603 -0.1643
14568TIP3    H165195   3.679   6.356   5.083 -0.9510 -0.3130 -0.2169
14568TIP3    H265196   3.773   6.254   5.023 -1.7428 -0.7452 -0.7306
14569TIP3   OH265197   4.588   5.421  14.553 -0.2937  0.5204  0.0050
14569TIP3    H165198   4.596   5.356  14.623  1.8557 -1.4309 -1.8842
14569TIP3    H265199   4.533   5.378  14.488  0.2514  1.0383 -0.8066
14570TIP3   OH265200   0.798   4.941  14.245  0.3767  0.0847 -0.3295
14570TIP3    H165201   0.838   4.914  14.162  1.8270 -0.7305  0.5765
14570TIP3    H265202   0.719   4.887  14.252  0.3200  0.0510 -1.0981
14571TIP3   OH265203   4.552   0.618   3.103  0.2528  0.0278  0.0047
14571TIP3    H165204   4.608   0.598   3.178 -0.0687 -0.2631  0.1760
14571TIP3    H265205   4.477   0.559   3.114 -0.0806  0.4044 -0.2214
14572TIP3   OH265206   5.947   3.116   3.119 -0.0475 -0.2316 -0.9327
14572TIP3    H165207   5.968   3.207   3.142  0.4648 -0.4833 -0.3834
14572TIP3    H265208   5.858   3.103   3.149  0.7874 -0.7246  1.4980
14573TIP3   OH265209   2.530   6.336   3.116  0.5316 -0.3244  0.3142
14573TIP3    H165210   2.531   6.319   3.022  2.0525 -2.2941  0.6213
14573TIP3    H265211   2.535   6.432   3.123  1.4208 -0.1849 -1.6046
14574TIP3   OH265212   0.509   2.774  12.345 -0.4915 -0.7167  0.4717
14574TIP3    H165213   0.585   2.717  12.339 -1.0428 -1.4176  0.0894
14574TIP3    H265214   0.455   2.735  12.413 -0.4913 -0.1832  0.7878
14575TIP3   OH265215   6.079   0.410   1.940 -0.1318  0.2083 -0.3396
14575TIP3    H165216   6.010   0.460   1.984 -0.5128 -1.5737  1.2095
14575TIP3    H265217   6.157   0.422   1.994 -0.8222 -2.7180  1.5086
14576TIP3   OH265218   3.525   2.354  16.382 -0.0080 -0.2854  0.0907
14576TIP3    H165219   3.499   2.444  16.403  1.3998 -0.1423  1.3695
14576TIP3    H265220   3.442   2.307  16.374 -0.7959  0.3164  3.2268
14577TIP3   OH265221   0.845   5.225   5.323  0.0412  0.0050 -0.2626
14577TIP3    H165222   0.802   5.309   5.301 -1.7543 -0.8437 -0.1775
14577TIP3    H265223   0.775   5.160   5.316  1.4812 -1.5631 -0.6710
14578TIP3   OH265224   3.321   0.301   6.551 -0.2317  0.2026 -0.1588
14578TIP3    H165225   3.357   0.220   6.586  0.6682  0.0544 -1.3782
14578TIP3    H265226   3.397   0.357   6.536 -0.7145  0.7250 -0.6932
14579TIP3   OH265227   5.563   6.401   0.863  0.5368  0.7443  0.1839
14579TIP3    H165228   5.485   6.397   0.808  1.4064  2.6328 -1.3319
14579TIP3    H265229   5.572   6.494   0.884  0.7210  0.1936  2.9160
14580TIP3   OH265230   1.398   6.746  11.366 -0.0435  0.1425 -0.4790
14580TIP3    H165231   1.441   6.757  11.282  0.1785  2.3155 -0.1362
14580TIP3    H265232   1.330   6.813  11.367 -0.5193 -0.3265  0.7850
14581TIP3   OH265233   6.599   6.470  15.704 -0.0157 -0.2672 -0.5237
14581TIP3    H165234   6.527   6.407  15.704 -0.8334  0.4676  2.6716
14581TIP3    H265235   6.678   6.417  15.715  0.0523 -1.0733 -3.9696
14582TIP3   OH265236   2.577   2.903  13.062  0.9681  0.2518  0.6073
14582TIP3    H165237   2.586   2.824  13.115  1.7822 -0.7248 -0.9212
14582TIP3    H265238   2.494   2.892  13.016  1.5222 -0.1850 -0.3154
14583TIP3   OH265239   2.116   5.176  12.057  0.1434  0.0290  0.2094
14583TIP3    H165240   2.194   5.187  12.111  1.0192  0.0892 -1.0348
14583TIP3    H265241   2.056   5.127  12.113  1.2905 -0.5406  0.9926
14584TIP3   OH265242   4.306   1.430  12.061 -0.0330  0.2326 -0.0765
14584TIP3    H165243   4.275   1.403  12.148  0.1303 -1.6524 -0.5540
14584TIP3    H265244   4.393   1.465  12.077 -0.4030  0.8517  0.6391
14585TIP3   OH265245   1.235   5.459   5.502 -0.2852  0.9220  0.1238
14585TIP3    H165246   1.143   5.440   5.485  0.2811 -2.6105  0.3109
14585TIP3    H265247   1.280   5.434   5.421  0.5401  3.1860 -0.1969
14586TIP3   OH265248   4.858   5.391  13.133 -0.3654 -0.3332  0.1399
14586TIP3    H165249   4.898   5.340  13.204  2.5367  0.4559 -0.7847
14586TIP3    H265250   4.825   5.325  13.072 -0.1758 -1.0665  0.8183
14587TIP3   OH265251   5.615   6.265   2.085 -0.0310  0.7322  0.0923
14587TIP3    H165252   5.606   6.196   2.019 -0.2935  0.7269  0.1331
14587TIP3    H265253   5.590   6.223   2.167  0.2260  0.7597  0.1857
14588TIP3   OH265254   2.680   4.727   0.640  0.6309  0.5310  0.2724
14588TIP3    H165255   2.693   4.799   0.578  0.5106  1.1452  0.9511
14588TIP3    H265256   2.680   4.769   0.726  3.2800 -0.5843  0.9046
14589TIP3   OH265257   2.669   6.684  11.734  0.2111 -0.5004 -0.1642
14589TIP3    H165258   2.760   6.668  11.711 -0.3285 -1.2408 -1.9459
14589TIP3    H265259   2.644   6.610  11.789  0.0024 -1.6712 -1.7730
14590TIP3   OH265260   4.385   1.607   4.506 -0.9567  0.6010  0.0209
14590TIP3    H165261   4.315   1.552   4.544 -0.9540 -0.3995 -1.3459
14590TIP3    H265262   4.440   1.629   4.581 -0.7883 -1.5457  0.6114
14591TIP3   OH265263   0.820   4.370   1.799  0.0150 -0.5881  0.3636
14591TIP3    H165264   0.777   4.310   1.859 -0.7782 -1.4375 -1.0046
14591TIP3    H265265   0.828   4.321   1.718  0.8039  0.6203 -0.3193
14592TIP3   OH265266   4.168   5.222   0.327  0.5636  0.5049  0.3769
14592TIP3    H165267   4.251   5.268   0.312  1.8196 -1.9872 -0.8407
14592TIP3    H265268   4.134   5.205   0.239  0.0495 -0.6802  0.7924
14593TIP3   OH265269   3.489   1.496  16.901 -0.1103 -0.4725  0.2709
14593TIP3    H165270   3.422   1.558  16.871  0.1199  0.2356  1.1697
14593TIP3    H265271   3.545   1.483  16.824  1.8102  3.0674  0.8255
14594TIP3   OH265272   0.275   0.289  11.167  0.0833  0.3212 -0.2076
14594TIP3    H165273   0.267   0.378  11.131 -0.1137 -0.0527 -1.1172
14594TIP3    H265274   0.185   0.255  11.165  0.0398  0.3473  0.8093
14595TIP3   OH265275   2.779   4.721  14.436 -0.3517 -0.2293  0.3354
14595TIP3    H165276   2.739   4.796  14.392 -1.0195 -1.9726 -2.2288
14595TIP3    H265277   2.873   4.737  14.429 -0.4845  0.7144  0.5083
14596TIP3   OH265278   3.915   4.955   1.651  0.2296 -0.3364 -0.1219
14596TIP3    H165279   3.960   5.034   1.622 -0.3229 -0.3644 -1.0808
14596TIP3    H265280   3.822   4.975   1.641  0.0855 -1.2310 -0.7449
14597TIP3   OH265281   1.127   2.249   0.304 -0.1852 -0.0865  0.2764
14597TIP3    H165282   1.093   2.173   0.256  0.0529 -0.9176  1.3922
14597TIP3    H265283   1.053   2.309   0.309 -1.2419 -1.4536  1.8091
14598TIP3   OH265284   4.229   5.196   5.484  0.7380  0.5984  0.0086
14598TIP3    H165285   4.239   5.272   5.427  0.0798  0.7285  0.0677
14598TIP3    H265286   4.200   5.126   5.426  2.2154  0.1291 -0.2201
14599TIP3   OH265287   2.931   6.692  13.090 -0.0638  0.1679 -0.0864
14599TIP3    H165288   2.866   6.715  13.156 -0.2272  0.7814 -0.4518
14599TIP3    H265289   2.970   6.776  13.064  1.2299 -0.2385  0.4852
14600TIP3   OH265290   5.895   5.006   2.594  0.2246  0.1870  0.0049
14600TIP3    H165291   5.961   4.986   2.528 -0.5048  0.9744 -1.0043
14600TIP3    H265292   5.944   5.047   2.666  1.1302 -1.3596  0.3167
14601TIP3   OH265293   3.901   0.609   5.138  0.7411 -0.5445  0.1791
14601TIP3    H165294   3.817   0.570   5.112  0.5402 -0.5872  0.8734
14601TIP3    H265295   3.895   0.699   5.108  0.1513 -0.3531  0.8381
14602TIP3   OH265296   4.454   0.589  17.181 -0.0651  0.4327 -0.5850
14602TIP3    H165297   4.469   0.611  17.089  1.4341  0.7116 -0.2997
14602TIP3    H265298   4.436   0.495  17.180 -0.4223  0.5036 -1.1962
14603TIP3   OH265299   5.795   5.789   5.256 -0.2564 -0.5048  0.0421
14603TIP3    H165300   5.746   5.789   5.173 -1.2084 -2.1428  0.5629
14603TIP3    H265301   5.731   5.820   5.320  0.7706  1.7436  0.0617
14604TIP3   OH265302   3.099   2.271   3.033 -0.4022 -0.0338  0.2803
14604TIP3    H165303   3.180   2.258   2.983  0.8632  0.7746  2.0080
14604TIP3    H265304   3.045   2.195   3.012  0.7282 -0.5037 -1.0600
14605TIP3   OH265305   6.004   4.002   1.919  0.1510 -0.0546 -0.1200
14605TIP3    H165306   6.094   3.997   1.951  0.0681 -0.8465  0.0361
14605TIP3    H265307   5.956   3.941   1.976 -1.0755  2.4261  1.7022
14606TIP3   OH265308   4.325   5.134  11.247 -0.3324 -0.6070  0.0514
14606TIP3    H165309   4.372   5.055  11.222  1.2009  0.2759 -0.0046
14606TIP3    H265310   4.363   5.158  11.332 -0.6500  0.1437 -0.0143
14607TIP3   OH265311   5.407   0.610  15.539  0.0013 -0.4321  0.3026
14607TIP3    H165312   5.345   0.591  15.609  0.1074 -0.7755  0.3058
14607TIP3    H265313   5.442   0.524  15.514  0.4472 -0.2482  0.2785
14608TIP3   OH265314   1.123   1.702   1.420  0.6030  0.0270 -0.3212
14608TIP3    H165315   1.060   1.774   1.413 -0.0238 -0.1899  2.0138
14608TIP3    H265316   1.073   1.631   1.460  1.8914 -0.7426 -0.0321
14609TIP3   OH265317   5.066   5.538  11.533 -0.1265  0.6034 -0.7116
14609TIP3    H165318   5.023   5.502  11.455  0.6884  1.2533 -1.4814
14609TIP3    H265319   5.113   5.615  11.501  2.1888 -0.4466 -0.0651
14610TIP3   OH265320   4.750   6.672  10.980 -0.0905  0.1250  0.2989
14610TIP3    H165321   4.665   6.659  10.938 -0.4929  2.2253  0.3543
14610TIP3    H265322   4.813   6.640  10.916 -0.8591 -0.5924 -0.1318
14611TIP3   OH265323   4.311   2.835  11.891 -0.2839  0.7033 -0.0577
14611TIP3    H165324   4.347   2.924  11.891 -0.8875  0.9562 -0.1731
14611TIP3    H265325   4.379   2.781  11.851  0.6326  0.8767  1.2023
14612TIP3   OH265326   2.550   2.995  11.936 -0.0550  0.1692 -0.5999
14612TIP3    H165327   2.542   2.917  11.881 -1.0513 -0.0834 -0.1103
14612TIP3    H265328   2.605   2.966  12.009  0.5910  0.2821 -1.0235
14613TIP3   OH265329   2.141   4.257  10.682 -0.1523  0.7447 -0.1842
14613TIP3    H165330   2.158   4.163  10.672  0.8298  0.6054  2.0880
14613TIP3    H265331   2.049   4.262  10.708 -0.2037  0.3966 -0.2941
14614TIP3   OH265332   0.574   4.459  11.483  0.0832 -0.3485  0.6825
14614TIP3    H165333   0.652   4.514  11.487  0.4326 -0.9040  1.6578
14614TIP3    H265334   0.516   4.495  11.550 -0.5239  0.0726 -0.0475
14615TIP3   OH265335   6.218   3.428  11.849 -0.1189  0.2115  0.1181
14615TIP3    H165336   6.146   3.388  11.800  0.4001 -0.5870 -0.0014
14615TIP3    H265337   6.176   3.470  11.924 -0.6256 -0.9083  0.4685
14616TIP3   OH265338   4.198   5.519   1.372  0.5086  0.2969 -0.2102
14616TIP3    H165339   4.116   5.513   1.323  1.4771  2.1931 -2.3008
14616TIP3    H265340   4.258   5.461   1.325  0.8817  0.4845  0.0288
14617TIP3   OH265341   6.311   2.150  17.167  0.2439  0.0431  0.2479
14617TIP3    H165342   6.325   2.216  17.099  0.1085  0.8674  0.9977
14617TIP3    H265343   6.315   2.200  17.249  0.1395 -0.8877  0.8261
14618TIP3   OH265344   1.305   5.413  15.420  0.2366 -0.1961 -0.2006
14618TIP3    H165345   1.247   5.345  15.385 -0.5008  0.6403 -0.6533
14618TIP3    H265346   1.318   5.473  15.347  0.6593  0.2994  0.2701
14619TIP3   OH265347   2.174   6.250  16.347 -0.1969 -0.0162  0.3597
14619TIP3    H165348   2.172   6.154  16.351 -0.4513  0.0258  1.6155
14619TIP3    H265349   2.115   6.272  16.275  0.4406 -0.8233 -0.4303
14620TIP3   OH265350   5.990   2.949   2.822 -0.1176  0.1131  0.4699
14620TIP3    H165351   6.034   2.883   2.876  0.6423 -1.2472 -1.6673
14620TIP3    H265352   5.898   2.944   2.848 -0.0288 -1.6051  0.5670
14621TIP3   OH265353   3.702   2.414  15.668  0.0844  0.0429 -0.2857
14621TIP3    H165354   3.771   2.467  15.707 -1.6415  1.8651  0.4717
14621TIP3    H265355   3.701   2.333  15.719  0.7155  0.5890  0.6023
14622TIP3   OH265356   4.214   6.683   2.855 -0.0762 -0.6254 -0.4776
14622TIP3    H165357   4.208   6.626   2.932  0.2014 -1.5164 -1.1041
14622TIP3    H265358   4.255   6.763   2.887 -1.9727 -0.0919  0.7902
14623TIP3   OH265359   6.677   4.667   3.369 -0.0110  0.0753 -0.4464
14623TIP3    H165360   6.750   4.606   3.380  0.9981  1.2723 -0.2338
14623TIP3    H265361   6.635   4.639   3.288  0.5831 -0.7401 -0.4919
14624TIP3   OH265362   4.504   6.679   1.921 -0.1172  0.4481  0.3573
14624TIP3    H165363   4.433   6.707   1.979 -1.6397  0.2990 -1.3485
14624TIP3    H265364   4.545   6.761   1.892  0.2399  0.5476  1.1253
14625TIP3   OH265365   3.632   6.213   3.913 -0.0980 -0.0803 -0.3615
14625TIP3    H165366   3.697   6.211   3.843 -0.6536 -1.6162 -0.8770
14625TIP3    H265367   3.682   6.198   3.993  0.2182 -1.2188 -0.7485
14626TIP3   OH265368   4.462   4.268  12.699 -0.4988 -0.4884  0.4674
14626TIP3    H165369   4.417   4.187  12.674 -0.7431 -0.2985  0.2882
14626TIP3    H265370   4.392   4.326  12.729 -0.4017 -0.1232  0.0094
14627TIP3   OH265371   3.879   0.651  13.415  0.1951 -0.4127 -0.0758
14627TIP3    H165372   3.866   0.624  13.506  0.7707  0.5912  0.3193
14627TIP3    H265373   3.814   0.600  13.366  0.7271 -1.9114  0.7122
14628TIP3   OH265374   0.369   4.266  14.291 -0.1670  0.0252 -0.4379
14628TIP3    H165375   0.297   4.211  14.325 -0.4065 -0.2879 -1.4223
14628TIP3    H265376   0.369   4.250  14.197 -0.2396  1.7264 -0.7606
14629TIP3   OH265377   2.055   2.422  10.561  0.5485 -0.2125 -0.3369
14629TIP3    H165378   2.097   2.496  10.519 -0.7789  0.8076  0.0441
14629TIP3    H265379   2.116   2.349  10.549  1.3259  0.6342 -1.7985
14630TIP3   OH265380   1.669   2.731   2.994 -0.1551 -0.4493 -0.1788
14630TIP3    H165381   1.619   2.677   2.933  1.7492 -0.8723 -1.4614
14630TIP3    H265382   1.620   2.813   3.000 -1.5021 -1.1907 -0.5622
14631TIP3   OH265383   0.969   1.120   1.843  0.4237  0.1757 -0.6349
14631TIP3    H165384   1.027   1.196   1.847 -1.3827  1.7122 -1.7421
14631TIP3    H265385   1.028   1.045   1.848  2.2667  1.6032  0.8267
14632TIP3   OH265386   4.623   3.963  14.392 -0.5999  0.4277  0.3927
14632TIP3    H165387   4.703   4.016  14.398 -0.5044  0.1807  1.5900
14632TIP3    H265388   4.583   3.971  14.479 -1.4718 -0.0922  0.0483
14633TIP3   OH265389   1.777   6.418   2.850 -0.0792  0.3416  0.2151
14633TIP3    H165390   1.803   6.327   2.839 -1.1167  0.1400 -0.8310
14633TIP3    H265391   1.850   6.469   2.813 -0.4414 -0.1503 -1.2372
14634TIP3   OH265392   2.996   4.971  12.692 -0.2935  0.0501 -0.0407
14634TIP3    H165393   3.072   4.994  12.640 -0.0439  2.5659  1.2908
14634TIP3    H265394   3.026   4.976  12.782 -1.2543 -2.1433  0.4662
14635TIP3   OH265395   4.737   0.523  12.795 -0.6118 -0.3974 -0.4995
14635TIP3    H165396   4.737   0.584  12.869  3.4321 -1.5363  0.7169
14635TIP3    H265397   4.666   0.461  12.816 -1.0486  0.6154  1.2526
14636TIP3   OH265398   4.707   4.859   1.554 -0.7198  0.1279 -0.5428
14636TIP3    H165399   4.702   4.851   1.459  2.3870  0.7655 -0.8527
14636TIP3    H265400   4.688   4.952   1.571 -0.4696  0.1988 -0.6401
14637TIP3   OH265401   3.170   5.813   3.719 -0.0281  0.1429 -0.1659
14637TIP3    H165402   3.208   5.901   3.713  0.4505 -0.0177  0.4945
14637TIP3    H265403   3.234   5.757   3.674  0.8464 -0.2208  1.4708
14638TIP3   OH265404   4.739   2.554   4.898  0.1247  0.0703 -0.2769
14638TIP3    H165405   4.659   2.518   4.861  0.3632  0.5421 -1.2643
14638TIP3    H265406   4.747   2.512   4.984 -1.6166  0.6327  0.1932
14639TIP3   OH265407   4.954   3.368   3.017 -0.4101  0.0514  0.0700
14639TIP3    H165408   4.982   3.359   3.108 -0.2870 -0.3426 -0.0052
14639TIP3    H265409   4.997   3.447   2.986 -1.0362  0.5976  0.5710
14640TIP3   OH265410   2.930   6.511  11.465 -0.0427 -0.2600  0.1769
14640TIP3    H165411   2.940   6.567  11.388  0.5488  0.4047  0.7241
14640TIP3    H265412   2.971   6.560  11.536 -0.5681 -0.8751  0.9180
14641TIP3   OH265413   5.692   4.346  15.388  0.5326  0.1656  0.3339
14641TIP3    H165414   5.625   4.279  15.374  0.6451  0.1537 -0.1403
14641TIP3    H265415   5.713   4.339  15.481 -0.1912  0.2355  0.5078
14642TIP3   OH265416   1.945   0.816  13.635  0.2469 -0.3620 -0.0229
14642TIP3    H165417   1.940   0.912  13.630  0.0327 -0.3352  0.5654
14642TIP3    H265418   1.899   0.785  13.557  0.7443  0.0151 -0.4779
14643TIP3   OH265419   3.281   0.587  13.253  0.5202  0.2362 -0.4696
14643TIP3    H165420   3.233   0.665  13.223  0.5088 -0.2829 -1.8800
14643TIP3    H265421   3.353   0.577  13.189  0.1923 -1.2150 -0.6466
14644TIP3   OH265422   4.296   5.955   5.259 -0.1240 -0.1385  0.0566
14644TIP3    H165423   4.237   5.881   5.247 -0.0756 -0.4713  1.6818
14644TIP3    H265424   4.258   6.005   5.331 -1.2401  2.5755 -2.2330
14645TIP3   OH265425   0.957   6.353  16.451 -0.2563 -0.1010  0.5256
14645TIP3    H165426   0.982   6.290  16.384  0.9416 -0.1077  0.9489
14645TIP3    H265427   0.961   6.438  16.408  1.3489 -0.0214  0.7762
14646TIP3   OH265428   3.051   1.344   1.294 -0.0498 -0.0610 -0.7031
14646TIP3    H165429   3.071   1.309   1.381 -0.6315  2.2851  0.4380
14646TIP3    H265430   3.043   1.438   1.307 -0.7442  0.2939 -3.2077
14647TIP3   OH265431   4.633   5.048   3.516 -0.3322  0.1819 -0.2817
14647TIP3    H165432   4.642   4.981   3.584 -1.1051  0.8098  0.4671
14647TIP3    H265433   4.636   4.999   3.434  0.4274 -0.6155  0.1967
14648TIP3   OH265434   0.445   5.071   5.610  0.2151  0.1328  0.6362
14648TIP3    H165435   0.500   5.123   5.669  1.0002 -0.1102  0.1399
14648TIP3    H265436   0.507   5.012   5.567 -0.3305  0.3810 -0.5059
14649TIP3   OH265437   5.369   1.367   2.603 -0.1871  0.1020  0.0359
14649TIP3    H165438   5.333   1.455   2.588  1.4293  0.9078  0.6261
14649TIP3    H265439   5.458   1.383   2.634  1.1515 -1.7778 -2.4296
14650TIP3   OH265440   4.289   2.419  12.787 -0.2666  0.1744 -0.3430
14650TIP3    H165441   4.335   2.335  12.787  0.3149  0.4408 -2.5175
14650TIP3    H265442   4.335   2.471  12.853  0.1207 -0.8002  0.1862
14651TIP3   OH265443   0.588   6.542  10.249  0.5810  0.1134  0.3710
14651TIP3    H165444   0.602   6.627  10.207 -3.1404  0.7147  0.0291
14651TIP3    H265445   0.557   6.564  10.337 -0.4469 -0.8492  0.2722
14652TIP3   OH265446   4.622   1.667   0.268 -0.3516 -0.0461  0.1964
14652TIP3    H165447   4.696   1.727   0.263  0.7701 -1.4533 -1.0682
14652TIP3    H265448   4.545   1.724   0.262  0.6624  1.2834 -0.8391
14653TIP3   OH265449   1.521   2.121   4.577  0.3615  0.0924 -0.5844
14653TIP3    H165450   1.484   2.204   4.608  1.2526  0.5723 -0.8048
14653TIP3    H265451   1.445   2.062   4.572  0.0778  0.1281  2.0240
14654TIP3   OH265452   2.246   1.677  15.104  0.0626  0.1680 -0.0800
14654TIP3    H165453   2.166   1.624  15.104 -0.1759  0.5245 -0.3581
14654TIP3    H265454   2.267   1.688  15.011  1.5347 -1.5637 -0.0218
14655TIP3   OH265455   0.456   0.978  12.755  0.0620  0.2350 -0.4902
14655TIP3    H165456   0.437   1.068  12.730 -0.5811  0.1737 -0.2278
14655TIP3    H265457   0.435   0.926  12.677  0.4840  0.3137 -0.6593
14656TIP3   OH265458   6.321   6.354  12.676 -0.1155  0.0197 -0.0404
14656TIP3    H165459   6.273   6.288  12.626  1.0320  0.3932 -1.7151
14656TIP3    H265460   6.259   6.426  12.687 -0.3577  0.0065 -1.1365
14657TIP3   OH265461   3.224   0.808  16.808  0.5069  0.1233 -0.0732
14657TIP3    H165462   3.176   0.810  16.725  2.0507  1.9069 -1.0029
14657TIP3    H265463   3.189   0.881  16.858 -1.3404 -1.7210  1.4881
14658TIP3   OH265464   5.591   4.939   6.967 -0.8703  0.2153  0.1360
14658TIP3    H165465   5.611   4.920   6.876  0.5717  0.2752  0.4256
14658TIP3    H265466   5.506   4.897   6.982 -1.1605  0.2644 -1.2355
14659TIP3   OH265467   1.799   6.626  11.619  0.2062 -0.5737 -1.4954
14659TIP3    H165468   1.784   6.552  11.678  0.2721 -0.7932 -1.7517
14659TIP3    H265469   1.712   6.647  11.585 -0.2313  1.0345  0.4036
14660TIP3   OH265470   0.147   3.786   6.219  0.4692 -0.2506  0.2672
14660TIP3    H165471   0.094   3.707   6.226  1.8897 -1.1470  1.5289
14660TIP3    H265472   0.142   3.810   6.126 -0.4460 -1.4774 -0.0323
14661TIP3   OH265473   0.290   2.584   5.563  0.2188  0.0381 -0.2521
14661TIP3    H165474   0.294   2.645   5.489  0.0886 -0.5544 -0.7646
14661TIP3    H265475   0.234   2.513   5.531 -0.4481  0.1219  0.6845
14662TIP3   OH265476   3.561   2.070  15.410  0.3506 -0.8442  0.0714
14662TIP3    H165477   3.470   2.102  15.411  1.0474  1.3121 -0.5901
14662TIP3    H265478   3.559   1.995  15.351 -0.4208  1.2574 -2.8164
14663TIP3   OH265479   1.049   6.305   0.124  0.3164 -0.1577 -0.4407
14663TIP3    H165480   1.135   6.312   0.166  0.0664  1.6156 -0.1337
14663TIP3    H265481   1.060   6.347   0.039 -0.1329 -0.2992 -0.5728
14664TIP3   OH265482   3.895   6.036  15.940 -0.3585  1.0305 -0.2749
14664TIP3    H165483   3.919   5.996  16.023 -0.9444 -2.4619 -1.5991
14664TIP3    H265484   3.972   6.024  15.884 -0.8452  1.0044 -0.9543
14665TIP3   OH265485   1.441   4.035  16.455 -0.6925  0.0193 -0.0615
14665TIP3    H165486   1.487   4.107  16.412  0.7360 -0.2012  0.9977
14665TIP3    H265487   1.463   3.958  16.403  0.3607 -0.1169  0.5472
14666TIP3   OH265488   3.801   0.057   4.999  0.1349 -0.1423  0.1231
14666TIP3    H165489   3.770   0.105   5.075 -0.0909  0.8034 -0.5512
14666TIP3    H265490   3.743   0.083   4.928  1.3870  0.3426 -0.7670
14667TIP3   OH265491   3.047   4.682  15.895  0.1058 -0.0313  0.0629
14667TIP3    H165492   2.986   4.755  15.880  1.2966  0.9019 -0.3444
14667TIP3    H265493   3.110   4.688  15.823  1.2510 -0.3889  1.0146
14668TIP3   OH265494   2.093   3.853  14.262 -0.4966  0.2938 -0.3073
14668TIP3    H165495   2.088   3.781  14.326 -3.2584 -0.1132 -0.8685
14668TIP3    H265496   2.092   3.809  14.177 -1.4873  0.9563 -0.6479
14669TIP3   OH265497   2.725   1.028   0.574  0.3413 -0.3510  0.1687
14669TIP3    H165498   2.738   0.943   0.616  1.1690 -0.8753 -1.0646
14669TIP3    H265499   2.738   1.010   0.480  0.7185  1.1670 -0.0962
14670TIP3   OH265500   3.851   0.689   4.418 -0.3708 -0.0090  0.0136
14670TIP3    H165501   3.943   0.711   4.405  0.0624 -0.1264  2.4730
14670TIP3    H265502   3.845   0.597   4.392  0.4516 -0.3059  0.8485
14671TIP3   OH265503   2.077   2.732  14.395 -0.3559 -0.7927  0.0585
14671TIP3    H165504   2.119   2.783  14.325  1.8048 -1.2381  0.9672
14671TIP3    H265505   2.105   2.642  14.380 -3.4027 -1.7016 -0.9830
14672TIP3   OH265506   1.968   2.688   3.729  0.3548  0.4048  0.7118
14672TIP3    H165507   1.881   2.662   3.762 -0.3293 -1.2069 -2.0434
14672TIP3    H265508   1.950   2.734   3.648  2.0797  0.9975  0.6252
14673TIP3   OH265509   6.623   2.082   3.464  0.2680 -0.7178  0.1347
14673TIP3    H165510   6.633   2.079   3.369  1.8963  1.0988  0.1971
14673TIP3    H265511   6.712   2.079   3.498 -0.1751  0.4980  1.5177
14674TIP3   OH265512   0.265   3.526   4.095 -0.0132 -0.3534 -0.3836
14674TIP3    H165513   0.279   3.618   4.070  0.1547  0.2334  1.6513
14674TIP3    H265514   0.192   3.497   4.041 -0.4069  1.1423 -0.7013
14675TIP3   OH265515   4.588   0.156   6.386  0.0645 -0.0942 -0.1164
14675TIP3    H165516   4.534   0.108   6.449  1.8366 -1.5565  0.3704
14675TIP3    H265517   4.595   0.244   6.423 -1.1556 -0.1357  0.2845
14676TIP3   OH265518   1.972   5.119  13.832 -0.0080 -0.0124 -0.0331
14676TIP3    H165519   1.947   5.060  13.904 -1.8682  2.3616  1.4045
14676TIP3    H265520   1.904   5.105  13.766  0.6837 -0.8614 -0.5980
14677TIP3   OH265521   3.403   1.431  14.698  0.9368 -0.1767  0.5835
14677TIP3    H165522   3.358   1.499  14.649 -0.5385  0.7831  3.0965
14677TIP3    H265523   3.493   1.463  14.706  0.9188  0.1713 -0.4923
14678TIP3   OH265524   2.884   4.707   0.199 -0.5796  0.3438 -0.4023
14678TIP3    H165525   2.952   4.658   0.152  0.2115 -0.4248  1.4338
14678TIP3    H265526   2.814   4.643   0.211  0.2773 -0.2874  1.6221
14679TIP3   OH265527   6.344   6.448  16.551 -1.0578  0.2815  0.2721
14679TIP3    H165528   6.277   6.510  16.523  0.1219  1.1462 -0.7299
14679TIP3    H265529   6.366   6.399  16.471  0.6117  1.0976  0.2012
14680TIP3   OH265530   2.446   1.143  11.749  0.7178 -0.1982  0.1457
14680TIP3    H165531   2.425   1.053  11.774 -1.8525  0.6870  1.5364
14680TIP3    H265532   2.536   1.156  11.778  0.4927 -1.7439  1.6418
14681TIP3   OH265533   0.356   0.776   2.350  0.1877  0.1414  0.3657
14681TIP3    H165534   0.369   0.682   2.343  2.7378  0.0526  3.6062
14681TIP3    H265535   0.422   0.814   2.293 -0.4097  0.0127 -0.4338
14682TIP3   OH265536   2.277   3.883  13.551 -0.0528 -0.4296  0.4692
14682TIP3    H165537   2.267   3.927  13.467 -1.1647 -1.1450  0.1973
14682TIP3    H265538   2.189   3.851  13.572  0.5648 -1.9505  0.9375
14683TIP3   OH265539   2.566   4.470   1.008 -0.3954 -0.1169 -0.5306
14683TIP3    H165540   2.513   4.498   0.934  0.0908  1.3680 -0.3548
14683TIP3    H265541   2.546   4.534   1.077 -0.1391 -0.9254  0.3214
14684TIP3   OH265542   5.205   1.641   2.735 -0.4980 -0.2284  0.0343
14684TIP3    H165543   5.189   1.597   2.652 -1.1762  0.2996 -0.1231
14684TIP3    H265544   5.186   1.574   2.802  0.3847 -0.7571 -0.2296
14685TIP3   OH265545   5.044   3.233   3.559  0.0343  0.0552  0.1487
14685TIP3    H165546   5.111   3.236   3.628 -0.8185 -0.1836  1.0000
14685TIP3    H265547   4.966   3.200   3.603 -0.8017  0.8489 -0.7148
14686TIP3   OH265548   5.991   5.102  13.288  0.2043  0.5903 -0.2121
14686TIP3    H165549   5.934   5.061  13.354  0.7006 -0.4489 -0.4057
14686TIP3    H265550   6.052   5.155  13.339  1.4059 -1.2070  0.3001
14687TIP3   OH265551   4.690   6.394   4.316  0.0836  0.0791 -0.0834
14687TIP3    H165552   4.599   6.364   4.326 -0.2925  1.0607 -0.3693
14687TIP3    H265553   4.742   6.314   4.312 -0.8201 -0.5101 -0.3474
14688TIP3   OH265554   0.384   0.466   4.961 -0.3586 -0.0746 -0.2350
14688TIP3    H165555   0.382   0.492   4.869  0.3107 -0.6472 -0.4190
14688TIP3    H265556   0.429   0.539   5.005 -1.6520  0.7126 -0.1732
14689TIP3   OH265557   1.120   3.663   0.074  1.2481  0.4706  1.1237
14689TIP3    H165558   1.063   3.618   0.011  0.8094  2.4331  0.0501
14689TIP3    H265559   1.060   3.696   0.141  1.4183  0.4895  1.2661
14690TIP3   OH265560   5.158   3.525  15.008  0.2582  0.5084 -0.4630
14690TIP3    H165561   5.070   3.549  14.979 -0.4279 -0.2484  0.9031
14690TIP3    H265562   5.182   3.451  14.951 -0.1972  0.3970 -0.5156
14691TIP3   OH265563   5.090   1.766   0.218 -0.2635 -0.2558  0.0987
14691TIP3    H165564   5.066   1.801   0.304 -1.9336 -2.2805  0.5484
14691TIP3    H265565   5.006   1.755   0.173  0.3653 -1.5728 -0.8057
14692TIP3   OH265566   6.421   2.866   2.435  0.2724  0.2644  0.3185
14692TIP3    H165567   6.407   2.902   2.347 -0.6978 -0.6248  0.0807
14692TIP3    H265568   6.496   2.807   2.425 -0.6242 -0.8196 -0.2423
14693TIP3   OH265569   6.241   5.521  14.767  0.3728  0.0984  0.4052
14693TIP3    H165570   6.268   5.607  14.799  0.2904  0.1630  0.2990
14693TIP3    H265571   6.179   5.490  14.832  0.3231  0.1637  0.3893
14694TIP3   OH265572   4.900   2.747  12.159 -0.3616  0.0804 -0.2298
14694TIP3    H165573   4.878   2.837  12.180  2.1736  0.3981  1.4363
14694TIP3    H265574   4.840   2.694  12.213 -0.3323  0.7994  0.5187
14695TIP3   OH265575   2.246   3.550  16.561  0.6128 -0.0134 -0.7856
14695TIP3    H165576   2.226   3.504  16.643  1.9238  0.9057  0.0872
14695TIP3    H265577   2.192   3.630  16.565  0.0285 -0.3745 -1.2459
14696TIP3   OH265578   3.523   3.800  15.106 -0.1835  0.1300 -0.2424
14696TIP3    H165579   3.480   3.795  15.020 -1.8889  2.4427  0.3516
14696TIP3    H265580   3.527   3.709  15.136 -1.9159 -0.5023 -1.6918
14697TIP3   OH265581   1.897   2.619  11.169  0.1727 -0.1815 -0.0752
14697TIP3    H165582   1.953   2.595  11.096 -1.8380  0.9555 -2.1305
14697TIP3    H265583   1.885   2.714  11.160 -0.8519 -0.1583  1.1867
14698TIP3   OH265584   3.356   6.103  14.765  0.1731  0.2503  0.2345
14698TIP3    H165585   3.319   6.026  14.722  1.9508 -0.6216  0.1609
14698TIP3    H265586   3.335   6.175  14.706 -1.6161 -0.1239  0.3497
14699TIP3   OH265587   2.015   2.684   5.476 -0.3725  0.2271  0.7601
14699TIP3    H165588   2.050   2.734   5.550  1.5321  0.0315  0.0708
14699TIP3    H265589   2.041   2.735   5.399 -2.0101  0.2449  0.1967
14700TIP3   OH265590   3.687   1.445  12.536  0.1709 -0.2823  0.2113
14700TIP3    H165591   3.639   1.400  12.606  1.8063 -0.5568  1.1940
14700TIP3    H265592   3.650   1.534  12.536  0.7707  0.0031  2.0830
14701TIP3   OH265593   3.673   0.175   2.731 -0.3164  0.2975 -0.0871
14701TIP3    H165594   3.755   0.154   2.687 -0.3152 -0.9764  0.4863
14701TIP3    H265595   3.612   0.109   2.701 -0.8364  0.5781  0.3410
14702TIP3   OH265596   0.781   5.985  14.377  0.0601 -0.0446 -0.3254
14702TIP3    H165597   0.715   5.965  14.444 -0.3545  3.2134  0.4040
14702TIP3    H265598   0.864   5.956  14.415 -0.1834  1.6202  1.6416
14703TIP3   OH265599   3.564   3.301   5.076 -0.2289  0.2714  0.5242
14703TIP3    H165600   3.472   3.307   5.103 -0.4393  3.3151 -0.4690
14703TIP3    H265601   3.613   3.330   5.153 -0.0496 -1.1760  0.9917
14704TIP3   OH265602   4.307   4.826   1.834  0.6311 -0.0531  0.1892
14704TIP3    H165603   4.224   4.869   1.854  0.5547 -0.6400  1.2074
14704TIP3    H265604   4.343   4.875   1.760  1.2069  2.6634  2.1192
14705TIP3   OH265605   5.374   1.756   5.029 -0.2635  0.1504  0.1432
14705TIP3    H165606   5.462   1.719   5.027  0.4132  1.6716  0.6997
14705TIP3    H265607   5.386   1.850   5.015 -1.6037  0.6861  2.1174
14706TIP3   OH265608   2.785   1.638  14.193 -0.5997 -0.1330  0.0914
14706TIP3    H165609   2.772   1.654  14.286  0.3205  1.1846  0.0346
14706TIP3    H265610   2.703   1.665  14.151 -0.7208  0.0380  0.4416
14707TIP3   OH265611   2.524   3.361   2.783  0.1306 -0.7272 -0.3893
14707TIP3    H165612   2.491   3.363   2.693  0.3787  2.0038 -0.5154
14707TIP3    H265613   2.446   3.373   2.838  0.3674  3.1490 -0.5882
14708TIP3   OH265614   4.922   0.369   5.387 -0.2029 -0.5992  0.3959
14708TIP3    H165615   4.854   0.354   5.453 -0.8666 -0.2163 -0.1885
14708TIP3    H265616   4.881   0.344   5.305 -0.0480  0.7511 -0.1200
14709TIP3   OH265617   4.999   2.906   3.366 -0.3272 -0.5488  0.1825
14709TIP3    H165618   4.988   2.943   3.453  0.7401  0.3630 -0.0512
14709TIP3    H265619   4.952   2.966   3.308 -2.5731 -2.0787  0.2463
14710TIP3   OH265620   3.889   2.966  10.833  0.1955 -0.0974 -0.2937
14710TIP3    H165621   3.974   2.962  10.789  0.8076  0.3261  0.7909
14710TIP3    H265622   3.856   2.876  10.829  0.7138 -0.2787 -0.6987
14711TIP3   OH265623   1.279   4.840   3.597  0.1613 -0.1846  0.4009
14711TIP3    H165624   1.261   4.907   3.532 -0.4523 -1.8915 -1.3018
14711TIP3    H265625   1.357   4.870   3.643 -0.1269  1.6713 -0.2634
14712TIP3   OH265626   4.055   5.929   2.641 -0.1201 -0.2101  0.3987
14712TIP3    H165627   4.139   5.918   2.595  0.1340 -1.2477  1.0854
14712TIP3    H265628   3.997   5.968   2.575  1.0506  1.0756  0.0829
14713TIP3   OH265629   2.004   1.382   5.667 -0.3870  0.1792  0.4092
14713TIP3    H165630   1.943   1.421   5.730 -0.7935 -0.1527  0.2286
14713TIP3    H265631   2.025   1.296   5.703  1.1196  0.8495  1.1954
14714TIP3   OH265632   4.857   6.471   1.386  0.7741 -0.3536  0.3485
14714TIP3    H165633   4.776   6.476   1.336  0.6056 -0.4666  0.6091
14714TIP3    H265634   4.859   6.552   1.437  0.0268 -1.0716  1.5519
14715TIP3   OH265635   4.240   5.302   3.603 -0.2424  0.7816  0.7343
14715TIP3    H165636   4.218   5.333   3.516  0.3326 -0.1297  0.2528
14715TIP3    H265637   4.335   5.307   3.608 -0.0665 -1.4628  0.3919
14716TIP3   OH265638   5.256   5.759  15.810 -0.1697  0.1947 -1.1010
14716TIP3    H165639   5.202   5.711  15.873  0.7352  1.6618  0.8899
14716TIP3    H265640   5.195   5.789  15.743 -1.4464  0.0082 -0.0514
14717TIP3   OH265641   6.352   3.405  16.374  0.0974  0.8816  0.1794
14717TIP3    H165642   6.261   3.432  16.362 -0.4322 -0.4181  1.0617
14717TIP3    H265643   6.374   3.358  16.293  0.8557  3.3427 -1.1379
14718TIP3   OH265644   5.745   1.523   0.356 -0.3822 -0.3068  0.2076
14718TIP3    H165645   5.817   1.509   0.294 -0.1299  0.2163  0.3761
14718TIP3    H265646   5.784   1.575   0.427 -0.7872 -0.4956  0.5737
14719TIP3   OH265647   4.607   5.831   3.053  0.4965 -0.2297  0.0732
14719TIP3    H165648   4.527   5.873   3.024  0.3725 -0.4213  0.1350
14719TIP3    H265649   4.669   5.903   3.065 -0.4947  0.3077  2.8028
14720TIP3   OH265650   4.594   4.696  11.343  0.0632  0.5413 -0.5868
14720TIP3    H165651   4.580   4.634  11.271 -0.0396  0.6492 -0.6600
14720TIP3    H265652   4.681   4.674  11.376 -0.3834 -0.3155  0.0527
14721TIP3   OH265653   4.834   4.656  15.600 -0.3926 -0.4360 -0.4653
14721TIP3    H165654   4.860   4.748  15.597 -0.9192 -0.2977 -2.4091
14721TIP3    H265655   4.848   4.629  15.691 -1.3836  1.8925  0.4308
14722TIP3   OH265656   6.410   6.113  11.995 -0.3433  0.0163 -0.4434
14722TIP3    H165657   6.386   6.029  11.957 -2.1215 -0.9732  2.5253
14722TIP3    H265658   6.484   6.093  12.053  0.4813  0.9180 -1.1450
14723TIP3   OH265659   5.364   5.171   1.580  0.5819  0.1114 -0.6857
14723TIP3    H165660   5.318   5.238   1.530  1.1654 -1.7939 -4.0554
14723TIP3    H265661   5.427   5.134   1.519  0.0474 -3.7364  0.8247
14724TIP3   OH265662   1.230   2.841  12.993 -0.4669 -0.2445 -0.4318
14724TIP3    H165663   1.181   2.837  12.911  1.4456  1.1819 -1.7366
14724TIP3    H265664   1.163   2.851  13.061 -2.0328  0.3965 -1.9859
14725TIP3   OH265665   3.307   5.888  16.323 -0.2229  0.3013  0.0308
14725TIP3    H165666   3.338   5.976  16.304  1.6153 -0.0446  1.2011
14725TIP3    H265667   3.366   5.831  16.273  0.6884 -0.3523  1.7671
14726TIP3   OH265668   1.257   0.227  13.695 -0.4969 -0.0119  0.8239
14726TIP3    H165669   1.171   0.269  13.700 -0.2576  0.8812 -1.5432
14726TIP3    H265670   1.287   0.224  13.786 -1.9490  1.9600  1.4450
14727TIP3   OH265671   1.185   3.987  16.529 -0.2937  0.3569 -0.0742
14727TIP3    H165672   1.174   3.905  16.480  1.4850 -0.0373  0.0985
14727TIP3    H265673   1.280   4.002  16.529 -0.3653  1.1236  1.9859
14728TIP3   OH265674   3.828   4.765  14.560 -0.9280 -0.1319 -0.1025
14728TIP3    H165675   3.918   4.774  14.530 -0.5649 -0.9074  0.7245
14728TIP3    H265676   3.779   4.830  14.509  0.1237  0.4253 -0.4231
14729TIP3   OH265677   1.766   2.055  14.817  0.0992 -0.0343 -0.5423
14729TIP3    H165678   1.768   2.066  14.912  0.0224  0.9392 -0.6464
14729TIP3    H265679   1.775   1.960  14.804  2.0124 -0.0157  0.3653
14730TIP3   OH265680   0.872   1.032   6.034 -0.2252  0.0344  0.7906
14730TIP3    H165681   0.844   0.952   5.988  1.0661 -0.4325  0.7688
14730TIP3    H265682   0.896   1.001   6.121  1.9576  0.0668  0.2439
14731TIP3   OH265683   5.244   1.352  17.168  0.1241 -0.4531 -0.2045
14731TIP3    H165684   5.199   1.301  17.101 -0.5333 -0.7038  0.4160
14731TIP3    H265685   5.321   1.300  17.190  1.0648  0.2622 -1.6968
14732TIP3   OH265686   3.748   0.487   6.596 -0.3293  0.6083  0.0975
14732TIP3    H165687   3.653   0.495   6.586 -0.6181 -1.6385  0.5488
14732TIP3    H265688   3.760   0.447   6.682  1.0477  1.1268  0.1651
14733TIP3   OH265689   2.444   6.406  11.881  0.1889 -0.2137 -0.4043
14733TIP3    H165690   2.432   6.381  11.973  0.5932  2.9678  0.6209
14733TIP3    H265691   2.522   6.462  11.881 -0.4639  0.7912 -2.5048
14734TIP3   OH265692   5.614   1.944   2.862 -0.0776  0.1388 -0.1994
14734TIP3    H165693   5.574   1.862   2.891  0.3654  0.8674  2.7843
14734TIP3    H265694   5.701   1.919   2.829 -0.8648 -0.8102 -1.6534
14735TIP3   OH265695   5.291   2.294  11.432 -0.1486  0.3583 -0.3881
14735TIP3    H165696   5.369   2.313  11.380  1.7047  1.0183  2.3871
14735TIP3    H265697   5.267   2.205  11.408  2.6326 -0.5906 -0.0874
14736TIP3   OH265698   1.828   4.103   4.680  0.0882 -0.2913  0.1566
14736TIP3    H165699   1.858   4.150   4.602  0.3090 -0.1394  0.3326
14736TIP3    H265700   1.758   4.046   4.648  0.8295 -0.9551 -0.3456
14737TIP3   OH265701   0.562   4.203  14.833  0.5295  0.1571 -0.7829
14737TIP3    H165702   0.502   4.201  14.759  1.9144  1.0289 -1.9711
14737TIP3    H265703   0.504   4.211  14.910 -0.9362 -0.9648 -1.7096
14738TIP3   OH265704   2.906   0.948  12.525  0.3895 -0.1231 -0.4105
14738TIP3    H165705   2.914   1.006  12.601 -0.7701  0.7063 -0.8976
14738TIP3    H265706   2.829   0.894  12.543  0.0110  0.1858 -1.0532
14739TIP3   OH265707   5.260   3.903   3.894  0.1081  0.5865  0.1412
14739TIP3    H165708   5.208   3.843   3.948  1.8388  0.2296  1.5117
14739TIP3    H265709   5.195   3.962   3.855 -1.3922 -0.3766  1.0528
14740TIP3   OH265710   2.072   3.118  15.724  0.3095  0.1625 -0.6182
14740TIP3    H165711   2.009   3.166  15.671 -0.0556 -2.1229 -2.3833
14740TIP3    H265712   2.155   3.128  15.679  0.9168  1.6396  0.7180
14741TIP3   OH265713   1.147   2.763  16.912 -0.0908  0.1245 -0.1587
14741TIP3    H165714   1.195   2.838  16.947 -1.3727  0.2638  1.4523
14741TIP3    H265715   1.116   2.793  16.826  0.0364  1.1830  0.1459
14742TIP3   OH265716   0.544   4.603   3.263 -0.1287 -0.2994 -0.2785
14742TIP3    H165717   0.510   4.692   3.273 -1.9515 -0.8168 -1.3559
14742TIP3    H265718   0.577   4.580   3.350 -1.5635  0.6910  0.5707
14743TIP3   OH265719   0.783   3.138  14.906  0.2388  0.9184  0.3336
14743TIP3    H165720   0.833   3.185  14.972 -0.2742  1.2195  0.5094
14743TIP3    H265721   0.725   3.081  14.956  0.9661 -0.0338  0.1238
14744TIP3   OH265722   2.385   1.386   4.008 -0.5296 -0.0697 -0.1023
14744TIP3    H165723   2.358   1.388   3.917 -2.6304 -0.4219  0.4680
14744TIP3    H265724   2.480   1.393   4.005 -0.5381 -0.3194 -2.3155
14745TIP3   OH265725   5.946   6.305   3.214  0.4782  0.0917  0.2931
14745TIP3    H165726   5.893   6.353   3.278 -0.0214  1.1572 -0.8861
14745TIP3    H265727   5.892   6.232   3.187 -0.4453  1.1849 -0.9183
14746TIP3   OH265728   3.979   2.201   0.370 -0.8530  0.0923  0.3054
14746TIP3    H165729   3.900   2.244   0.341 -0.5177 -0.1594 -1.0623
14746TIP3    H265730   4.025   2.178   0.289  0.2398 -0.4480  1.0508
14747TIP3   OH265731   2.431   5.636   5.470 -0.0239 -0.1369  0.5659
14747TIP3    H165732   2.353   5.614   5.419  0.2825 -2.4726  0.9970
14747TIP3    H265733   2.411   5.608   5.559  0.9031  0.2386  0.9099
14748TIP3   OH265734   2.894   2.595  16.964 -0.0138  0.4009 -0.0266
14748TIP3    H165735   2.955   2.548  16.907 -0.6188  0.2376 -0.5481
14748TIP3    H265736   2.845   2.653  16.905  0.6472  1.6260  0.5925
14749TIP3   OH265737   3.759   0.187  14.387  0.3346 -0.3911  0.1278
14749TIP3    H165738   3.775   0.281  14.386  0.5785 -0.3993  1.3067
14749TIP3    H265739   3.845   0.147  14.375  0.4125 -0.4438  0.7797
14750TIP3   OH265740   2.247   3.349  13.921  0.1146 -0.0918 -0.0829
14750TIP3    H165741   2.224   3.405  13.995  2.9300 -0.8577  1.5139
14750TIP3    H265742   2.269   3.410  13.850  1.4364  0.8359  1.0743
14751TIP3   OH265743   4.914   4.201  13.314  0.6114 -0.0297 -0.5524
14751TIP3    H165744   4.895   4.117  13.354 -0.3351 -0.0518 -1.0205
14751TIP3    H265745   4.850   4.261  13.352  1.0670  0.4143 -0.4679
14752TIP3   OH265746   0.821   2.103  12.366  0.4703  0.4866  0.1832
14752TIP3    H165747   0.789   2.026  12.319 -0.9834  1.5199 -0.6036
14752TIP3    H265748   0.812   2.081  12.458  0.4993 -0.4457 -0.0303
14753TIP3   OH265749   1.828   6.518   0.925  0.1936 -0.1628  0.1319
14753TIP3    H165750   1.882   6.521   1.004  0.0883  3.5042  0.2110
14753TIP3    H265751   1.886   6.483   0.857  1.6023  0.4755  0.9639
14754TIP3   OH265752   6.800   1.240  12.266  0.2629 -0.3173  0.4269
14754TIP3    H165753   6.815   1.325  12.223 -1.6020 -0.4849 -0.6907
14754TIP3    H265754   6.804   1.177  12.195 -0.9460 -0.8447  0.8082
14755TIP3   OH265755   1.049   5.407   5.178 -0.4591 -0.2569  0.2521
14755TIP3    H165756   1.101   5.327   5.179 -0.0367 -0.0321 -1.3609
14755TIP3    H265757   1.112   5.478   5.190 -0.4850 -0.0310 -0.8765
14756TIP3   OH265758   4.217   5.172   4.159 -0.1590 -0.4475 -0.2742
14756TIP3    H165759   4.276   5.108   4.120  0.8712 -0.1610  0.7766
14756TIP3    H265760   4.271   5.221   4.220 -0.9598  1.3031 -0.8914
14757TIP3   OH265761   1.760   3.297  16.071  0.6483 -0.2735 -0.6219
14757TIP3    H165762   1.787   3.365  16.132  0.0372  0.0977 -0.7570
14757TIP3    H265763   1.681   3.260  16.110  0.3246 -0.1223 -1.1203
14758TIP3   OH265764   1.916   1.934  13.285  0.4109 -0.3624  0.2738
14758TIP3    H165765   1.955   1.919  13.199  0.6047 -2.7079  0.7006
14758TIP3    H265766   1.921   1.849  13.329  0.3740  0.7650  2.6466
14759TIP3   OH265767   4.012   3.077   2.556  0.1686  0.1907 -0.0972
14759TIP3    H165768   4.052   3.117   2.478 -0.9653  0.8036 -0.3793
14759TIP3    H265769   3.968   2.999   2.522  0.0226  0.2323 -0.0017
14760TIP3   OH265770   4.482   0.640  16.930 -0.0664  0.5389  0.3144
14760TIP3    H165771   4.553   0.606  16.875 -0.3374  0.8322 -0.2355
14760TIP3    H265772   4.402   0.611  16.885 -0.3257 -0.9626  1.6611
14761TIP3   OH265773   2.176   6.392  10.812  0.4329 -0.3801  0.4605
14761TIP3    H165774   2.185   6.384  10.717  2.0547 -0.1864  0.5670
14761TIP3    H265775   2.230   6.467  10.836 -0.0837 -0.3226  1.5177
14762TIP3   OH265776   5.909   5.756   6.197 -0.4115  0.0542  0.0168
14762TIP3    H165777   5.958   5.822   6.149  2.2342 -2.3795 -0.9094
14762TIP3    H265778   5.900   5.793   6.286  2.2298  1.0714 -0.0682
14763TIP3   OH265779   5.066   5.493  13.578 -0.4942 -0.1922  0.0116
14763TIP3    H165780   5.055   5.403  13.548 -0.1834 -0.8229  1.7137
14763TIP3    H265781   5.128   5.487  13.650 -2.2541  1.0465  1.7227
14764TIP3   OH265782   1.802   4.905  14.637  0.1083  0.3239  0.2290
14764TIP3    H165783   1.775   4.967  14.704  1.2996  2.2648 -0.9798
14764TIP3    H265784   1.726   4.899  14.578 -0.3340 -0.0932  0.8305
14765TIP3   OH265785   4.058   6.517   1.584 -0.0273 -0.3308 -0.2313
14765TIP3    H165786   4.119   6.476   1.522  1.1662 -0.3120  0.8984
14765TIP3    H265787   4.001   6.446   1.613  0.7365 -0.7860  0.1893
14766TIP3   OH265788   1.244   1.709  15.053 -0.0648  0.1799  0.0278
14766TIP3    H165789   1.175   1.751  15.001  0.0069  0.1096 -0.1273
14766TIP3    H265790   1.208   1.623  15.076  0.1432 -0.0385 -0.4396
14767TIP3   OH265791   1.727   6.684  16.310 -0.0580  0.1748 -0.2928
14767TIP3    H165792   1.703   6.615  16.248 -0.4898 -0.9011  1.0178
14767TIP3    H265793   1.644   6.728  16.329 -0.2667 -0.6260  0.7976
14768TIP3   OH265794   5.725   2.957   0.889 -0.4635  0.8440 -0.1309
14768TIP3    H165795   5.758   2.870   0.864  1.3270  1.4632 -0.0821
14768TIP3    H265796   5.653   2.973   0.829 -0.8578 -0.6791 -0.1216
14769TIP3   OH265797   1.437   3.569  15.232  0.1344 -0.1003  0.1134
14769TIP3    H165798   1.511   3.523  15.191  0.2461 -0.6632  0.9200
14769TIP3    H265799   1.473   3.654  15.257 -0.0645  0.4456 -1.3667
14770TIP3   OH265800   0.079   2.214   5.689 -0.0443  0.0080 -0.0859
14770TIP3    H165801   0.017   2.265   5.741 -0.6755 -2.0225  1.3084
14770TIP3    H265802   0.142   2.182   5.753 -0.7229 -2.3993 -0.5182
14771TIP3   OH265803   3.528   2.106   5.703 -0.8402 -0.0307  0.1470
14771TIP3    H165804   3.479   2.088   5.784 -1.1254  1.0552  0.2339
14771TIP3    H265805   3.466   2.085   5.633 -1.8741  2.3037  0.2593
14772TIP3   OH265806   6.127   2.604   1.141  0.6954  0.4608  0.2783
14772TIP3    H165807   6.128   2.539   1.211 -0.2324 -1.4416 -1.3805
14772TIP3    H265808   6.105   2.686   1.185 -0.6489 -0.7993  2.0976
14773TIP3   OH265809   0.614   6.541  14.767 -0.0269  0.6064 -0.1158
14773TIP3    H165810   0.551   6.558  14.697  1.1853  0.4140 -1.2964
14773TIP3    H265811   0.623   6.446  14.768  0.1594  0.6268  0.1183
14774TIP3   OH265812   5.645   1.572  15.924  0.6988 -0.1472 -0.6206
14774TIP3    H165813   5.692   1.544  16.003  0.4179 -0.3576 -0.5280
14774TIP3    H265814   5.557   1.535  15.934 -0.2739  2.2010  0.3951
14775TIP3   OH265815   5.501   3.642  13.969  0.4781  0.0589  0.0502
14775TIP3    H165816   5.474   3.705  13.903  0.3178 -0.7260 -0.6449
14775TIP3    H265817   5.439   3.656  14.041 -0.3178 -0.1089 -0.5820
14776TIP3   OH265818   2.042   1.944   2.559  0.1664  0.0895 -0.2565
14776TIP3    H165819   1.985   1.997   2.615 -0.4319 -1.0142  0.2012
14776TIP3    H265820   2.131   1.966   2.589 -0.1367 -0.4273  1.1024
14777TIP3   OH265821   5.269   6.125  12.682  0.4018 -0.0910  0.2458
14777TIP3    H165822   5.186   6.159  12.716  0.9342 -0.5563  2.0917
14777TIP3    H265823   5.244   6.077  12.603 -1.2105 -0.8795  1.1826
14778TIP3   OH265824   1.075   1.574   4.098 -0.2122  0.3184  0.2446
14778TIP3    H165825   1.171   1.571   4.104 -0.2537  1.2572  2.3645
14778TIP3    H265826   1.053   1.498   4.043  1.7162 -0.1361 -0.0034
14779TIP3   OH265827   6.019   3.693  14.442  0.0257  0.1686 -0.0972
14779TIP3    H165828   5.987   3.783  14.452 -1.9406 -0.6394  1.5311
14779TIP3    H265829   6.109   3.696  14.474 -0.9394  1.0513  2.8693
14780TIP3   OH265830   6.046   3.019   5.787 -0.0169  0.2134  0.5554
14780TIP3    H165831   6.064   3.008   5.693 -0.0599  1.4851  0.3864
14780TIP3    H265832   6.125   3.061   5.822  0.7493 -1.8407  1.4668
14781TIP3   OH265833   0.307   1.673   0.670  0.1953  0.2562 -0.4964
14781TIP3    H165834   0.362   1.747   0.641 -1.4201  1.4099 -0.7643
14781TIP3    H265835   0.345   1.646   0.753  0.5537  1.7326 -0.1541
14782TIP3   OH265836   4.822   3.531   5.462 -0.0483  0.1317 -0.3407
14782TIP3    H165837   4.910   3.561   5.439  0.7499 -2.3474 -0.8105
14782TIP3    H265838   4.794   3.590   5.532  1.2949  1.9917 -1.2995
14783TIP3   OH265839   5.309   2.455  14.857  0.4966  0.1287 -0.0302
14783TIP3    H165840   5.318   2.360  14.854  1.6387  0.2304 -0.2100
14783TIP3    H265841   5.251   2.476  14.784 -2.2586 -0.6588  1.7874
14784TIP3   OH265842   6.341   0.954   3.665 -0.0093  0.3112  0.2606
14784TIP3    H165843   6.284   0.938   3.741 -0.5278 -2.2197 -0.5376
14784TIP3    H265844   6.281   0.955   3.590  0.8180 -1.4105 -0.4933
14785TIP3   OH265845   3.675   6.025   5.661 -0.1965  0.4904 -0.5425
14785TIP3    H165846   3.635   6.000   5.744  1.5545 -4.2498 -0.7811
14785TIP3    H265847   3.601   6.050   5.606 -2.1751 -1.7842  0.8605
14786TIP3   OH265848   3.243   1.207  11.044  0.2395  0.1902 -0.0885
14786TIP3    H165849   3.245   1.271  10.973  0.5631  0.4158  0.1283
14786TIP3    H265850   3.300   1.136  11.014 -0.4763 -0.2240 -0.5335
14787TIP3   OH265851   1.372   2.014  15.746  0.2421  0.3457  0.0467
14787TIP3    H165852   1.305   1.974  15.690  0.5569 -0.4001  0.1899
14787TIP3    H265853   1.325   2.080  15.796 -0.1555  0.6444 -0.6956
14788TIP3   OH265854   5.542   5.094   3.938 -0.0795 -0.3307 -0.0837
14788TIP3    H165855   5.593   5.014   3.924 -0.0352 -0.7853  2.2623
14788TIP3    H265856   5.483   5.099   3.863  0.0138 -2.5233 -0.3613
14789TIP3   OH265857   2.755   2.268   4.872  0.0919  0.6208 -0.0170
14789TIP3    H165858   2.825   2.279   4.808  1.2303 -0.8221  0.9061
14789TIP3    H265859   2.678   2.245   4.820  1.1721 -1.3113 -0.8748
14790TIP3   OH265860   6.001   2.164  12.182 -0.1429  0.3871 -0.6711
14790TIP3    H165861   5.967   2.143  12.095  0.5221 -0.2321 -0.7918
14790TIP3    H265862   5.924   2.189  12.233 -0.7383 -0.6347 -1.0363
14791TIP3   OH265863   5.567   1.346   2.022 -0.1211 -0.6011  0.0971
14791TIP3    H165864   5.635   1.396   1.977  0.1324 -1.4903 -0.5271
14791TIP3    H265865   5.486   1.372   1.979 -0.2245  0.6656  1.0226
14792TIP3   OH265866   2.552   5.598   4.662  0.2442  0.4986  0.0366
14792TIP3    H165867   2.536   5.550   4.581 -1.6660  1.4478 -0.1994
14792TIP3    H265868   2.555   5.531   4.730  0.7674 -0.2097 -0.6740
14793TIP3   OH265869   4.364   6.113   3.324  0.3429 -0.4371 -0.2211
14793TIP3    H165870   4.304   6.057   3.374 -2.1388  0.7919 -1.6099
14793TIP3    H265871   4.368   6.195   3.373 -0.7188  0.1562 -1.0688
14794TIP3   OH265872   1.546   5.086   0.667 -0.0811  0.3375  0.0055
14794TIP3    H165873   1.615   5.093   0.602 -0.1578 -0.1605 -0.1302
14794TIP3    H265874   1.507   5.000   0.653  0.1301  0.0770  0.9313
14795TIP3   OH265875   4.209   1.921   0.365  0.0002 -0.1172 -0.3276
14795TIP3    H165876   4.282   1.981   0.378  0.7488 -0.9853 -0.3718
14795TIP3    H265877   4.221   1.887   0.276  0.1326 -1.0116  0.0151
14796TIP3   OH265878   4.324   2.398  14.940 -0.3170 -0.2661 -0.9369
14796TIP3    H165879   4.376   2.472  14.908 -1.9230  2.4072  2.0585
14796TIP3    H265880   4.387   2.326  14.946  2.7588  2.2996  0.8451
14797TIP3   OH265881   6.760   6.474   3.369  0.3726  0.2173 -0.0283
14797TIP3    H165882   6.803   6.534   3.308  0.8454 -1.3593 -1.3166
14797TIP3    H265883   6.831   6.436   3.419 -0.0257  1.6507  1.7480
14798TIP3   OH265884   2.117   1.298   1.253 -0.3132 -0.1192  0.0501
14798TIP3    H165885   2.172   1.221   1.254  1.1319  0.8636 -0.5081
14798TIP3    H265886   2.116   1.329   1.344  0.0728 -0.1471  0.0655
14799TIP3   OH265887   4.571   1.805   2.873 -0.3087 -0.1601 -0.1012
14799TIP3    H165888   4.625   1.859   2.816 -0.4325  0.6414  0.5318
14799TIP3    H265889   4.611   1.813   2.959 -0.2088 -1.2489 -0.0257
14800TIP3   OH265890   2.444   3.129   6.296 -0.6128 -0.2917  0.2983
14800TIP3    H165891   2.497   3.202   6.328  1.2035 -2.4950  2.7695
14800TIP3    H265892   2.415   3.084   6.375 -2.7601 -1.5734 -1.1029
14801TIP3   OH265893   1.911   5.765  14.565 -0.1200  0.2693  0.2396
14801TIP3    H165894   1.841   5.722  14.517 -0.3911  0.1171  0.7695
14801TIP3    H265895   1.879   5.771  14.655 -0.0012  1.3811  0.2221
14802TIP3   OH265896   5.423   1.247   2.289  0.2790  0.2273  0.0472
14802TIP3    H165897   5.446   1.339   2.280 -1.2714  0.4789 -1.8683
14802TIP3    H265898   5.377   1.243   2.373  0.0746  1.2662  0.0020
14803TIP3   OH265899   5.027   5.016   2.051 -0.2533  0.0120  0.3649
14803TIP3    H165900   5.097   4.963   2.014  0.0840 -0.8433  2.0986
14803TIP3    H265901   5.046   5.018   2.145 -3.3866 -1.6006  1.1503
14804TIP3   OH265902   3.014   6.136   1.353 -0.0547 -0.8238 -0.0593
14804TIP3    H165903   3.027   6.218   1.401 -3.2508 -0.0227 -0.3064
14804TIP3    H265904   3.074   6.143   1.278  0.5233  0.7849  0.4890
14805TIP3   OH265905   4.076   0.671  10.687 -0.3268 -0.1341  0.0926
14805TIP3    H165906   4.095   0.581  10.662  3.0039 -0.2714  2.5061
14805TIP3    H265907   4.096   0.722  10.608 -0.9244 -1.3376 -0.8804
14806TIP3   OH265908   3.172   2.546   2.982  0.0784 -0.0418  0.1019
14806TIP3    H165909   3.165   2.454   3.005 -0.9341 -0.1417 -0.5212
14806TIP3    H265910   3.089   2.584   3.011  0.1818  0.5181 -0.3152
14807TIP3   OH265911   1.296   1.755   3.578 -0.1135 -0.1099  0.1490
14807TIP3    H165912   1.316   1.662   3.568  2.3413  0.1757  1.6703
14807TIP3    H265913   1.287   1.787   3.488  1.3769 -1.3577 -0.4987
14808TIP3   OH265914   2.890   5.573  12.969  0.3815 -0.3030  0.5360
14808TIP3    H165915   2.819   5.612  13.021  1.2309  0.9654  0.8022
14808TIP3    H265916   2.847   5.505  12.917 -1.1909  0.9749  0.0792
14809TIP3   OH265917   5.235   5.877   4.548  0.1389  0.2694  0.2565
14809TIP3    H165918   5.280   5.795   4.566 -1.3397 -0.6953 -0.2366
14809TIP3    H265919   5.258   5.899   4.458 -0.5489 -0.3620 -0.0841
14810TIP3   OH265920   6.475   4.546  13.226 -0.4426  0.7293  0.2898
14810TIP3    H165921   6.397   4.577  13.179 -0.6878 -0.5956 -0.2192
14810TIP3    H265922   6.544   4.542  13.160 -0.0614  1.4492  0.6394
14811TIP3   OH265923   0.710   0.334   0.211 -0.0419  0.3363  0.7169
14811TIP3    H165924   0.742   0.265   0.153  1.4919  1.8988 -0.4460
14811TIP3    H265925   0.771   0.334   0.285  1.1734  1.6019 -0.2171
14812TIP3   OH265926   3.188   0.432  13.444  0.1568 -0.5169  0.0425
14812TIP3    H165927   3.106   0.475  13.468 -0.0185 -1.0081  0.3255
14812TIP3    H265928   3.210   0.469  13.358  0.2800  0.5159  0.5095
14813TIP3   OH265929   2.783   2.381  16.413  0.0714 -0.3252 -0.0426
14813TIP3    H165930   2.753   2.464  16.376 -2.8237 -1.3757 -0.3123
14813TIP3    H265931   2.819   2.333  16.338  0.5236  0.1791 -0.1481
14814TIP3   OH265932   4.123   1.618  11.969 -0.3056 -0.1318  0.1503
14814TIP3    H165933   4.171   1.540  11.996  1.1146  0.8909  0.6905
14814TIP3    H265934   4.079   1.649  12.048  2.8149  2.1316  1.1594
14815TIP3   OH265935   4.549   4.388   3.673 -0.2780  0.2245  0.5183
14815TIP3    H165936   4.481   4.402   3.739  0.0529  1.9814  0.5385
14815TIP3    H265937   4.630   4.382   3.724 -0.1620  0.4152  0.3595
14816TIP3   OH265938   4.749   5.014  13.678 -0.2798  0.1706 -0.3308
14816TIP3    H165939   4.831   5.033  13.724  0.0140  0.7850 -1.0968
14816TIP3    H265940   4.681   5.042  13.740 -0.0370 -2.5108  1.3190
14817TIP3   OH265941   2.899   3.508  16.562 -0.9356 -0.1250  0.4070
14817TIP3    H165942   2.842   3.526  16.637  0.0260 -0.7238  1.3031
14817TIP3    H265943   2.843   3.462  16.500 -1.7599  0.4251  0.7178
14818TIP3   OH265944   2.644   0.267   0.560 -0.2032  1.4457 -0.4182
14818TIP3    H165945   2.641   0.174   0.584  1.3076  0.9587 -1.9984
14818TIP3    H265946   2.600   0.311   0.633 -1.5169 -0.5435  0.0803
14819TIP3   OH265947   5.506   0.829   2.935  0.5349 -0.0372  0.4693
14819TIP3    H165948   5.521   0.916   2.899 -0.3152  0.0397  0.2764
14819TIP3    H265949   5.411   0.817   2.930  0.5811 -0.7325  1.0503
14820TIP3   OH265950   2.973   3.635  13.213  0.0231 -0.5096  0.6012
14820TIP3    H165951   2.894   3.670  13.173  0.4414  0.5282  0.6613
14820TIP3    H265952   2.970   3.667  13.304  1.2276  0.7820  0.2133
14821TIP3   OH265953   5.242   0.985  13.376 -0.2805  0.1532 -0.4104
14821TIP3    H165954   5.274   1.075  13.381  0.0952 -0.0242  0.6271
14821TIP3    H265955   5.226   0.960  13.467 -0.6293 -0.7430 -0.7073
14822TIP3   OH265956   0.493   1.748   2.910 -0.8475 -0.2427 -0.0790
14822TIP3    H165957   0.449   1.670   2.877 -1.1326  0.0997 -0.5198
14822TIP3    H265958   0.550   1.776   2.839  0.0159 -0.6165  0.4449
14823TIP3   OH265959   5.083   5.126  12.229 -0.2303  0.0013 -0.3912
14823TIP3    H165960   5.007   5.070  12.210 -1.0326  0.3982  1.4146
14823TIP3    H265961   5.147   5.066  12.268 -1.6626  0.4325  2.9830
14824TIP3   OH265962   5.982   1.602  14.387 -0.2515  0.8904  0.2672
14824TIP3    H165963   6.062   1.548  14.393 -1.6227 -1.4345 -1.0388
14824TIP3    H265964   6.005   1.673  14.327  1.0798  0.7752  0.6025
14825TIP3   OH265965   2.816   1.409  10.161 -0.0335  0.6450 -0.4141
14825TIP3    H165966   2.753   1.459  10.109 -0.0559 -0.0032 -1.0349
14825TIP3    H265967   2.763   1.352  10.216 -0.0285 -0.4958 -1.5244
14826TIP3   OH265968   5.841   3.679   3.312  0.0933  0.6251 -0.4520
14826TIP3    H165969   5.800   3.656   3.395  0.7819  0.8769 -0.0363
14826TIP3    H265970   5.902   3.749   3.334  1.6700 -0.5915 -0.8110
14827TIP3   OH265971   0.203   3.004   5.327 -0.2864  0.3186 -0.2746
14827TIP3    H165972   0.242   3.086   5.354  1.4250 -0.3632 -0.5210
14827TIP3    H265973   0.115   3.004   5.365  0.0609  1.7898  0.5729
14828TIP3   OH265974   1.086   3.883  12.936 -0.3163  0.6512 -0.3549
14828TIP3    H165975   1.041   3.876  13.020  0.7513  2.4813  0.4268
14828TIP3    H265976   1.164   3.829  12.946  0.2303  1.5200  0.1474
14829TIP3   OH265977   6.227   4.239   2.294 -0.3060 -0.0421  0.4490
14829TIP3    H165978   6.199   4.171   2.233 -1.2298  0.0486  0.7467
14829TIP3    H265979   6.318   4.256   2.272 -0.3888 -0.5951 -0.3500
14830TIP3   OH265980   2.472   6.208  11.448  0.0750 -0.0850  0.4970
14830TIP3    H165981   2.503   6.121  11.472 -0.0760  0.0146  1.0581
14830TIP3    H265982   2.548   6.265  11.458  0.6834 -0.4415 -1.6437
14831TIP3   OH265983   0.660   5.041  15.073  0.2276 -0.2127 -0.2508
14831TIP3    H165984   0.708   5.119  15.045 -0.9673 -0.0194 -1.9135
14831TIP3    H265985   0.709   4.968  15.035 -0.2518 -0.0618 -1.2161
14832TIP3   OH265986   2.384   0.723  14.087  0.4877 -0.1544  0.2512
14832TIP3    H165987   2.399   0.699  14.179  0.6503  0.8999  0.5143
14832TIP3    H265988   2.444   0.667  14.037 -0.3406 -1.4750  0.6956
14833TIP3   OH265989   0.513   0.135  15.585 -0.5044 -0.0388 -0.0285
14833TIP3    H165990   0.434   0.187  15.572 -1.3834 -0.8212  1.8442
14833TIP3    H265991   0.513   0.074  15.511 -0.7521  1.0239 -0.9319
14834TIP3   OH265992   2.843   4.020  16.503  0.4194 -0.2630 -0.0097
14834TIP3    H165993   2.780   3.958  16.541  0.3193  0.0843  0.3917
14834TIP3    H265994   2.904   4.039  16.574  0.0023  0.6955  0.0929
14835TIP3   OH265995   4.264   3.364  14.928  0.7009  0.3594 -0.4777
14835TIP3    H165996   4.171   3.387  14.930  0.5253 -0.3647  0.2131
14835TIP3    H265997   4.310   3.443  14.956  0.1852  0.2482  0.7198
14836TIP3   OH265998   2.053   3.833   1.026 -0.1264  0.0794  0.0711
14836TIP3    H165999   1.988   3.851   0.957 -0.2421 -0.2514  0.0898
14836TIP3    H266000   2.000   3.813   1.104  0.0087  0.7498  0.3355
14837TIP3   OH266001   2.208   1.336  11.874  0.4541 -0.1010 -0.1232
14837TIP3    H166002   2.277   1.270  11.865 -0.0329 -0.5392 -0.6925
14837TIP3    H266003   2.209   1.359  11.967  1.0004 -0.5045 -0.0225
14838TIP3   OH266004   2.693   0.129   3.672 -0.0574  0.2498 -0.1937
14838TIP3    H166005   2.766   0.146   3.731 -1.2571 -0.7699  1.6713
14838TIP3    H266006   2.699   0.035   3.653  0.8184  0.6988 -2.4928
14839TIP3   OH266007   6.505   3.575   2.648 -0.3776 -0.1961 -0.6316
14839TIP3    H166008   6.565   3.528   2.705  1.0950  0.7729 -1.3249
14839TIP3    H266009   6.422   3.528   2.657 -0.1500 -0.2333  2.0672
14840TIP3   OH266010   6.560   3.160  12.629  0.1236  0.2063 -0.1086
14840TIP3    H166011   6.579   3.242  12.583 -0.8503  0.3900 -0.1881
14840TIP3    H266012   6.500   3.185  12.699 -0.6748 -0.5330 -0.5161
14841TIP3   OH266013   4.014   3.768  16.384  0.2554 -0.1327 -0.1868
14841TIP3    H166014   3.931   3.759  16.336  1.0264 -2.5034 -1.2270
14841TIP3    H266015   3.990   3.815  16.463 -1.8094  0.5461 -1.1369
14842TIP3   OH266016   2.255   6.046  14.352 -0.1690  0.5145 -0.5058
14842TIP3    H166017   2.276   6.026  14.260 -3.8619  0.2930 -1.4605
14842TIP3    H266018   2.184   5.986  14.374 -1.3554  2.5098  1.5370
14843TIP3   OH266019   3.401   5.410   5.346  0.4421 -0.0427 -0.3757
14843TIP3    H166020   3.305   5.411   5.358  0.5338 -2.2748  1.2761
14843TIP3    H266021   3.425   5.502   5.338 -1.6252  0.7550  1.5239
14844TIP3   OH266022   2.191   5.801   0.741  0.1279  0.9605  0.0543
14844TIP3    H166023   2.148   5.867   0.686 -2.3262  0.5886  1.3830
14844TIP3    H266024   2.160   5.819   0.829  0.8915 -0.8315  0.7329
14845TIP3   OH266025   1.375   3.152  14.370  0.1679 -0.7047 -0.2229
14845TIP3    H166026   1.445   3.195  14.419  0.8880 -0.6572 -1.2524
14845TIP3    H266027   1.406   3.063  14.356  0.0338 -0.6822 -0.6945
14846TIP3   OH266028   2.265   4.219   5.270 -0.1631  0.0566 -0.4401
14846TIP3    H166029   2.239   4.249   5.183 -0.6984 -0.3102 -0.4143
14846TIP3    H266030   2.186   4.177   5.305  0.3006 -0.5589 -0.1168
14847TIP3   OH266031   6.478   0.106  15.320  0.2231 -0.0340 -0.2734
14847TIP3    H166032   6.405   0.073  15.267 -1.1979  1.8852  0.3588
14847TIP3    H266033   6.556   0.069  15.279 -0.8115  1.0689 -3.5364
14848TIP3   OH266034   2.740   0.648  15.410 -0.5331  0.2919  0.3280
14848TIP3    H166035   2.670   0.673  15.350 -0.7562  0.5655  0.6995
14848TIP3    H266036   2.815   0.628  15.353 -1.0719 -0.5617 -0.1069
14849TIP3   OH266037   6.312   0.964   2.408  0.2958 -0.1871 -0.0782
14849TIP3    H166038   6.321   0.904   2.334 -2.8386 -0.5780 -0.2613
14849TIP3    H266039   6.268   0.912   2.475  2.7300  0.2654  2.0462
14850TIP3   OH266040   4.474   4.114   2.324  0.7793  0.0716 -0.1080
14850TIP3    H166041   4.519   4.092   2.243  0.4460 -0.5599 -0.1300
14850TIP3    H266042   4.469   4.031   2.372 -0.7529  0.0288 -0.3074
14851TIP3   OH266043   0.845   5.702  11.208  0.0386  0.1028 -0.0574
14851TIP3    H166044   0.901   5.711  11.284 -0.4486  2.3517  0.0943
14851TIP3    H266045   0.904   5.712  11.133  0.6023 -2.6067 -0.0726
14852TIP3   OH266046   2.009   4.087  11.629  0.3101 -0.2897  0.0254
14852TIP3    H166047   1.997   4.182  11.627 -0.5191 -0.3982 -1.1559
14852TIP3    H266048   1.975   4.060  11.714 -0.4013  0.3621 -0.0442
14853TIP3   OH266049   5.557   2.563  16.074 -0.2312 -0.4749 -0.2394
14853TIP3    H166050   5.519   2.615  16.004 -1.9715  1.5180  2.0319
14853TIP3    H266051   5.652   2.575  16.064 -0.2680 -1.7777 -3.2407
14854TIP3   OH266052   3.485   1.654  11.044  0.0234 -0.5730 -0.5410
14854TIP3    H166053   3.572   1.682  11.072 -0.1292 -0.3313 -0.3037
14854TIP3    H266054   3.478   1.682  10.953  0.3784 -1.0254 -0.7104
14855TIP3   OH266055   1.947   1.689  13.384  0.0569  0.7435 -0.0772
14855TIP3    H166056   1.871   1.665  13.436 -0.2517  1.6340 -0.0949
14855TIP3    H266057   2.010   1.618  13.398 -0.8660 -0.1223 -0.2722
14856TIP3   OH266058   0.285   5.808   5.281  0.3466 -0.1419  0.3055
14856TIP3    H166059   0.266   5.836   5.191 -0.7455 -2.8679 -0.4021
14856TIP3    H266060   0.376   5.833   5.295  0.2190  1.3195 -1.1421
14857TIP3   OH266061   0.302   4.409   2.246  0.3521  0.4370  1.0578
14857TIP3    H166062   0.344   4.331   2.211  0.8906  1.0260  0.3548
14857TIP3    H266063   0.238   4.376   2.309  1.3151 -0.5095  1.5587
14858TIP3   OH266064   6.203   6.308  13.510 -0.2986 -0.3747  0.0420
14858TIP3    H166065   6.261   6.382  13.492  0.4845 -1.0420 -0.2413
14858TIP3    H266066   6.117   6.335  13.477 -0.0290  0.4167 -0.0172
14859TIP3   OH266067   3.481   2.389  13.185  0.6854  0.1811  0.0103
14859TIP3    H166068   3.438   2.470  13.211 -0.8006 -0.3135 -0.8092
14859TIP3    H266069   3.456   2.326  13.253 -0.4600 -0.2677 -0.7948
14860TIP3   OH266070   3.484   1.924  13.242 -0.4423  0.6854 -0.2528
14860TIP3    H166071   3.458   1.952  13.330  1.2070  1.0481  0.1564
14860TIP3    H266072   3.421   1.968  13.184  0.3867  3.1040  0.5513
14861TIP3   OH266073   0.501   2.581   2.001  0.5726  0.3527  0.2904
14861TIP3    H166074   0.517   2.545   2.088 -2.5646 -2.5751 -0.1384
14861TIP3    H266075   0.427   2.530   1.967  1.8483  1.0535 -4.2521
14862TIP3   OH266076   5.765   1.161   3.337  0.1105  0.3031 -0.1128
14862TIP3    H166077   5.831   1.130   3.399 -2.1132 -0.0933  2.2357
14862TIP3    H266078   5.735   1.081   3.293 -0.8455  0.0291  0.9943
14863TIP3   OH266079   5.221   1.583  10.459 -0.3183 -0.4035  0.1427
14863TIP3    H166080   5.294   1.587  10.398 -0.3634 -0.9136  0.0525
14863TIP3    H266081   5.245   1.642  10.531  0.5417 -1.1879  0.5143
14864TIP3   OH266082   2.386   4.505   4.711  0.0003 -0.2084 -0.4045
14864TIP3    H166083   2.417   4.526   4.799 -0.7088 -1.0193  0.0600
14864TIP3    H266084   2.418   4.576   4.656  0.2781  0.4184  0.5467
14865TIP3   OH266085   4.476   3.320  14.457 -0.1746  0.4710  0.3267
14865TIP3    H166086   4.569   3.317  14.438  0.0209  0.4640  1.2615
14865TIP3    H266087   4.439   3.245  14.411  0.5163 -0.4141  1.2019
14866TIP3   OH266088   2.641   2.928   4.182 -0.3088 -0.4081  0.1480
14866TIP3    H166089   2.642   2.907   4.088 -0.8752 -0.9266  0.2471
14866TIP3    H266090   2.733   2.930   4.207 -0.1823 -2.0440 -0.0518
14867TIP3   OH266091   0.344   2.414  16.395 -0.1479 -0.0957 -0.2699
14867TIP3    H166092   0.274   2.414  16.329 -1.5453  0.2285  1.1422
14867TIP3    H266093   0.391   2.332  16.379 -0.6529 -0.1779 -1.4556
14868TIP3   OH266094   3.905   6.121  11.714  0.1317 -0.1342  0.8144
14868TIP3    H166095   3.822   6.121  11.666  2.1895  3.0897 -3.3810
14868TIP3    H266096   3.904   6.202  11.765  0.2954 -0.6606  1.6815
14869TIP3   OH266097   0.639   4.885  13.392 -0.1264 -0.0341 -0.2743
14869TIP3    H166098   0.587   4.961  13.367 -2.0150 -0.9122  0.7859
14869TIP3    H266099   0.675   4.907  13.478 -1.3243 -0.6019  0.3951
14870TIP3   OH266100   1.601   1.962  13.342 -0.3256  0.2889  0.0337
14870TIP3    H166101   1.690   1.983  13.314 -0.2364  1.0261  0.8249
14870TIP3    H266102   1.611   1.935  13.433 -0.7211 -1.2079 -0.3423
14871TIP3   OH266103   3.051   4.612  16.188  0.1551  0.2078 -0.5910
14871TIP3    H166104   3.023   4.656  16.108 -0.0262  0.6318 -0.3022
14871TIP3    H266105   3.140   4.644  16.203 -0.5213  1.7422  0.4672
14872TIP3   OH266106   4.342   1.669   2.043 -0.3273  0.4090 -0.1058
14872TIP3    H166107   4.299   1.586   2.060 -0.4546  0.4990  0.0152
14872TIP3    H266108   4.434   1.655   2.066 -0.2328  0.1319 -0.6297
14873TIP3   OH266109   1.516   6.495   0.376 -0.1939  0.2393  0.4657
14873TIP3    H166110   1.527   6.588   0.397 -0.0049  0.2754  0.2048
14873TIP3    H266111   1.442   6.467   0.431  0.2617  0.3411  1.1426
14874TIP3   OH266112   3.227   0.555   4.154 -0.3650  0.1704  0.0537
14874TIP3    H166113   3.317   0.524   4.145 -0.2644  0.9794 -3.1860
14874TIP3    H266114   3.236   0.649   4.173 -0.6263 -0.2292  2.4773
14875TIP3   OH266115   5.315   6.713   0.296 -0.3599 -0.0417  0.4781
14875TIP3    H166116   5.406   6.693   0.274 -0.3099  1.8314 -1.4266
14875TIP3    H266117   5.320   6.792   0.350 -0.8382 -0.0781  0.5828
14876TIP3   OH266118   4.320   5.966   1.005 -0.1898  0.1170 -0.1811
14876TIP3    H166119   4.408   5.999   0.983  0.0270 -0.4652 -0.1871
14876TIP3    H266120   4.271   5.975   0.923  0.7486 -2.4962 -1.1430
14877TIP3   OH266121   6.258   3.538   4.599 -0.0166 -0.8019 -0.2622
14877TIP3    H166122   6.271   3.463   4.541 -1.5710 -1.7565  0.5551
14877TIP3    H266123   6.164   3.539   4.616  0.3458 -0.3239  1.9300
14878TIP3   OH266124   2.783   3.004   2.623  0.0116 -0.5704 -0.5159
14878TIP3    H166125   2.798   2.913   2.596  0.0442 -1.0806  1.1288
14878TIP3    H266126   2.718   2.998   2.693 -0.7485  0.7862 -1.0648
14879TIP3   OH266127   2.130   4.378   3.468 -0.8746  0.3820 -0.2121
14879TIP3    H166128   2.116   4.415   3.381  1.3407  2.8315  0.3525
14879TIP3    H266129   2.185   4.442   3.513 -1.1793 -1.2284  2.7123
14880TIP3   OH266130   4.171   2.948  10.727  0.0098  0.4890  0.6301
14880TIP3    H166131   4.157   2.880  10.661  0.1891  0.8044  0.2610
14880TIP3    H266132   4.189   3.027  10.676  2.1584  0.3226  1.0541
14881TIP3   OH266133   2.671   0.887   1.432  0.1622  0.9932 -0.2295
14881TIP3    H166134   2.734   0.926   1.371 -0.3038 -0.0838 -1.4405
14881TIP3    H266135   2.599   0.950   1.435 -0.5261  0.3491 -2.0561
14882TIP3   OH266136   5.092   4.227   5.156 -0.5365  0.0721 -0.0120
14882TIP3    H166137   5.111   4.146   5.203  1.2670  1.1773  1.2928
14882TIP3    H266138   5.039   4.200   5.081 -0.7644 -2.1714  0.8969
14883TIP3   OH266139   0.316   2.097  15.111 -0.8330 -0.3030 -0.4497
14883TIP3    H166140   0.308   2.014  15.157  1.2446  0.5924  1.7686
14883TIP3    H266141   0.366   2.153  15.171  3.0021  0.6947 -4.1011
14884TIP3   OH266142   1.221   5.933  15.317 -0.5696 -0.0737 -0.0138
14884TIP3    H166143   1.257   6.019  15.338 -0.6907  0.8965 -3.2122
14884TIP3    H266144   1.298   5.876  15.310 -0.2360  0.4119 -0.3851
14885TIP3   OH266145   0.474   6.610  10.558 -0.0901  0.0278 -0.4013
14885TIP3    H166146   0.419   6.613  10.637 -0.6541  2.8507 -0.7960
14885TIP3    H266147   0.411   6.611  10.486  0.4612 -0.2223 -0.8908
14886TIP3   OH266148   1.128   0.509  14.814 -0.2161  0.0234  0.9363
14886TIP3    H166149   1.155   0.581  14.870 -0.3632 -0.1736  1.2631
14886TIP3    H266150   1.060   0.464  14.864 -2.5163  1.5681 -0.6025
14887TIP3   OH266151   6.398   2.187  14.992  0.1346 -0.4301 -0.1574
14887TIP3    H166152   6.351   2.175  14.909  0.1828 -2.5327  0.0612
14887TIP3    H266153   6.346   2.137  15.056 -0.9379  2.6430  1.5460
14888TIP3   OH266154   3.895   0.074  12.187  0.1703  0.1271 -0.0568
14888TIP3    H166155   3.947  -0.005  12.171 -0.8536 -0.7719  0.9621
14888TIP3    H266156   3.950   0.127  12.246  0.6222 -0.0506 -0.3092
14889TIP3   OH266157   0.020   1.809   5.307  0.5361  0.0296  0.2232
14889TIP3    H166158  -0.016   1.881   5.254  2.2138  1.8446  1.4229
14889TIP3    H266159  -0.038   1.735   5.288 -1.7026  1.8432 -0.5572
14890TIP3   OH266160   3.335   1.799   3.730  0.1716  0.5299  0.0007
14890TIP3    H166161   3.308   1.799   3.638  0.7567 -1.7951 -0.2481
14890TIP3    H266162   3.345   1.706   3.752  0.7416  1.0500  2.2163
14891TIP3   OH266163   3.582   0.402   3.936 -0.8641  0.1784  0.1529
14891TIP3    H166164   3.623   0.323   3.899 -0.4052 -0.8996  2.7410
14891TIP3    H266165   3.651   0.442   3.990 -1.5407  1.5672  0.0368
14892TIP3   OH266166   2.982   5.710  14.728  0.0434  0.1270 -0.0576
14892TIP3    H166167   2.889   5.696  14.707  0.2021 -0.2336 -0.5483
14892TIP3    H266168   3.029   5.662  14.659  0.6253  2.6430 -1.5511
14893TIP3   OH266169   1.711   5.460   4.878 -0.2740 -0.7305 -0.0417
14893TIP3    H166170   1.782   5.519   4.855 -0.6757  0.7431  2.1916
14893TIP3    H266171   1.752   5.390   4.929 -0.0788 -1.3770 -1.0551
14894TIP3   OH266172   6.793   1.103  17.181  0.5874  0.8859 -0.0153
14894TIP3    H166173   6.870   1.073  17.229  1.5184  0.4225 -1.7171
14894TIP3    H266174   6.767   1.028  17.127 -0.1144  1.5228 -0.5962
14895TIP3   OH266175   0.132   0.124  14.981 -0.1035 -0.1277 -0.2447
14895TIP3    H166176   0.224   0.109  14.958 -0.2435  0.8597 -1.6487
14895TIP3    H266177   0.135   0.195  15.045  0.0940  0.7463 -1.1841
14896TIP3   OH266178   2.001   3.831  13.613 -0.0014  0.4216 -0.4500
14896TIP3    H166179   1.985   3.810  13.706 -1.6386 -0.0326 -0.8010
14896TIP3    H266180   1.971   3.921  13.603  3.3285  1.7507  0.1527
14897TIP3   OH266181   3.646   0.606   5.465 -0.0015  0.1465  0.1969
14897TIP3    H166182   3.631   0.604   5.560  1.3321 -0.4540  0.4211
14897TIP3    H266183   3.742   0.607   5.456 -0.0288 -2.2898 -1.1596
14898TIP3   OH266184   5.943   3.383   1.875  0.6468 -0.1885 -0.0579
14898TIP3    H166185   5.940   3.476   1.898 -0.1519 -0.0262 -0.7810
14898TIP3    H266186   5.858   3.366   1.835  1.6817 -0.6281 -2.2251
14899TIP3   OH266187   4.524   1.376   6.040  0.2580  0.0893  0.1491
14899TIP3    H166188   4.511   1.462   6.081  1.1516 -0.5226  1.8277
14899TIP3    H266189   4.521   1.314   6.113 -0.5403 -1.3433 -1.0549
14900TIP3   OH266190   0.617   5.550  11.623 -0.1519 -0.7877  0.4577
14900TIP3    H166191   0.595   5.534  11.715  0.1033  1.5341  0.9775
14900TIP3    H266192   0.710   5.572  11.623  0.2104 -2.1708 -0.5890
14901TIP3   OH266193   6.091   5.406   1.131 -0.4089  0.0264  0.2060
14901TIP3    H166194   6.047   5.363   1.057  0.6666  0.8310 -0.9613
14901TIP3    H266195   6.151   5.468   1.089 -0.6593  1.4087  1.8041
14902TIP3   OH266196   3.814   3.508  11.327 -0.9977  0.3618 -0.1682
14902TIP3    H166197   3.766   3.521  11.245  0.7607  0.4391 -1.2506
14902TIP3    H266198   3.880   3.577  11.327 -0.7913  0.1829  1.1950
14903TIP3   OH266199   5.243   5.116  16.431  0.1021 -0.4677 -0.2055
14903TIP3    H166200   5.261   5.037  16.381 -1.8871 -0.7872 -0.5010
14903TIP3    H266201   5.275   5.096  16.519  1.5465 -0.7593 -0.7668
14904TIP3   OH266202   2.617   3.867  14.253 -0.2389 -0.2917 -0.8384
14904TIP3    H166203   2.640   3.952  14.215 -0.1927 -0.1623 -0.5174
14904TIP3    H266204   2.522   3.866  14.256 -0.3152 -0.9031 -2.3464
14905TIP3   OH266205   1.458   0.363   4.463 -0.2665  0.5296  0.0589
14905TIP3    H166206   1.547   0.375   4.497 -0.0275  0.3619 -0.4956
14905TIP3    H266207   1.443   0.438   4.406  0.3186 -0.4802 -1.4974
14906TIP3   OH266208   2.610   5.001  13.208 -0.5414  0.1056 -0.0557
14906TIP3    H166209   2.530   5.035  13.169 -1.1427  0.4172  1.3988
14906TIP3    H266210   2.680   5.043  13.158 -1.2736  0.8133 -0.5251
14907TIP3   OH266211   2.265   6.625   4.303  0.2862  0.1085 -0.5236
14907TIP3    H166212   2.228   6.709   4.326  0.9360  0.2544  0.0323
14907TIP3    H266213   2.342   6.616   4.360 -0.7830 -1.6577  0.7380
14908TIP3   OH266214   5.337   2.530   5.119  0.4516  0.2758  0.3440
14908TIP3    H166215   5.377   2.475   5.187 -1.1474 -1.0743  0.2507
14908TIP3    H266216   5.249   2.549   5.152 -0.7048 -1.1806 -1.7018
14909TIP3   OH266217   3.986   6.763  13.029 -0.1049  0.1954  0.4813
14909TIP3    H166218   3.983   6.668  13.041  1.2911  0.1347  0.5453
14909TIP3    H266219   3.995   6.798  13.118  1.9119  0.2124  0.3256
14910TIP3   OH266220   2.552   4.630  14.076 -0.1452 -0.0183  0.3289
14910TIP3    H166221   2.484   4.563  14.067 -0.5921  0.5125 -0.3982
14910TIP3    H266222   2.633   4.581  14.092 -0.4009 -0.7460 -0.5296
14911TIP3   OH266223   2.425   1.127  15.530  0.5561 -0.6217 -0.3124
14911TIP3    H166224   2.459   1.143  15.442  2.6802 -0.8910  0.3856
14911TIP3    H266225   2.477   1.053  15.562 -0.1435 -0.5005  1.1900
14912TIP3   OH266226   2.485   0.238  14.750  0.2600 -0.7463 -0.2598
14912TIP3    H166227   2.536   0.305  14.796 -0.1279 -0.0177 -0.8884
14912TIP3    H266228   2.395   0.253  14.778  0.1327 -0.8225 -0.6281
14913TIP3   OH266229   5.391   0.622  10.800  0.6073 -0.1202 -1.2204
14913TIP3    H166230   5.464   0.571  10.763  1.1466  0.1862 -0.6065
14913TIP3    H266231   5.324   0.556  10.820  1.6312 -0.7573  0.3765
14914TIP3   OH266232   6.046   1.322  11.136  0.5583 -0.2180 -0.3878
14914TIP3    H166233   5.964   1.366  11.117  0.1617 -0.0404  1.4968
14914TIP3    H266234   6.025   1.229  11.134  0.6153 -0.2184 -1.1227
14915TIP3   OH266235   0.927   0.890   4.150  0.4927 -0.0160 -0.2233
14915TIP3    H166236   0.943   0.983   4.137  0.0684 -0.1587 -2.0147
14915TIP3    H266237   0.832   0.880   4.144  0.4129 -0.4008  1.2982
14916TIP3   OH266238   5.484   5.631  13.803  0.0251 -0.1840 -0.6037
14916TIP3    H166239   5.398   5.669  13.819  0.3823  0.7289 -0.7859
14916TIP3    H266240   5.528   5.694  13.745  0.4781 -1.0952 -1.2748
14917TIP3   OH266241   2.533   1.116  12.861  0.5536  0.0707  0.5153
14917TIP3    H166242   2.523   1.097  12.954  0.9692 -2.1880  0.1472
14917TIP3    H266243   2.502   1.037  12.817  3.1571 -0.1070 -1.1618
14918TIP3   OH266244   4.672   5.352   1.054 -0.4345 -0.2505 -0.2200
14918TIP3    H166245   4.584   5.388   1.059  0.1486  1.1533  0.4141
14918TIP3    H266246   4.703   5.352   1.144 -0.0091 -1.3478 -0.3527
14919TIP3   OH266247   1.798   2.011  15.082  0.0219 -0.0249  0.0736
14919TIP3    H166248   1.773   1.920  15.063 -1.5548  0.3496  0.2254
14919TIP3    H266249   1.843   2.006  15.166  0.7472 -0.7705 -0.3366
14920TIP3   OH266250   1.877   0.525   3.407 -0.1462 -0.1768  0.0496
14920TIP3    H166251   1.867   0.619   3.425  0.6177 -0.1777  0.5280
14920TIP3    H266252   1.841   0.514   3.319  0.2923  0.6843 -0.2543
14921TIP3   OH266253   4.639   1.396   1.973 -0.5357 -0.0424 -0.3199
14921TIP3    H166254   4.714   1.353   2.013  1.4916  0.5215 -3.1431
14921TIP3    H266255   4.589   1.325   1.933 -1.0778 -0.3365  0.8383
14922TIP3   OH266256   0.313   2.231   2.776  0.2898  0.3871  0.2465
14922TIP3    H166257   0.276   2.202   2.859  0.1337 -2.1410 -0.6248
14922TIP3    H266258   0.242   2.281   2.735 -0.5889 -0.6413  0.4825
14923TIP3   OH266259   1.046   4.011  15.694 -0.1110  0.2578  0.0441
14923TIP3    H166260   1.101   3.985  15.620 -2.2043 -1.2110 -1.1121
14923TIP3    H266261   1.040   3.933  15.749 -1.6064  0.1078 -0.2748
14924TIP3   OH266262   3.376   1.249  16.178 -0.3758  0.1729 -0.0533
14924TIP3    H166263   3.410   1.313  16.115  0.8768 -1.1392 -0.7620
14924TIP3    H266264   3.299   1.211  16.135 -0.8113  0.7973  0.1517
14925TIP3   OH266265   3.772   0.546   4.057  0.2155 -0.3637  0.1365
14925TIP3    H166266   3.735   0.615   4.112 -0.9370 -0.9007  0.0741
14925TIP3    H266267   3.827   0.592   3.994  0.3447  0.3946  0.7840
14926TIP3   OH266268   2.157   6.179   3.903  0.2462  0.4433  0.0138
14926TIP3    H166269   2.170   6.273   3.891 -0.2017  0.8332  2.1471
14926TIP3    H266270   2.237   6.149   3.947 -0.0889  0.0697  0.3805
14927TIP3   OH266271   5.878   4.198  16.672 -0.8053  0.2831 -0.6128
14927TIP3    H166272   5.915   4.265  16.729 -2.9940  0.3955  0.7704
14927TIP3    H266273   5.951   4.174  16.614  0.8058  1.8971  0.6098
14928TIP3   OH266274   1.922   0.638  16.660  0.0582 -0.1608  0.6180
14928TIP3    H166275   1.856   0.702  16.688 -0.8950 -0.7827 -0.1154
14928TIP3    H266276   1.937   0.657  16.567 -1.0885 -1.6622  0.0734
14929TIP3   OH266277   1.713   6.554  12.286 -0.0628  0.0377  0.2431
14929TIP3    H166278   1.697   6.570  12.379 -0.2616  2.6336 -0.1703
14929TIP3    H266279   1.649   6.488  12.261 -0.9466  0.3293  1.6476
14930TIP3   OH266280   3.044   5.779  10.784 -0.0239 -0.1658 -0.3473
14930TIP3    H166281   3.019   5.701  10.734 -1.7530 -0.3823  0.7793
14930TIP3    H266282   2.963   5.830  10.792  0.1018 -0.2191  2.2924
14931TIP3   OH266283   1.987   4.027  14.907  0.5804 -0.3226 -0.2490
14931TIP3    H166284   2.003   3.933  14.912 -1.0056 -0.6229 -0.2472
14931TIP3    H266285   1.927   4.045  14.980  0.0270  0.4901 -0.8803
14932TIP3   OH266286   1.074   3.575   4.621 -0.2357 -0.4483 -0.6230
14932TIP3    H166287   0.993   3.583   4.670  0.3018  0.5686  0.1348
14932TIP3    H266288   1.052   3.603   4.532 -0.9548 -1.2498 -0.7124
14933TIP3   OH266289   4.487   4.125   1.328 -0.3111 -0.5003 -0.0540
14933TIP3    H166290   4.563   4.100   1.382 -0.4321 -1.1622 -0.1827
14933TIP3    H266291   4.426   4.052   1.337 -0.4006 -0.5500 -0.9655
14934TIP3   OH266292   2.992   2.678  12.878  0.5035  0.1851  0.5848
14934TIP3    H166293   2.946   2.652  12.799 -3.3277  0.7292  2.4105
14934TIP3    H266294   2.999   2.774  12.872  0.9503  0.1546  0.5666
14935TIP3   OH266295   1.404   5.811  12.877 -0.3247 -0.2987  0.3993
14935TIP3    H166296   1.499   5.821  12.871 -0.2898 -0.5608  0.5273
14935TIP3    H266297   1.390   5.719  12.898 -0.7642 -1.4936 -4.1318
14936TIP3   OH266298   4.535   2.031  13.593 -0.6028  0.4862  0.7704
14936TIP3    H166299   4.526   1.940  13.618  1.1034 -0.5978 -2.0775
14936TIP3    H266300   4.622   2.057  13.623  0.6024 -0.1947 -1.8357
14937TIP3   OH266301   2.282   2.231   1.400 -0.0817 -0.2217 -0.3582
14937TIP3    H166302   2.278   2.324   1.421  0.0819 -0.3846  0.4017
14937TIP3    H266303   2.373   2.216   1.373  0.4022 -0.5389  1.3560
14938TIP3   OH266304   1.980   5.493   1.357 -0.4216 -0.4123  0.6797
14938TIP3    H166305   1.938   5.542   1.287 -0.5963 -0.6310  0.6292
14938TIP3    H266306   1.927   5.510   1.435 -0.9675 -1.1655  0.4896
14939TIP3   OH266307   3.123   4.131  11.366 -0.1909 -0.2552 -0.1368
14939TIP3    H166308   3.176   4.101  11.439 -1.8648  0.6927  1.5537
14939TIP3    H266309   3.057   4.063  11.354  1.0751 -1.2498 -1.9859
14940TIP3   OH266310   6.522   6.577   3.477 -0.0882 -0.3897 -0.2535
14940TIP3    H166311   6.466   6.499   3.474  0.8468 -1.0821 -0.0881
14940TIP3    H266312   6.603   6.550   3.435  0.4955  0.3028  0.4125
14941TIP3   OH266313   5.135   3.440  11.670 -0.1227  0.0218  0.0427
14941TIP3    H166314   5.064   3.395  11.625 -0.7331 -0.2379  1.2205
14941TIP3    H266315   5.106   3.445  11.761  0.8298  1.0067  0.3144
14942TIP3   OH266316   5.376   5.775  14.635 -0.1092  0.3954 -0.3768
14942TIP3    H166317   5.364   5.685  14.606  1.0895  0.8390 -2.4580
14942TIP3    H266318   5.392   5.825  14.555  1.6772  2.0535  0.8892
14943TIP3   OH266319   3.005   4.227   2.590  0.2649 -0.0521  0.2770
14943TIP3    H166320   3.053   4.306   2.564  0.9105 -0.6472 -0.3639
14943TIP3    H266321   3.073   4.162   2.607 -0.1622 -0.0142  2.5003
14944TIP3   OH266322   5.656   1.247   5.660 -0.5477 -0.4623  0.3355
14944TIP3    H166323   5.633   1.159   5.690 -1.7040 -0.0046  0.8379
14944TIP3    H266324   5.620   1.305   5.727  1.9212  0.3407  1.0861
14945TIP3   OH266325   6.688   6.629   5.046  0.4129  0.2871  0.6700
14945TIP3    H166326   6.712   6.612   5.137  1.1577  1.0233  0.6171
14945TIP3    H266327   6.731   6.559   4.997  1.8726  1.1455  0.6614
14946TIP3   OH266328   5.688   2.075   1.132 -0.2839  0.3964 -0.1242
14946TIP3    H166329   5.783   2.067   1.141 -0.3745 -0.3417  0.3132
14946TIP3    H266330   5.676   2.131   1.056  0.5134 -1.2921 -1.5812
14947TIP3   OH266331   5.106   2.398  17.016 -0.1646 -0.0387 -0.2285
14947TIP3    H166332   5.087   2.492  17.009 -0.2437 -0.0179  0.2136
14947TIP3    H266333   5.168   2.381  16.946 -0.6172  0.2180 -0.7055
14948TIP3   OH266334   5.590   0.961   4.346  0.0023  0.4567 -0.2253
14948TIP3    H166335   5.569   0.970   4.252  0.5275 -1.6764 -0.6021
14948TIP3    H266336   5.506   0.975   4.390 -0.4670  0.4445 -1.0902
14949TIP3   OH266337   4.022   3.674   2.813 -0.1217  0.6321 -0.7116
14949TIP3    H166338   4.117   3.682   2.812  0.1519 -1.3854  1.3537
14949TIP3    H266339   4.005   3.589   2.772 -0.8694  0.0712  0.7225
14950TIP3   OH266340   4.987   6.512  11.222 -0.2642 -0.2193  0.5197
14950TIP3    H166341   4.921   6.525  11.154  1.6584  1.1079 -1.2198
14950TIP3    H266342   4.991   6.417  11.234 -1.1716 -0.4315 -0.6821
14951TIP3   OH266343   0.243   2.564  14.987  0.6476  0.2549  0.5247
14951TIP3    H166344   0.238   2.514  14.905  0.7061  0.1576  0.5795
14951TIP3    H266345   0.195   2.510  15.051 -1.3585  1.3754  0.0462
14952TIP3   OH266346   0.237   2.078   4.087  0.0342  0.0267 -0.0902
14952TIP3    H166347   0.239   2.072   4.183  1.8769  0.0761 -0.0815
14952TIP3    H266348   0.213   1.989   4.059 -0.5884  0.0277  0.4021
14953TIP3   OH266349   1.021   3.319  17.041  0.3360  0.7893  0.3550
14953TIP3    H166350   1.034   3.335  17.134  0.9907 -0.0264  0.4128
14953TIP3    H266351   0.943   3.370  17.018  0.9648  2.1127  1.0368
14954TIP3   OH266352   3.058   3.408   0.458 -0.9750  0.0526 -0.2607
14954TIP3    H166353   2.975   3.369   0.482 -2.4354  2.6339 -0.7137
14954TIP3    H266354   3.037   3.500   0.442  1.5173  0.3136 -2.7633
14955TIP3   OH266355   4.073   4.074   5.312 -0.6489 -0.1145 -0.2300
14955TIP3    H166356   4.108   4.036   5.231  1.3912 -0.3518  0.6989
14955TIP3    H266357   4.109   4.163   5.314 -2.1104  0.4964 -0.4126
14956TIP3   OH266358   2.298   1.740  14.839 -0.8197 -0.1957 -0.1409
14956TIP3    H166359   2.266   1.830  14.836  0.2950  0.2155 -0.3732
14956TIP3    H266360   2.393   1.749  14.833 -0.7702 -1.5033 -3.1969
14957TIP3   OH266361   3.240   2.593  12.771 -0.3960  0.1223 -0.0556
14957TIP3    H166362   3.197   2.653  12.832  1.0271  1.3102 -0.1869
14957TIP3    H266363   3.264   2.518  12.825  0.2672  0.8792  0.7237
14958TIP3   OH266364   3.682   0.003  14.600  0.2919 -0.1331  0.2877
14958TIP3    H166365   3.661   0.057  14.676  1.7458  0.0892  0.5737
14958TIP3    H266366   3.696   0.065  14.529  2.2935 -0.0353  0.6949
14959TIP3   OH266367   3.566   4.408  16.336 -0.1138  0.6815  0.5116
14959TIP3    H166368   3.625   4.474  16.300  0.3387 -0.4417 -0.9061
14959TIP3    H266369   3.497   4.400  16.271  1.0151 -1.7977 -0.5378
14960TIP3   OH266370   3.002   0.400  11.631  0.1908  0.3095 -0.4707
14960TIP3    H166371   2.925   0.458  11.632  0.0006  0.0733 -0.9782
14960TIP3    H266372   2.988   0.343  11.556 -0.1070 -1.0702  0.5988
14961TIP3   OH266373   6.630   0.103   1.803  0.3495 -0.6064  0.1247
14961TIP3    H166374   6.718   0.079   1.775  0.6723 -1.2284  1.5564
14961TIP3    H266375   6.630   0.087   1.897 -1.6413 -1.7308 -0.0010
14962TIP3   OH266376   3.915   6.313   3.145  0.1543  0.7256  0.0049
14962TIP3    H166377   3.935   6.222   3.168 -1.6462  0.1119 -0.7019
14962TIP3    H266378   3.931   6.361   3.226 -0.9840 -0.5766  1.0523
14963TIP3   OH266379   0.965   4.045   3.162  0.2927  0.0777 -0.0752
14963TIP3    H166380   0.966   4.111   3.092  0.7727  1.2383  0.9855
14963TIP3    H266381   1.056   4.040   3.191  0.2610 -1.0790 -0.1328
14964TIP3   OH266382   4.495   1.626  17.165  0.3396 -0.1054  0.2070
14964TIP3    H166383   4.404   1.656  17.169  0.5334  0.8318 -1.3816
14964TIP3    H266384   4.494   1.555  17.101  0.4256 -1.4472  1.6432
14965TIP3   OH266385   5.962   4.062  14.684 -0.3528 -0.4619  0.1511
14965TIP3    H166386   5.950   4.014  14.603  0.4012 -0.6905  0.1708
14965TIP3    H266387   6.048   4.104  14.675 -0.5449  0.0336  0.5644
14966TIP3   OH266388   4.868   3.711   2.760  0.2525  0.6018  0.6518
14966TIP3    H166389   4.813   3.787   2.737 -0.2449  1.0666  3.0811
14966TIP3    H266390   4.958   3.745   2.754  0.2042  0.5106 -1.0703
14967TIP3   OH266391   4.619   2.111  16.331 -0.4359 -0.0083 -0.5822
14967TIP3    H166392   4.535   2.144  16.361 -0.1448 -1.3187  1.9006
14967TIP3    H266393   4.622   2.020  16.360  2.4099  0.3875  0.7441
14968TIP3   OH266394   0.569   0.878  14.322  0.5624 -0.4343  0.3698
14968TIP3    H166395   0.492   0.934  14.309  1.0688  0.1790 -0.0914
14968TIP3    H266396   0.540   0.791  14.294  0.2662 -0.0467 -0.5709
14969TIP3   OH266397   2.223   1.601   3.493  0.2901  0.7158 -0.0191
14969TIP3    H166398   2.247   1.604   3.585  0.0778 -2.0222  0.1844
14969TIP3    H266399   2.307   1.592   3.447  0.2386 -1.4498  0.2048
14970TIP3   OH266400   6.187   0.584   3.098  0.1232  0.4136 -0.3617
14970TIP3    H166401   6.242   0.588   3.020 -1.3234  0.0171 -1.4316
14970TIP3    H266402   6.143   0.668   3.101 -1.2080 -0.2405 -1.0315
14971TIP3   OH266403   6.311   2.597   5.842 -0.0876  0.1867  0.1951
14971TIP3    H166404   6.308   2.692   5.852  0.2129  0.2120  0.0726
14971TIP3    H266405   6.268   2.580   5.758  2.8065  0.5298 -1.4874
14972TIP3   OH266406   5.467   2.117  16.087  0.0736  0.5294  0.8413
14972TIP3    H166407   5.433   2.060  16.018 -0.7085  1.0282  0.7979
14972TIP3    H266408   5.506   2.190  16.041 -1.8875  1.6819  0.9010
14973TIP3   OH266409   0.298   6.618  11.902  0.3580 -0.4544  0.1221
14973TIP3    H166410   0.274   6.527  11.885  0.1645 -0.0777 -1.8874
14973TIP3    H266411   0.346   6.645  11.824  0.2006  1.2453  0.5711
14974TIP3   OH266412   4.687   0.491  13.142 -0.0876 -0.3262  0.4998
14974TIP3    H166413   4.683   0.397  13.124 -0.5902 -0.0890 -0.7745
14974TIP3    H266414   4.600   0.524  13.119  1.0128  0.9347 -2.4439
14975TIP3   OH266415   2.124   4.373  14.835  0.1945 -0.2061  0.3952
14975TIP3    H166416   2.175   4.450  14.812 -0.0231 -0.2880 -0.4193
14975TIP3    H266417   2.066   4.401  14.905 -0.5888  0.6586 -0.5676
14976TIP3   OH266418   6.224   6.320  15.794  0.1628 -0.1501  0.5319
14976TIP3    H166419   6.138   6.322  15.753  0.4854  1.0515 -0.1452
14976TIP3    H266420   6.286   6.323  15.721  0.7849 -0.5005  1.0270
14977TIP3   OH266421   2.247   6.352  13.708 -0.1628  0.2738 -0.1632
14977TIP3    H166422   2.154   6.374  13.714 -0.1007  0.8517 -1.1297
14977TIP3    H266423   2.260   6.284  13.774 -1.1265  0.6486  0.4338
14978TIP3   OH266424   3.151   2.897  15.032 -0.3474  0.1825  0.0135
14978TIP3    H166425   3.062   2.918  15.003 -0.7961 -2.3121 -0.6401
14978TIP3    H266426   3.143   2.812  15.074  1.9896 -1.0613 -1.8237
14979TIP3   OH266427   1.359   5.987  16.410 -0.4642  0.0075  0.0131
14979TIP3    H166428   1.269   5.955  16.414 -0.6651  0.2849 -1.7636
14979TIP3    H266429   1.374   6.028  16.495 -2.0643  0.1054  0.2690
14980TIP3   OH266430   3.776   0.944  15.786 -0.6336 -0.0024 -0.0333
14980TIP3    H166431   3.725   0.957  15.865 -0.6238  0.1384 -0.0508
14980TIP3    H266432   3.714   0.954  15.714 -0.5783  0.1757 -0.0553
14981TIP3   OH266433   0.405   5.895  13.517 -0.4000 -0.3473  0.2030
14981TIP3    H166434   0.330   5.929  13.468 -1.3656  0.2619  1.9991
14981TIP3    H266435   0.480   5.909  13.459 -1.2902  1.5575 -0.5645
14982TIP3   OH266436   2.004   5.724  12.358  0.3248  0.6133  0.3683
14982TIP3    H166437   2.098   5.738  12.374  0.7829  0.9168 -2.1853
14982TIP3    H266438   2.001   5.651  12.297 -1.2870 -0.8117  2.0317
14983TIP3   OH266439   1.854   6.215   5.845 -0.4421 -0.0047  0.3229
14983TIP3    H166440   1.892   6.139   5.800  1.5527  0.8207  0.5044
14983TIP3    H266441   1.771   6.231   5.799 -0.7148 -2.0169  0.0248
14984TIP3   OH266442   0.168   0.634  12.423 -0.0486  0.0526 -0.0827
14984TIP3    H166443   0.114   0.556  12.414 -0.2466  0.3013 -1.3403
14984TIP3    H266444   0.128   0.684  12.494 -1.4962  0.2195 -0.9724
14985TIP3   OH266445   5.907   2.180  13.167 -0.4980  0.2871 -0.0247
14985TIP3    H166446   5.958   2.103  13.189 -0.0676  0.4582 -0.4191
14985TIP3    H266447   5.816   2.150  13.168 -0.4446  0.1247  1.2593
14986TIP3   OH266448   3.561   6.307  12.821 -0.4645  0.3283  0.1466
14986TIP3    H166449   3.524   6.227  12.784  0.7121  0.0755 -0.5313
14986TIP3    H266450   3.525   6.312  12.910 -1.5283 -0.2703 -0.2376
14987TIP3   OH266451   1.755   0.010  12.459 -0.3186  0.6378  0.1577
14987TIP3    H166452   1.706   0.090  12.476  0.4611  0.9499  1.0260
14987TIP3    H266453   1.711  -0.057  12.511 -0.0295  0.8521  0.6886
14988TIP3   OH266454   0.757   4.938   0.780  0.6898  0.1396 -0.6639
14988TIP3    H166455   0.708   4.931   0.698  0.6933 -0.3277 -0.6273
14988TIP3    H266456   0.844   4.904   0.758  0.3741 -0.9864 -0.1932
14989TIP3   OH266457   2.713   2.149  15.162 -0.6447  0.6452 -0.2470
14989TIP3    H166458   2.750   2.071  15.204 -0.5974  0.8741  0.1415
14989TIP3    H266459   2.665   2.194  15.231 -0.1636  1.2812 -0.3114
14990TIP3   OH266460   5.854   2.966   0.071 -0.2043 -0.0398 -0.1461
14990TIP3    H166461   5.829   3.041   0.125  1.6541  0.0327  0.6806
14990TIP3    H266462   5.858   3.001  -0.018  0.0241  0.7022  0.1422
14991TIP3   OH266463   6.744   0.942  15.008 -0.5506  0.1716 -0.1698
14991TIP3    H166464   6.726   0.997  14.932  1.0012  0.4324 -0.3801
14991TIP3    H266465   6.777   1.003  15.074 -0.3942 -0.2763  0.1743
14992TIP3   OH266466   5.573   0.932   4.072 -0.2357 -0.2205  0.3059
14992TIP3    H166467   5.506   0.941   4.005 -0.4229  2.3266  0.7448
14992TIP3    H266468   5.655   0.952   4.028  0.2526 -2.7485 -0.0874
14993TIP3   OH266469   6.056   5.178  14.443 -0.0164  0.1672 -0.7578
14993TIP3    H166470   6.099   5.228  14.512  1.2680 -0.9273 -0.7240
14993TIP3    H266471   6.100   5.205  14.362  1.0488 -1.2309 -0.6781
14994TIP3   OH266472   1.492   5.219   1.827  0.0709  0.3055 -0.3881
14994TIP3    H166473   1.487   5.133   1.869 -1.4519  0.0584 -0.9989
14994TIP3    H266474   1.555   5.207   1.755 -0.6449 -0.5151 -0.9025
14995TIP3   OH266475   3.524   2.641   3.763 -0.0013  0.1802 -0.1743
14995TIP3    H166476   3.585   2.567   3.769  1.4137  1.1881 -1.4132
14995TIP3    H266477   3.557   2.704   3.827 -0.4171  0.3018 -0.0743
14996TIP3   OH266478   4.391   3.280  15.679 -0.6283 -0.0939 -0.1919
14996TIP3    H166479   4.471   3.311  15.636 -0.5288  2.9868  1.8645
14996TIP3    H266480   4.330   3.265  15.607  0.6641  1.1793 -1.6366
14997TIP3   OH266481   2.949   0.495   2.067 -0.4856 -0.3705  0.7189
14997TIP3    H166482   2.899   0.561   2.020 -0.4932 -1.9486 -1.6979
14997TIP3    H266483   3.006   0.544   2.125 -2.3220  1.6058  0.9695
14998TIP3   OH266484   5.175   1.984  15.004  0.2976  0.1331  0.4191
14998TIP3    H166485   5.186   1.892  14.982 -2.3842 -0.3784  0.9504
14998TIP3    H266486   5.221   1.994  15.087 -1.1060 -1.2709  1.4116
14999TIP3   OH266487   0.276   2.169  11.677 -0.0259 -0.1698  0.2228
14999TIP3    H166488   0.217   2.098  11.701  0.8936 -0.9300  0.3084
14999TIP3    H266489   0.249   2.243  11.731  0.9578 -1.3601  2.4875
15000TIP3   OH266490   1.524   5.871  16.057  0.4545 -0.1623  0.5068
15000TIP3    H166491   1.531   5.937  15.988 -0.2802  0.5311  1.0746
15000TIP3    H266492   1.605   5.880  16.107  0.6288 -0.1123  0.2185
15001TIP3   OH266493   1.524   0.860  17.062  0.6126 -0.3307  0.5089
15001TIP3    H166494   1.516   0.865  16.967 -1.4613 -2.0252  0.5038
15001TIP3    H266495   1.587   0.790  17.078  0.5947 -0.3733  0.3879
15002TIP3   OH266496   2.578   2.965   0.620  0.2052 -0.1301  0.2183
15002TIP3    H166497   2.512   2.907   0.582  0.8407  0.8446 -2.6294
15002TIP3    H266498   2.597   3.028   0.550  0.2643  2.9399  2.7962
15003TIP3   OH266499   5.694   0.097  13.475 -0.0903 -0.3932 -0.4940
15003TIP3    H166500   5.621   0.136  13.523 -0.3609 -1.2651 -0.1884
15003TIP3    H266501   5.745   0.050  13.541  1.0305  0.5912 -0.6233
15004TIP3   OH266502   1.538   5.404  16.571  0.5469  0.3152 -0.3782
15004TIP3    H166503   1.515   5.379  16.661  0.0800  0.4315 -0.4616
15004TIP3    H266504   1.488   5.483  16.555  1.3160  0.7981 -0.4347
15005TIP3   OH266505   0.848   0.387   4.804  0.2236  0.1786  0.0313
15005TIP3    H166506   0.864   0.311   4.748  1.6276  0.1610  0.4164
15005TIP3    H266507   0.934   0.411   4.837 -0.0950  2.3940 -0.6194
15006TIP3   OH266508   6.263   5.672   5.017 -0.3167 -0.4188  0.2703
15006TIP3    H166509   6.174   5.687   5.048 -0.6814 -0.3298 -0.7724
15006TIP3    H266510   6.316   5.672   5.096 -1.4866 -2.4563  1.1286
15007TIP3   OH266511   3.826   3.733  12.522 -0.0288 -0.0024 -0.2640
15007TIP3    H166512   3.907   3.754  12.569  1.5501 -0.5914 -2.5476
15007TIP3    H266513   3.761   3.794  12.558  2.1542  2.5723 -0.3533
15008TIP3   OH266514   3.509   5.224  16.259  0.1502 -0.1397  0.6073
15008TIP3    H166515   3.456   5.202  16.181  2.4168  0.9122 -1.3619
15008TIP3    H266516   3.501   5.147  16.316 -0.2908 -1.6969 -1.4241
15009TIP3   OH266517   0.382   5.713   2.571 -0.3243  0.4614  0.0992
15009TIP3    H166518   0.384   5.731   2.477 -2.5728  0.6111  0.0283
15009TIP3    H266519   0.299   5.668   2.585  0.2716 -0.1544  1.9317
15010TIP3   OH266520   6.457   0.901   3.421 -0.0724 -0.6694 -0.2283
15010TIP3    H166521   6.371   0.891   3.379  1.2790 -2.9012 -2.8351
15010TIP3    H266522   6.452   0.847   3.500 -1.1828 -0.3471 -0.0615
15011TIP3   OH266523   2.119   6.191   3.629  0.1062 -0.4861 -0.0045
15011TIP3    H166524   2.207   6.190   3.593  0.2837 -2.3509  0.3695
15011TIP3    H266525   2.131   6.185   3.723 -0.3982  2.9263  0.4110
15012TIP3   OH266526   2.590   6.278   4.340  0.5023 -0.0702 -0.4811
15012TIP3    H166527   2.519   6.222   4.372  1.4748 -0.8785  0.3291
15012TIP3    H266528   2.550   6.364   4.330 -0.0609  0.0913  2.3295
15013TIP3   OH266529   4.288   5.243   1.347  0.5221 -0.2578 -0.1279
15013TIP3    H166530   4.363   5.268   1.401  0.3866  0.6161 -0.3442
15013TIP3    H266531   4.322   5.175   1.289  1.6454  1.3817 -1.4838
15014TIP3   OH266532   4.340   3.336   0.803  0.1802  0.1966 -0.3265
15014TIP3    H166533   4.304   3.251   0.830  0.0803  0.7918  1.5626
15014TIP3    H266534   4.265   3.396   0.805  0.5823  0.6974  0.1438
15015TIP3   OH266535   2.844   1.906   2.242 -0.6202 -0.0338  0.5732
15015TIP3    H166536   2.881   1.987   2.277 -0.2960  0.0756 -0.0172
15015TIP3    H266537   2.797   1.867   2.316  1.8293 -0.9004  1.7638
15016TIP3   OH266538   3.532   2.661  12.837 -0.0750 -0.3728  0.2236
15016TIP3    H166539   3.446   2.624  12.818 -0.7297 -0.0010  2.1993
15016TIP3    H266540   3.534   2.742  12.787 -1.3047  0.1005  0.8828
15017TIP3   OH266541   1.906   4.376  15.649 -0.2742 -0.7330  0.0508
15017TIP3    H166542   1.817   4.409  15.636  0.3032  0.2993 -1.6571
15017TIP3    H266543   1.894   4.289  15.688 -2.0750 -1.0793 -1.1314
15018TIP3   OH266544   2.351   3.053   1.151  0.6076 -0.2625  0.3914
15018TIP3    H166545   2.305   3.116   1.096  0.3008 -0.7951  0.0306
15018TIP3    H266546   2.413   3.106   1.201 -0.0891  0.4078  0.5665
15019TIP3   OH266547   3.789   2.082   5.693  0.0520  0.2742  0.0154
15019TIP3    H166548   3.695   2.068   5.708  0.2692 -0.4007  0.8463
15019TIP3    H266549   3.797   2.174   5.670 -0.5534  0.9541  2.3204
15020TIP3   OH266550   5.395   0.719   0.774 -0.0689  0.3845 -0.3565
15020TIP3    H166551   5.396   0.756   0.863 -3.4826 -0.4747  0.1646
15020TIP3    H266552   5.373   0.793   0.718  2.1439  0.9403 -0.5940
15021TIP3   OH266553   2.779   0.001  10.713  0.1690 -0.2355 -0.1085
15021TIP3    H166554   2.702  -0.029  10.762  0.9901 -1.7276  0.3234
15021TIP3    H266555   2.746   0.072  10.657 -1.1809  0.2152  1.2081
15022TIP3   OH266556   2.782   1.304  16.536 -0.7346  0.5212  0.0952
15022TIP3    H166557   2.692   1.310  16.504 -0.9149  0.9038  0.6439
15022TIP3    H266558   2.832   1.272  16.462 -1.3961 -0.1034 -0.0948
15023TIP3   OH266559   5.854   6.053   3.515  0.5465 -0.3509 -0.2337
15023TIP3    H166560   5.819   5.979   3.565 -0.3666  0.1096 -0.1563
15023TIP3    H266561   5.814   6.044   3.428  0.5701 -0.0536 -0.2771
15024TIP3   OH266562   3.250   6.049   1.717  0.0828  0.0068  0.0356
15024TIP3    H166563   3.273   6.105   1.791  0.4562  0.5656 -0.4940
15024TIP3    H266564   3.194   6.104   1.661  3.2680  1.1699 -2.2826
15025TIP3   OH266565   0.001   1.363  13.253 -0.6521  0.2176 -0.9396
15025TIP3    H166566   0.071   1.351  13.189  0.1951 -1.9421  0.2954
15025TIP3    H266567  -0.077   1.327  13.212 -0.6308  0.8506 -1.5631
15026TIP3   OH266568   1.291   3.980   5.230 -0.1259  0.1247  0.4870
15026TIP3    H166569   1.274   3.957   5.321 -2.0534 -0.3878  0.0506
15026TIP3    H266570   1.366   4.040   5.234 -0.1550  0.0984  2.3920
15027TIP3   OH266571   5.982   3.935  11.319  0.6201  0.0546 -0.0629
15027TIP3    H166572   5.947   3.973  11.238 -0.6122 -0.3431  0.2643
15027TIP3    H266573   5.971   3.840  11.308  1.6701 -0.0934  0.0349
15028TIP3   OH266574   6.756   0.979  11.192 -0.1327  0.0898  0.3460
15028TIP3    H166575   6.822   1.034  11.150 -0.3922  0.2191  0.0995
15028TIP3    H266576   6.733   1.026  11.272  0.8301 -0.4756  0.9709
15029TIP3   OH266577   0.761   6.504   1.468  0.0177  0.0959 -0.0568
15029TIP3    H166578   0.728   6.522   1.380 -3.5309  0.7146  1.2179
15029TIP3    H266579   0.706   6.432   1.499  1.8850 -0.8107  1.3364
15030TIP3   OH266580   1.280   3.027  12.087 -0.4788 -0.6033  0.1606
15030TIP3    H166581   1.292   3.077  12.168  0.2327 -1.9809  0.9566
15030TIP3    H266582   1.203   3.066  12.046  0.6892  1.8314  0.1575
15031TIP3   OH266583   5.595   1.024   3.669 -0.1837  0.2829  0.9910
15031TIP3    H166584   5.603   1.036   3.574  1.1539 -0.9737  0.8996
15031TIP3    H266585   5.547   0.942   3.679 -3.2679  1.9981  1.5038
15032TIP3   OH266586   4.526   4.256   6.589 -0.0966  0.0524 -0.0733
15032TIP3    H166587   4.585   4.181   6.586  1.5979  1.3202  0.1647
15032TIP3    H266588   4.442   4.219   6.615  0.5043 -1.8611 -0.6918
15033TIP3   OH266589   3.662   2.987   1.969  0.0341  0.1361  0.8042
15033TIP3    H166590   3.700   2.918   2.022 -0.4572 -1.6927 -1.0989
15033TIP3    H266591   3.708   2.982   1.885 -2.1368 -0.0531 -0.4690
15034TIP3   OH266592   5.337   5.177   4.909  0.2609  0.0734  0.7696
15034TIP3    H166593   5.337   5.103   4.848  0.0674 -2.2596  3.4010
15034TIP3    H266594   5.267   5.234   4.877 -1.2047 -2.0733 -0.0806
15035TIP3   OH266595   2.395   4.868   4.067  0.0259  0.2418 -0.5329
15035TIP3    H166596   2.423   4.957   4.046  1.3922 -0.8059 -3.8095
15035TIP3    H266597   2.461   4.837   4.129 -0.6537  1.5413  0.9112
15036TIP3   OH266598   3.793   5.591  13.395 -0.6382 -0.1881  0.2714
15036TIP3    H166599   3.869   5.578  13.453 -1.6934 -0.7330  1.5991
15036TIP3    H266600   3.796   5.684  13.373  0.5445 -0.2464  0.1024
15037TIP3   OH266601   0.648   3.631   0.090 -0.0059  0.2519 -0.1989
15037TIP3    H166602   0.630   3.613   0.182 -0.6442  0.6189 -0.2415
15037TIP3    H266603   0.654   3.727   0.086  1.4612  0.1673 -0.2896
15038TIP3   OH266604   6.809   3.126  14.597  0.1103 -0.0491  0.6407
15038TIP3    H166605   6.890   3.146  14.551 -0.7207  1.7481 -0.1675
15038TIP3    H266606   6.837   3.105  14.686  1.4513  0.9709  0.4948
15039TIP3   OH266607   5.287   3.206  11.633  0.3190 -0.4902 -0.2304
15039TIP3    H166608   5.241   3.213  11.550  1.5571  0.5551 -0.8783
15039TIP3    H266609   5.262   3.285  11.681  1.2913  0.0237 -0.5378
15040TIP3   OH266610   5.325   1.059   3.909  0.4227  0.3963 -0.0784
15040TIP3    H166611   5.404   1.083   3.861 -0.2421 -0.1122 -1.4755
15040TIP3    H266612   5.264   1.029   3.842 -0.9948  0.8364  0.9617
15041TIP3   OH266613   1.631   0.288   1.161 -0.4578 -0.4551  0.1830
15041TIP3    H166614   1.692   0.332   1.102 -0.6182 -2.5221 -1.6954
15041TIP3    H266615   1.577   0.358   1.196  1.1368  1.1191 -0.3381
15042TIP3   OH266616   3.292   2.601  16.804  0.0537 -0.2737  0.3657
15042TIP3    H166617   3.297   2.697  16.802  0.3073 -0.2801  0.6268
15042TIP3    H266618   3.369   2.574  16.853 -0.2434 -0.5947  0.6593
15043TIP3   OH266619   6.160   5.657  15.045 -0.2026  0.2378  0.1417
15043TIP3    H166620   6.072   5.673  15.079 -0.3064  0.9605 -0.4383
15043TIP3    H266621   6.217   5.713  15.098 -0.4087  1.6453 -1.0524
15044TIP3   OH266622   6.785   4.609   6.161  0.2980 -0.0705  0.5257
15044TIP3    H166623   6.807   4.517   6.175  1.7829  0.0084 -1.0015
15044TIP3    H266624   6.792   4.649   6.248 -2.0190 -1.6534  1.5423
15045TIP3   OH266625   6.143   4.333  14.686  0.4533  0.3490 -0.3258
15045TIP3    H166626   6.160   4.309  14.777  1.2956  1.3316 -0.2077
15045TIP3    H266627   6.085   4.409  14.692  0.5631  0.4561 -0.6027
15046TIP3   OH266628   0.788   1.252   4.272 -0.4421  0.3068  0.2599
15046TIP3    H166629   0.698   1.231   4.300 -0.4448 -0.8270 -0.5306
15046TIP3    H266630   0.792   1.221   4.181  1.4630 -1.9900  1.0258
15047TIP3   OH266631   4.539   3.778   0.983  0.1010 -0.6585  0.1132
15047TIP3    H166632   4.594   3.831   1.041  0.2345 -0.3152 -0.3210
15047TIP3    H266633   4.496   3.716   1.041  1.7082 -1.6026  0.3557
15048TIP3   OH266634   2.764   3.044  16.487  0.2223 -0.0470 -0.1358
15048TIP3    H166635   2.756   3.139  16.479  1.2201  0.0249 -0.4647
15048TIP3    H266636   2.728   3.009  16.405 -1.0268 -0.0157  0.3863
15049TIP3   OH266637   1.865   5.281   3.685 -0.1054 -0.4843  0.1539
15049TIP3    H166638   1.847   5.360   3.634  0.7480 -1.2280 -1.3682
15049TIP3    H266639   1.950   5.251   3.654 -0.4378 -2.0394  0.6572
15050TIP3   OH266640   0.140   1.440   1.832  0.9406 -0.2965 -0.0034
15050TIP3    H166641   0.109   1.527   1.804 -0.1428 -0.7412 -0.2400
15050TIP3    H266642   0.185   1.405   1.756 -3.8514 -2.4194 -2.3100
15051TIP3   OH266643   1.057   0.349   2.859  0.3857  0.3000  0.0837
15051TIP3    H166644   1.143   0.389   2.864  0.3338  0.5996 -1.2118
15051TIP3    H266645   1.063   0.285   2.788 -0.7155  0.9878 -0.6520
15052TIP3   OH266646   2.958   1.701  10.765  0.4799  0.0467  0.5067
15052TIP3    H166647   2.996   1.653  10.691  0.1824  0.2105  0.2447
15052TIP3    H266648   2.943   1.789  10.731 -0.4542 -0.1074  0.5013
15053TIP3   OH266649   5.404   3.315  16.156  0.2593  0.2211 -0.6775
15053TIP3    H166650   5.324   3.339  16.111 -0.4652 -0.0658  0.4159
15053TIP3    H266651   5.436   3.397  16.194 -0.2478  0.1188 -0.0056
15054TIP3   OH266652   5.221   1.831  15.214 -0.0521  0.3061  0.6618
15054TIP3    H166653   5.244   1.744  15.182  0.7202  0.0009  1.9878
15054TIP3    H266654   5.273   1.842  15.293  0.7563  2.4538 -0.0918
15055TIP3   OH266655   3.044   0.981   1.074 -0.5597 -0.5536 -0.0007
15055TIP3    H166656   3.022   0.936   0.992  0.0932 -2.0503  0.6223
15055TIP3    H266657   3.065   1.071   1.046 -1.3609 -0.7555 -1.3403
15056TIP3   OH266658   4.849   4.144  13.932 -0.3249  0.6755  0.6095
15056TIP3    H166659   4.781   4.123  13.868  0.7666  1.0946 -0.7482
15056TIP3    H266660   4.821   4.100  14.012 -0.1618 -2.6244 -0.9750
15057TIP3   OH266661   5.269   3.918   3.080 -0.0613  0.4991  0.0476
15057TIP3    H166662   5.311   3.902   2.996  2.1008  1.3449  0.8966
15057TIP3    H266663   5.210   3.992   3.064 -0.7181 -0.2230 -1.0024
15058TIP3   OH266664   0.995   5.346   6.163  0.3134  0.1616  0.1159
15058TIP3    H166665   1.010   5.293   6.242 -2.5422 -1.0769 -0.0442
15058TIP3    H266666   1.081   5.383   6.142  2.0937 -2.9146  1.3342
15059TIP3   OH266667   0.476   2.198  16.101  0.3256  0.4039  0.6278
15059TIP3    H166668   0.540   2.133  16.073  1.3277  1.7541 -0.3502
15059TIP3    H266669   0.524   2.251  16.166 -0.3811  0.3667  1.1922
15060TIP3   OH266670   3.047   0.696   4.837  0.7337 -0.1858  0.5843
15060TIP3    H166671   3.077   0.757   4.904  1.2884  0.5191 -0.2815
15060TIP3    H266672   3.038   0.749   4.758 -1.1676 -0.7311  0.3915
15061TIP3   OH266673   3.172   3.968  12.594  0.0403  0.2272  0.1354
15061TIP3    H166674   3.095   3.983  12.649  0.5631 -1.0094  1.2477
15061TIP3    H266675   3.153   3.887  12.548  0.3708  0.3093 -0.1491
15062TIP3   OH266676   6.404   1.907   5.214  0.3189  0.0666 -0.6940
15062TIP3    H166677   6.331   1.964   5.239 -0.2244 -1.0267  0.3083
15062TIP3    H266678   6.382   1.877   5.126 -0.5738 -0.4428 -0.3065
15063TIP3   OH266679   4.949   5.811   6.506  0.7612 -0.2486  0.6943
15063TIP3    H166680   4.971   5.848   6.420  0.2842  1.2689  1.2064
15063TIP3    H266681   5.010   5.853   6.566 -0.0557  0.0098  1.3526
15064TIP3   OH266682   6.613   3.808  14.539  0.5985  0.1521  0.8152
15064TIP3    H166683   6.684   3.813  14.602  0.1192  0.3903  1.3412
15064TIP3    H266684   6.656   3.787  14.456  1.1189 -1.3502  1.4386
15065TIP3   OH266685   1.292   4.357  16.339  0.5383 -0.3214 -0.0680
15065TIP3    H166686   1.235   4.283  16.319  0.5559 -0.1138 -0.8917
15065TIP3    H266687   1.238   4.414  16.395  0.7386 -1.2398  1.1159
15066TIP3   OH266688   2.901   2.352   1.546 -0.2606  0.4662  0.2162
15066TIP3    H166689   2.848   2.371   1.623  0.6638 -0.2651  1.0557
15066TIP3    H266690   2.874   2.264   1.520  0.3555  0.1926  0.4964
15067TIP3   OH266691   0.593   3.697   0.817 -0.5126 -0.2626  0.4443
15067TIP3    H166692   0.632   3.629   0.763  0.3451  0.4818  0.1088
15067TIP3    H266693   0.626   3.680   0.905 -0.0398 -0.0915  0.3013
15068TIP3   OH266694   4.554   5.238  13.513  0.4648 -0.7866  0.1331
15068TIP3    H166695   4.483   5.246  13.449 -1.4879  0.4117  2.3025
15068TIP3    H266696   4.532   5.159  13.563  0.5715 -0.3166  0.9235
15069TIP3   OH266697   0.320   1.169  11.567  0.0805 -0.3606 -0.4097
15069TIP3    H166698   0.353   1.168  11.478 -0.9162 -0.8965 -0.7905
15069TIP3    H266699   0.397   1.154  11.622  1.2072  2.6758 -0.9616
15070TIP3   OH266700   4.697   4.686   2.395 -0.2583  0.3860 -0.0044
15070TIP3    H166701   4.626   4.635   2.357 -0.4403  0.5162  0.1622
15070TIP3    H266702   4.761   4.695   2.324 -0.8179  1.0485 -0.4306
15071TIP3   OH266703   0.885   5.127   2.403  0.0147  0.1369 -0.0786
15071TIP3    H166704   0.861   5.179   2.327 -1.6995  0.7430  0.8317
15071TIP3    H266705   0.974   5.156   2.424  0.8465 -0.6109 -2.2572
15072TIP3   OH266706   4.527   0.104   3.348  0.1197 -0.2343 -0.0477
15072TIP3    H166707   4.476   0.180   3.378  1.6464  1.2012 -0.9276
15072TIP3    H266708   4.572   0.073   3.426  0.0224  0.2153  0.1918
15073TIP3   OH266709   3.011   3.471   1.213  0.0806 -0.0918 -0.2172
15073TIP3    H166710   3.052   3.547   1.173  0.7757  0.1248  0.8565
15073TIP3    H266711   2.945   3.442   1.150  0.2554  1.0066 -0.9148
15074TIP3   OH266712   3.895   1.838   1.856 -0.4077  0.2637  0.2505
15074TIP3    H166713   3.934   1.754   1.879 -0.3925 -0.2330 -1.4429
15074TIP3    H266714   3.969   1.899   1.851 -0.3088  0.1732  0.6215
15075TIP3   OH266715   6.770   4.509   5.697  0.3759 -0.1640 -0.6461
15075TIP3    H166716   6.717   4.449   5.749  0.1547 -0.6589 -1.4282
15075TIP3    H266717   6.847   4.526   5.751 -0.3108  0.1272  0.2688
15076TIP3   OH266718   1.711   0.818   4.162 -0.0469  0.1338  0.0620
15076TIP3    H166719   1.718   0.872   4.241 -0.2355 -1.2676  1.0612
15076TIP3    H266720   1.781   0.754   4.170 -0.1800 -0.1332 -0.8203
15077TIP3   OH266721   4.277   1.099  15.394 -0.0091  0.0744  0.0451
15077TIP3    H166722   4.320   1.021  15.358 -0.6385 -0.1087 -0.3207
15077TIP3    H266723   4.222   1.131  15.323 -0.0392  0.6417  0.3193
15078TIP3   OH266724   2.226   2.292  17.183  0.4454 -0.1722  0.4049
15078TIP3    H166725   2.252   2.201  17.169 -0.6021 -0.3665 -0.3385
15078TIP3    H266726   2.309   2.340  17.184  0.9235 -0.9127 -0.9145
15079TIP3   OH266727   1.214   3.393  11.755 -0.0414  0.3790  0.1609
15079TIP3    H166728   1.153   3.344  11.809 -0.6807  0.7291 -0.2273
15079TIP3    H266729   1.167   3.473  11.732 -0.3982 -0.4133 -2.1425
15080TIP3   OH266730   5.442   4.235  11.952  0.6360  0.2025  0.1984
15080TIP3    H166731   5.365   4.182  11.975 -1.3025  2.1234 -1.4452
15080TIP3    H266732   5.481   4.259  12.036 -0.4126 -0.9907  1.0734
15081TIP3   OH266733   3.272   6.073   3.698  0.0073  0.1335  0.4341
15081TIP3    H166734   3.352   6.091   3.747 -0.5723  0.6365  1.2277
15081TIP3    H266735   3.238   6.159   3.676 -1.0159 -0.0203  1.3024
15082TIP3   OH266736   2.035   0.931   1.188 -0.1488 -0.3412  0.1973
15082TIP3    H166737   2.009   1.011   1.142  0.0222 -0.5862 -0.3310
15082TIP3    H266738   2.125   0.948   1.217  0.0908 -0.5616 -0.4172
15083TIP3   OH266739   2.615   3.961  16.149 -0.4098  0.5198  0.1335
15083TIP3    H166740   2.658   4.005  16.076 -0.1372 -0.0928 -0.0813
15083TIP3    H266741   2.639   3.869  16.139  0.1260  0.5017  1.3254
15084TIP3   OH266742   6.677   2.307   4.103  0.0120 -0.1754 -0.3340
15084TIP3    H166743   6.636   2.383   4.145 -0.3935 -0.1531 -0.7548
15084TIP3    H266744   6.771   2.322   4.112 -0.0546 -0.3816  0.9372
15085TIP3   OH266745   4.602   2.864   2.227  0.5325 -0.5895 -0.2251
15085TIP3    H166746   4.535   2.820   2.280  3.0302 -2.2194  1.8660
15085TIP3    H266747   4.602   2.817   2.144 -1.3119 -0.0984 -0.5516
15086TIP3   OH266748   4.412   2.842  13.655  0.1023 -0.6254  0.2242
15086TIP3    H166749   4.449   2.776  13.596  1.8425 -0.8019  1.4113
15086TIP3    H266750   4.446   2.925  13.623  3.1122 -0.9199  2.2475
15087TIP3   OH266751   5.437   4.668  13.321  0.3025 -0.2612  0.2126
15087TIP3    H166752   5.406   4.586  13.360 -2.5123 -0.7090 -2.5700
15087TIP3    H266753   5.515   4.642  13.271 -0.6218 -1.3075 -0.7349
15088TIP3   OH266754   4.859   5.452  13.797 -0.0163 -0.5149 -0.3781
15088TIP3    H166755   4.938   5.470  13.747  0.0538 -2.1417 -0.9027
15088TIP3    H266756   4.789   5.447  13.732 -0.4061  0.0368 -0.0107
15089TIP3   OH266757   1.659   5.723  12.464 -0.1940 -0.2910  0.0059
15089TIP3    H166758   1.658   5.750  12.372  1.8792  0.6511  0.2014
15089TIP3    H266759   1.737   5.668  12.472 -0.2270 -0.1855  1.2505
15090TIP3   OH266760   5.135   4.733  15.496 -0.1042 -0.3094 -0.5341
15090TIP3    H166761   5.071   4.793  15.536 -0.6018 -0.7357 -0.6856
15090TIP3    H266762   5.083   4.660  15.465  0.5129 -0.8458 -0.3169
15091TIP3   OH266763   5.095   6.660   0.110 -0.0138 -0.0838  0.0696
15091TIP3    H166764   5.162   6.662   0.178 -0.9857  0.0553  1.0510
15091TIP3    H266765   5.023   6.611   0.148 -1.6236  2.2044  0.1648
15092TIP3   OH266766   3.056   1.490  11.267  0.0298  0.1819  0.2722
15092TIP3    H166767   3.067   1.440  11.186 -0.2847  1.3445 -0.5198
15092TIP3    H266768   3.140   1.481  11.313 -0.1341 -1.3307  0.3322
15093TIP3   OH266769   0.281   4.409   5.944 -0.7160 -0.0196 -0.3318
15093TIP3    H166770   0.305   4.404   5.852  0.1117 -0.2838 -0.1168
15093TIP3    H266771   0.214   4.342   5.955 -2.1550  1.2363 -1.1069
15094TIP3   OH266772   6.690   5.539  11.066  0.0020 -0.1062 -0.1262
15094TIP3    H166773   6.611   5.487  11.072 -1.3707  1.4122 -3.0540
15094TIP3    H266774   6.745   5.494  11.002  0.1121  0.4812 -0.4553
15095TIP3   OH266775   0.421   6.199  16.416 -0.0893 -0.7536  0.2398
15095TIP3    H166776   0.333   6.224  16.387 -0.7151 -1.4796  1.4524
15095TIP3    H266777   0.426   6.105  16.400  0.9266 -0.5434 -0.9064
15096TIP3   OH266778   1.015   6.141  14.695  0.0798  0.0595 -0.4692
15096TIP3    H166779   1.097   6.155  14.648 -1.1146  1.5656 -2.2446
15096TIP3    H266780   0.947   6.157  14.629 -1.6684  0.8862  1.4470
15097TIP3   OH266781   1.858   5.280   5.675  0.2834  0.2773  0.8342
15097TIP3    H166782   1.890   5.232   5.752 -1.1860  0.0440  1.3403
15097TIP3    H266783   1.867   5.218   5.603 -0.0836 -0.1967  1.1841
15098TIP3   OH266784   6.382   2.487  11.961  0.1814 -0.1654  0.2785
15098TIP3    H166785   6.399   2.393  11.965 -2.7417 -0.8010  0.6936
15098TIP3    H266786   6.366   2.505  11.868 -0.3413 -0.3286  0.3343
15099TIP3   OH266787   6.097   0.938   2.836 -0.6617 -0.2917 -0.4139
15099TIP3    H166788   6.085   1.029   2.865  1.2808  0.1414 -0.7955
15099TIP3    H266789   6.022   0.921   2.779 -0.8984  1.1890 -0.5929
15100TIP3   OH266790   1.711   1.492  12.685 -0.4977 -0.6006  0.3435
15100TIP3    H166791   1.696   1.409  12.639 -0.7270 -0.4123  0.0795
15100TIP3    H266792   1.704   1.559  12.617  1.8866 -0.5058  0.1005
15101TIP3   OH266793   2.298   3.623  11.838 -0.4988 -0.1089  0.5946
15101TIP3    H166794   2.271   3.632  11.747  0.6593 -1.0761  0.1374
15101TIP3    H266795   2.250   3.547  11.870  1.3666 -1.6839 -0.1508
15102TIP3   OH266796   6.225   6.191  14.287 -0.1418 -0.7922  0.0903
15102TIP3    H166797   6.278   6.246  14.229 -1.2558  1.1411  0.8170
15102TIP3    H266798   6.212   6.110  14.238 -1.0184  0.7418 -2.4083
15103TIP3   OH266799   5.187   5.325  11.292 -0.5666 -0.2363  0.2201
15103TIP3    H166800   5.248   5.372  11.236 -1.6546 -0.5462 -1.3078
15103TIP3    H266801   5.215   5.345  11.381  0.9491  0.6568 -0.4198
15104TIP3   OH266802   6.714   3.083   4.000  0.0367 -0.0964 -0.4522
15104TIP3    H166803   6.800   3.041   3.998  0.0888 -0.0086 -2.4042
15104TIP3    H266804   6.726   3.160   4.055  1.5204  0.4740 -1.5028
15105TIP3   OH266805   1.349   2.337  16.064  0.4295  0.5894  0.2681
15105TIP3    H166806   1.320   2.245  16.066  0.7538  0.4890  0.5381
15105TIP3    H266807   1.277   2.385  16.104  1.4012  0.0988  2.8146
15106TIP3   OH266808   4.043   2.062   5.367 -0.0055  0.0792  0.0248
15106TIP3    H166809   4.108   2.106   5.312  0.2277 -2.2716 -1.7350
15106TIP3    H266810   3.982   2.022   5.305 -0.6430 -1.3785  1.5045
15107TIP3   OH266811   2.564   5.015  13.488 -0.8877  0.0364 -0.2166
15107TIP3    H166812   2.539   5.009  13.396 -1.9389  0.6848  0.0169
15107TIP3    H266813   2.577   5.108  13.504  0.2607 -0.1577  0.0519
15108TIP3   OH266814   1.897   1.151   3.554 -0.2868 -0.0940  0.0610
15108TIP3    H166815   1.935   1.238   3.566  0.3768 -0.3701  0.0148
15108TIP3    H266816   1.959   1.106   3.496 -1.0801 -0.3060 -0.6331
15109TIP3   OH266817   6.719   1.717   2.657  0.0750 -0.5025 -0.0213
15109TIP3    H166818   6.681   1.803   2.678 -0.5237 -0.2230 -2.0200
15109TIP3    H266819   6.795   1.737   2.603 -0.4106 -1.2118 -1.0088
15110TIP3   OH266820   2.192   3.549   5.240  0.0355  0.7209 -0.7603
15110TIP3    H166821   2.213   3.458   5.219 -1.6524 -0.0981  0.7566
15110TIP3    H266822   2.256   3.574   5.306 -1.7351 -0.7940  1.7388
15111TIP3   OH266823   2.159   0.883   3.169 -0.0733  0.0621  0.1158
15111TIP3    H166824   2.226   0.927   3.221 -0.6646 -0.5134  1.3960
15111TIP3    H266825   2.107   0.955   3.132 -1.1831  0.5495  2.3914
15112TIP3   OH266826   5.980   6.190   4.405  0.1460 -0.6581  0.2996
15112TIP3    H166827   5.957   6.134   4.479 -0.3453  1.4378  1.8081
15112TIP3    H266828   5.897   6.227   4.376  0.1030 -2.6201 -2.3913
15113TIP3   OH266829   1.637   2.207  14.599 -0.1248  0.3134  0.0562
15113TIP3    H166830   1.687   2.261  14.660  0.0235  0.1831  0.0538
15113TIP3    H266831   1.671   2.118  14.614 -0.7734  0.1330  0.4701
15114TIP3   OH266832   1.705   1.304   5.185  0.7402 -0.1186 -0.1098
15114TIP3    H166833   1.635   1.362   5.155  1.0380  0.7275  0.7493
15114TIP3    H266834   1.672   1.267   5.267  1.2142  0.1598  0.2174
15115TIP3   OH266835   4.304   2.265   1.229 -0.4930  0.2135  0.2373
15115TIP3    H166836   4.265   2.286   1.144 -0.9388 -0.1157  0.3595
15115TIP3    H266837   4.274   2.176   1.248  1.2488 -0.5129 -0.2037
15116TIP3   OH266838   1.070   1.948   5.248  0.2014  0.3877  0.2276
15116TIP3    H166839   1.129   1.905   5.187  0.1032 -0.3807  0.6707
15116TIP3    H266840   1.083   1.903   5.331 -0.1049  1.0268  0.6308
15117TIP3   OH266841   3.330   0.555  11.300 -0.3202 -0.2434 -0.7520
15117TIP3    H166842   3.284   0.491  11.353 -0.0152  1.1605  1.3134
15117TIP3    H266843   3.423   0.541  11.321 -0.1449 -0.0456 -1.3737
15118TIP3   OH266844   2.825   3.373  15.367  0.6065  0.5305  0.3253
15118TIP3    H166845   2.736   3.376  15.332  0.8835  1.6721 -0.3282
15118TIP3    H266846   2.832   3.453  15.420  2.0913  1.9334 -1.8440
15119TIP3   OH266847   1.011   6.684  12.462  0.6047  0.2516 -0.4621
15119TIP3    H166848   0.995   6.590  12.456  1.8488  0.0108 -0.1381
15119TIP3    H266849   1.068   6.695  12.537  0.0795  1.3324 -0.1979
15120TIP3   OH266850   0.431   4.884   0.191  0.4022  0.1765 -0.3000
15120TIP3    H166851   0.339   4.859   0.181  0.6275 -0.2003 -1.6391
15120TIP3    H266852   0.479   4.801   0.182  0.9163  0.4884 -0.4625
15121TIP3   OH266853   5.345   4.499  11.355  0.1510  0.0218  0.5551
15121TIP3    H166854   5.275   4.463  11.300  0.4048 -0.3348  0.4640
15121TIP3    H266855   5.425   4.481  11.307  0.3586 -0.1078  0.9461
15122TIP3   OH266856   0.168   0.889  12.658  0.0501 -0.4242  0.1916
15122TIP3    H166857   0.185   0.977  12.693  1.5087 -0.9748  0.9409
15122TIP3    H266858   0.117   0.904  12.579 -0.7122  1.0348  0.9228
15123TIP3   OH266859   6.012   0.398   2.574 -0.1332 -0.1872 -0.0452
15123TIP3    H166860   5.974   0.313   2.551  0.0769  0.1565 -1.7725
15123TIP3    H266861   5.942   0.444   2.621 -0.5668 -0.9465  0.0651
15124TIP3   OH266862   6.130   5.764  14.380 -0.3516 -0.1011 -0.6980
15124TIP3    H166863   6.073   5.744  14.454 -0.7527 -0.4685 -1.1029
15124TIP3    H266864   6.176   5.682  14.361  0.4803  0.2394 -0.2442
15125TIP3   OH266865   0.353   4.661  16.867  0.5574 -0.0746  0.6129
15125TIP3    H166866   0.288   4.687  16.932 -1.4824 -0.0821 -1.2886
15125TIP3    H266867   0.435   4.699  16.898 -0.4937  0.6503  2.6848
15126TIP3   OH266868   5.413   1.459  16.062 -0.4388  0.2212  0.4203
15126TIP3    H166869   5.454   1.378  16.032 -3.2116 -0.8561 -0.6996
15126TIP3    H266870   5.357   1.433  16.135 -0.0385  1.4741  1.2153
15127TIP3   OH266871   0.808   2.935   5.858  0.4559  0.4514  0.6503
15127TIP3    H166872   0.835   3.004   5.798 -0.6866  0.1663 -0.2183
15127TIP3    H266873   0.713   2.930   5.847  0.3902 -0.4758  1.5547
15128TIP3   OH266874   3.014   0.464   5.251 -0.3032  0.4319  0.8180
15128TIP3    H166875   2.979   0.490   5.166  1.0033 -0.7476 -0.1191
15128TIP3    H266876   2.938   0.468   5.310 -1.2329  1.2561 -0.3824
15129TIP3   OH266877   1.802   4.408  14.112  0.2103 -0.1298  0.1743
15129TIP3    H166878   1.798   4.496  14.073  0.8665  0.8545  2.2009
15129TIP3    H266879   1.874   4.365  14.065  0.0301  0.4730 -0.6995
15130TIP3   OH266880   3.108   4.409  13.738  0.2465 -0.3176 -0.0295
15130TIP3    H166881   3.058   4.331  13.762 -0.3761 -0.2960 -1.1790
15130TIP3    H266882   3.056   4.482  13.773 -0.7988 -0.2705 -1.5897
15131TIP3   OH266883   3.369   3.346  14.432  0.9416 -0.2203 -0.1283
15131TIP3    H166884   3.435   3.325  14.498  1.5788  0.7945 -0.4213
15131TIP3    H266885   3.303   3.277  14.442  1.7028 -0.8701  0.6263
15132TIP3   OH266886   6.392   4.458  14.420  0.2213  0.1324 -0.0456
15132TIP3    H166887   6.478   4.428  14.390  0.4938  0.1155  0.7452
15132TIP3    H266888   6.410   4.510  14.498 -0.5578 -0.6196  0.6593
15133TIP3   OH266889   4.080   6.261   2.326 -0.1665  0.8497 -0.0904
15133TIP3    H166890   4.078   6.223   2.238 -0.0412  1.4287 -0.3483
15133TIP3    H266891   4.016   6.332   2.322  1.2656  2.1634 -0.3177
15134TIP3   OH266892   4.745   6.602  14.936  0.3062  0.4632 -0.6433
15134TIP3    H166893   4.833   6.579  14.905  0.4465  0.5912 -0.3432
15134TIP3    H266894   4.726   6.686  14.894 -0.2107 -0.1730 -1.7486
15135TIP3   OH266895   4.848   2.043   5.098  0.1700 -0.4025  0.4057
15135TIP3    H166896   4.927   2.051   5.044 -1.5481  0.8348 -2.1369
15135TIP3    H266897   4.859   2.109   5.166  1.0649  0.2246 -0.3123
15136TIP3   OH266898   2.530   1.937  15.861  0.1511 -0.1990 -0.1359
15136TIP3    H166899   2.620   1.924  15.830  0.0159  0.5631 -0.8996
15136TIP3    H266900   2.540   1.981  15.945  0.5737  4.0267 -2.0956
15137TIP3   OH266901   1.871   6.445  12.986 -0.2482 -0.8619  0.6669
15137TIP3    H166902   1.908   6.359  13.008 -2.5335 -1.4780  2.4975
15137TIP3    H266903   1.894   6.500  13.061 -0.8373 -0.5607  0.6252
15138TIP3   OH266904   0.379   5.424  12.090  0.0909 -0.4639  0.1813
15138TIP3    H166905   0.317   5.356  12.065  0.8682 -0.4672 -1.9592
15138TIP3    H266906   0.329   5.482  12.147 -0.9163 -2.1716  1.1312
15139TIP3   OH266907   5.499   0.018  12.133 -0.3818 -0.6127 -0.1772
15139TIP3    H166908   5.544   0.051  12.055 -0.6849 -2.0343 -1.0049
15139TIP3    H266909   5.438   0.088  12.158  2.0535  1.2842  0.8587
15140TIP3   OH266910   1.969   3.075   0.448 -0.0260  0.1585  0.3286
15140TIP3    H166911   1.955   3.169   0.459 -1.5620 -0.0597  0.4912
15140TIP3    H266912   1.883   3.036   0.463 -0.3555 -0.9834 -3.4467
15141TIP3   OH266913   5.592   0.498  13.062 -0.1671 -0.5642 -0.5243
15141TIP3    H166914   5.616   0.413  13.024 -1.6607 -1.3861  0.2470
15141TIP3    H266915   5.521   0.529  13.005 -0.4464 -0.4254 -0.1035
15142TIP3   OH266916   4.679   2.802   1.383  0.1927  0.4080 -0.1550
15142TIP3    H166917   4.621   2.727   1.391  0.2568  0.4252  0.4991
15142TIP3    H266918   4.720   2.811   1.469  2.7490 -0.8631 -1.1451
15143TIP3   OH266919   6.192   2.080   4.898 -0.0247  0.7767 -0.4012
15143TIP3    H166920   6.242   2.127   4.965 -0.7559  0.6347  0.2583
15143TIP3    H266921   6.237   2.100   4.816  0.4761  1.5234  0.0427
15144TIP3   OH266922   2.752   2.765   5.145 -0.3899  0.2320  0.2575
15144TIP3    H166923   2.740   2.763   5.241  1.2450 -2.6854  0.4940
15144TIP3    H266924   2.838   2.805   5.133 -0.3425  0.0664  0.0525
15145TIP3   OH266925   0.167   1.313  13.492 -0.1179  0.2989 -0.2171
15145TIP3    H166926   0.228   1.386  13.479  0.3014  0.2058  1.1215
15145TIP3    H266927   0.093   1.334  13.435 -0.1783  1.9756  0.4290
15146TIP3   OH266928   2.436   0.287   3.338  0.0483  0.2999  0.2642
15146TIP3    H166929   2.361   0.237   3.369  2.0088 -2.5536  0.7747
15146TIP3    H266930   2.445   0.358   3.403 -2.8288  1.5306 -0.5083
15147TIP3   OH266931   0.947   4.133   5.285  0.7864  0.4545 -0.3279
15147TIP3    H166932   1.001   4.165   5.213  1.0059 -1.5226 -1.1034
15147TIP3    H266933   0.978   4.044   5.301 -2.5667 -1.0463 -1.2576
15148TIP3   OH266934   0.954   3.697  11.260 -0.2511  1.0082 -0.7247
15148TIP3    H166935   0.926   3.724  11.173  1.5124  0.3502 -1.5402
15148TIP3    H266936   0.944   3.602  11.260 -1.7241  1.1292  0.3758
15149TIP3   OH266937   2.977   1.016  11.127 -0.0174  0.3135  0.3165
15149TIP3    H166938   2.944   1.019  11.217  0.0058  1.9740  0.2962
15149TIP3    H266939   3.045   1.082  11.124 -0.5734  0.8520 -1.1274
15150TIP3   OH266940   4.648   4.942  11.981 -0.3780  0.1809 -0.1731
15150TIP3    H166941   4.589   4.940  12.056  0.8293 -0.1728  0.7810
15150TIP3    H266942   4.689   4.856  11.979 -1.4361 -0.3465 -2.1253
15151TIP3   OH266943   6.289   5.609   3.259 -0.1907  0.1167 -0.1152
15151TIP3    H166944   6.361   5.623   3.320 -1.7924 -1.0545  2.2044
15151TIP3    H266945   6.217   5.660   3.294 -1.3385 -1.0283 -0.7043
15152TIP3   OH266946   0.951   4.102  14.448 -0.0630 -0.6181 -0.0280
15152TIP3    H166947   1.028   4.146  14.484 -0.7840  1.2298 -0.6160
15152TIP3    H266948   0.890   4.173  14.428 -0.6955 -1.7609 -2.5213
15153TIP3   OH266949   4.407   5.628   5.289  0.0459  0.2312  0.4163
15153TIP3    H166950   4.459   5.707   5.301 -0.2264  0.8602 -1.8703
15153TIP3    H266951   4.317   5.657   5.303  0.0360  0.0716  0.6690
15154TIP3   OH266952   5.181   6.708  13.114  0.1938 -0.4405 -0.6236
15154TIP3    H166953   5.199   6.670  13.029 -1.3290  0.1572 -1.2412
15154TIP3    H266954   5.183   6.634  13.175  0.7759 -0.9461 -1.2446
15155TIP3   OH266955   4.932   3.386   6.301  0.4596 -0.0108  0.4003
15155TIP3    H166956   4.858   3.348   6.348 -0.3776  0.4396 -0.5088
15155TIP3    H266957   5.005   3.327   6.319 -0.3453 -0.9859  0.5611
15156TIP3   OH266958   5.159   6.360  12.527  0.0810  0.5341  0.3809
15156TIP3    H166959   5.135   6.369  12.435 -1.1530  0.0402  0.6357
15156TIP3    H266960   5.148   6.449  12.563 -0.8847  0.4259  0.3718
15157TIP3   OH266961   2.302   1.005  15.272 -0.3075 -0.0069  0.6008
15157TIP3    H166962   2.308   1.068  15.201  0.6813 -0.2770  0.4267
15157TIP3    H266963   2.322   1.056  15.351 -3.5950  0.7994  1.0295
15158TIP3   OH266964   3.692   0.200   5.213 -0.0206 -0.0951 -0.7243
15158TIP3    H166965   3.654   0.283   5.243  0.2580  0.3775 -1.6443
15158TIP3    H266966   3.621   0.137   5.221 -0.8189  0.6379 -1.7734
15159TIP3   OH266967   4.319   0.320  17.042  0.1520  0.1484  1.1260
15159TIP3    H166968   4.403   0.315  16.995  0.0685 -1.8211  1.1037
15159TIP3    H266969   4.267   0.383  16.991  0.5744 -0.8483 -0.6210
15160TIP3   OH266970   5.509   5.823  15.537 -0.5625 -0.8087 -0.6236
15160TIP3    H166971   5.500   5.791  15.626  1.0626 -1.7639 -0.7526
15160TIP3    H266972   5.447   5.772  15.486 -1.3553 -0.3970 -0.0980
15161TIP3   OH266973   5.387   4.731   4.177 -0.2622 -0.0557 -0.0606
15161TIP3    H166974   5.478   4.699   4.174 -0.6070 -1.1594  0.5543
15161TIP3    H266975   5.368   4.760   4.088 -0.4784 -3.2521 -1.1593
15162TIP3   OH266976   4.556   3.597  11.071 -0.3208  0.1321  0.0028
15162TIP3    H166977   4.577   3.538  10.998  0.8409 -0.8729  1.0777
15162TIP3    H266978   4.487   3.654  11.038 -3.2752 -3.3116 -0.4206
15163TIP3   OH266979   3.704   4.954   3.503  0.2650 -0.1751 -0.0384
15163TIP3    H166980   3.659   5.024   3.551  0.5283 -0.2764  0.3605
15163TIP3    H266981   3.715   4.989   3.414  0.3135  0.2530  0.1333
15164TIP3   OH266982   2.900   0.237   2.424  0.1169 -0.5005  0.6381
15164TIP3    H166983   2.813   0.214   2.390  0.4081  0.0235 -0.5245
15164TIP3    H266984   2.942   0.152   2.441  0.5932 -0.8931 -2.0506
15165TIP3   OH266985   0.139   3.245  13.675  0.2756  0.8895  0.1245
15165TIP3    H166986   0.228   3.268  13.648  0.6363  1.2069  1.5417
15165TIP3    H266987   0.150   3.202  13.760 -0.8407 -0.0300 -0.1627
15166TIP3   OH266988   1.581   2.735  17.144 -0.4552 -0.2788 -0.0906
15166TIP3    H166989   1.584   2.651  17.097 -2.6062  1.2898 -3.4047
15166TIP3    H266990   1.523   2.718  17.219 -1.9947 -1.4939 -1.4674
15167TIP3   OH266991   2.116   4.758  16.686  0.9523  0.5958  0.2180
15167TIP3    H166992   2.052   4.758  16.758  1.1211 -0.4990  0.3900
15167TIP3    H266993   2.073   4.806  16.616 -0.1556 -0.2773  0.2699
15168TIP3   OH266994   3.328   5.088  16.120 -0.4716 -0.6069  0.6221
15168TIP3    H166995   3.286   5.002  16.125 -0.8333 -0.4054  1.0237
15168TIP3    H266996   3.310   5.118  16.031 -0.9240 -0.6486  0.7013
15169TIP3   OH266997   6.334   6.477  13.826 -1.0009 -0.3036 -0.1130
15169TIP3    H166998   6.353   6.390  13.790 -0.3823 -0.0438 -0.4357
15169TIP3    H266999   6.257   6.507  13.778 -0.7066 -0.3262 -0.6051
15170TIP3   OH267000   2.118   1.099   3.783  0.0538  0.4967  0.4290
15170TIP3    H167001   2.116   1.025   3.722  0.0703 -0.3561  1.4471
15170TIP3    H267002   2.039   1.149   3.761 -0.7100 -0.5778  0.6431
15171TIP3   OH267003   0.188   3.943   5.175 -0.4494  0.0009  0.4532
15171TIP3    H167004   0.110   3.893   5.198 -0.7923  0.2919 -0.0421
15171TIP3    H267005   0.157   4.004   5.108  0.0668  0.5491  0.7143
15172TIP3   OH267006   5.079   4.012   2.344 -0.0610 -0.2684 -0.2428
15172TIP3    H167007   5.119   4.096   2.362 -1.1367  0.1447  0.3173
15172TIP3    H267008   5.057   4.015   2.250  1.2687 -0.5475 -0.5819
15173TIP3   OH267009   3.856   0.193  16.130 -0.4936 -0.3437  0.1615
15173TIP3    H167010   3.914   0.263  16.160 -0.6511 -0.0509 -0.2079
15173TIP3    H267011   3.810   0.164  16.208 -0.2283 -0.2241  0.3644
15174TIP3   OH267012   4.324   5.413   4.268  0.0568 -0.1624  0.0518
15174TIP3    H167013   4.357   5.471   4.336 -1.0012 -0.7418  1.0915
15174TIP3    H267014   4.292   5.472   4.199 -0.5937  0.4789  0.8916
15175TIP3   OH267015   5.123   5.028  13.009 -0.5637  0.7477  0.4865
15175TIP3    H167016   5.158   5.110  13.042 -2.5613  1.6285  0.5828
15175TIP3    H267017   5.130   5.034  12.914 -0.2215  0.7985  0.5163
15176TIP3   OH267018   5.411   4.732  17.216  0.0679  0.0262 -0.1730
15176TIP3    H167019   5.402   4.719  17.122 -2.8313 -3.7650  0.4092
15176TIP3    H267020   5.332   4.779  17.242  1.0019  1.3504  0.4346
15177TIP3   OH267021   6.454   3.244   3.626 -0.5582 -0.0786  0.5319
15177TIP3    H167022   6.400   3.188   3.570  0.6926  0.1162 -0.9434
15177TIP3    H267023   6.539   3.200   3.629 -0.6227 -0.1807  2.4933
15178TIP3   OH267024   2.332   2.017  13.349  0.3341 -0.1835 -0.2979
15178TIP3    H167025   2.248   2.060  13.330  0.7013  1.2982  1.1417
15178TIP3    H267026   2.360   1.981  13.265 -0.6669  1.2898 -1.3277
15179TIP3   OH267027   5.797   4.294   0.733  0.4260 -0.5456 -0.0505
15179TIP3    H167028   5.849   4.219   0.765 -1.4450 -1.8080  0.1981
15179TIP3    H267029   5.757   4.330   0.812 -0.0872 -0.3992 -0.3758
15180TIP3   OH267030   5.995   3.356   0.054 -0.5389 -0.0125  0.0651
15180TIP3    H167031   6.086   3.327   0.066 -0.6729 -1.7172 -2.3956
15180TIP3    H267032   6.003   3.442   0.014  0.0155 -0.0714  0.0324
15181TIP3   OH267033   4.722   5.217   0.125 -0.6514 -0.2306 -0.2056
15181TIP3    H167034   4.796   5.260   0.169 -0.5697 -1.2967  0.7306
15181TIP3    H267035   4.754   5.198   0.037 -1.2171  3.0553 -1.2775
15182TIP3   OH267036   6.594   1.988   3.830 -0.1180  0.2733 -0.2565
15182TIP3    H167037   6.542   2.027   3.900  0.5104  0.4162  0.1348
15182TIP3    H267038   6.678   1.968   3.870 -0.1648 -0.7803 -0.6514
15183TIP3   OH267039   5.083   2.954   5.669 -0.6372  0.2858 -0.6467
15183TIP3    H167040   5.034   3.021   5.621  0.0532 -0.0181 -1.8276
15183TIP3    H267041   5.067   2.873   5.619 -0.4814 -0.1859  0.0575
15184TIP3   OH267042   3.163   4.325  13.226 -0.3675 -0.1199  0.3647
15184TIP3    H167043   3.138   4.337  13.318 -1.9601 -1.5075  0.1720
15184TIP3    H267044   3.245   4.276  13.229  0.5765  1.4432  1.0293
15185TIP3   OH267045   5.285   1.031  15.980 -0.5705 -0.5179  0.0505
15185TIP3    H167046   5.262   0.969  15.911 -0.5551  0.2608 -0.6644
15185TIP3    H267047   5.339   1.097  15.937  0.3579 -0.5924  1.0309
15186TIP3   OH267048   2.895   5.992  15.685 -0.3994 -0.0653 -0.3809
15186TIP3    H167049   2.888   6.037  15.770  1.1716  0.4269 -0.4744
15186TIP3    H267050   2.950   6.049  15.632  0.7445 -1.5633 -0.8874
15187TIP3   OH267051   4.122   0.855  10.499  0.1817  0.4758  0.2244
15187TIP3    H167052   4.193   0.881  10.440 -0.2912  1.0547 -0.1006
15187TIP3    H267053   4.068   0.934  10.507 -0.5258 -0.0147  0.3203
15188TIP3   OH267054   5.741   0.434  12.718  0.6927 -0.3044  0.2145
15188TIP3    H167055   5.673   0.464  12.778  0.9896 -0.5300  0.6782
15188TIP3    H267056   5.746   0.339  12.733 -0.5512 -0.6861 -1.5571
15189TIP3   OH267057   5.899   6.273   2.090 -0.0166  0.5427 -0.9222
15189TIP3    H167058   5.882   6.256   1.998  0.5020 -1.2795 -0.7304
15189TIP3    H267059   5.839   6.215   2.137 -0.3138  1.4828 -0.1002
15190TIP3   OH267060   1.432   2.556  12.740 -0.0779  0.5582 -0.3698
15190TIP3    H167061   1.439   2.461  12.750 -1.2458  0.4271 -0.6700
15190TIP3    H267062   1.370   2.568  12.668  1.8186  1.5345 -1.9419
15191TIP3   OH267063   2.285   2.648   5.669  0.6994 -0.5679 -0.4127
15191TIP3    H167064   2.357   2.589   5.690  0.4574 -1.1887 -1.2479
15191TIP3    H267065   2.303   2.677   5.579  0.8337  0.6709  0.0006
15192TIP3   OH267066   5.134   0.250  13.670  0.6916  0.0590  0.0543
15192TIP3    H167067   5.123   0.340  13.700  4.0805  0.2567  1.2170
15192TIP3    H267068   5.114   0.196  13.747  1.3943  0.0232  0.2173
15193TIP3   OH267069   0.930   1.672  15.827  0.4587  0.1697 -0.1640
15193TIP3    H167070   0.852   1.641  15.872 -0.9733  0.7094 -2.1148
15193TIP3    H267071   0.945   1.760  15.862  0.6081 -0.1803  0.6795
15194TIP3   OH267072   6.234   0.950   0.399 -0.1955  0.3055  0.3166
15194TIP3    H167073   6.317   0.905   0.419 -0.1058  0.2853 -0.0809
15194TIP3    H267074   6.251   1.042   0.421 -0.0181  0.3258  0.1025
15195TIP3   OH267075   3.082   5.901   0.396  0.6264  0.0277 -0.0986
15195TIP3    H167076   3.002   5.914   0.346  0.4850  1.5874  0.4817
15195TIP3    H267077   3.129   5.984   0.390  1.4674 -0.3413  0.8501
15196TIP3   OH267078   3.264   6.447   5.026 -0.4208 -0.4009  0.7149
15196TIP3    H167079   3.232   6.537   5.034  1.0136  0.1144  0.9633
15196TIP3    H267080   3.206   6.407   4.962  0.7100  1.6224 -1.8049
15197TIP3   OH267081   3.451   5.367   4.373  0.3503 -0.1288  0.1320
15197TIP3    H167082   3.448   5.276   4.401 -0.6504 -0.2396 -0.3103
15197TIP3    H267083   3.544   5.389   4.375  0.5671 -1.0270  0.6419
15198TIP3   OH267084   1.725   3.488   1.000 -0.0530 -0.7383  0.1620
15198TIP3    H167085   1.718   3.538   0.918 -0.5498 -0.3059  0.4604
15198TIP3    H267086   1.704   3.398   0.975  0.0634 -0.6591 -0.2345
15199TIP3   OH267087   1.465   1.313  14.780 -0.0321 -0.0649  0.2142
15199TIP3    H167088   1.491   1.315  14.872  0.5881  1.1418  0.0336
15199TIP3    H267089   1.541   1.345  14.732 -1.1267  1.6581 -0.4896
15200TIP3   OH267090   5.795   5.974  14.578  0.3952  0.2598 -0.0641
15200TIP3    H167091   5.761   5.928  14.654  0.8555  2.3882  1.5552
15200TIP3    H267092   5.886   5.994  14.601  0.0430  2.4783 -0.3448
15201TIP3   OH267093   3.535   5.208   3.896  0.2452 -0.6316  0.6957
15201TIP3    H167094   3.555   5.115   3.884  0.8446 -0.2746 -1.7383
15201TIP3    H267095   3.451   5.220   3.852  1.2522  0.3317 -1.1038
15202TIP3   OH267096   4.857   6.066  10.719  0.3919 -0.3649 -0.8766
15202TIP3    H167097   4.770   6.065  10.681  0.3311 -0.9665 -0.7352
15202TIP3    H267098   4.914   6.030  10.650  0.7989  1.5260 -1.5722
15203TIP3   OH267099   1.571   3.323   0.829 -0.4707 -0.3347  0.1565
15203TIP3    H167100   1.592   3.240   0.785 -0.4698 -1.1420  1.5884
15203TIP3    H267101   1.476   3.324   0.834 -0.4412 -0.9028  1.2524
15204TIP3   OH267102   0.771   6.537  11.082  0.6745  0.1187 -0.2726
15204TIP3    H167103   0.806   6.591  11.012  0.6719 -0.2779 -0.5806
15204TIP3    H267104   0.715   6.472  11.038  1.1086 -0.4769  0.0378
15205TIP3   OH267105   5.460   6.117  17.119  0.0793  0.3153  0.1499
15205TIP3    H167106   5.389   6.099  17.181 -0.2390 -0.7302 -0.4954
15205TIP3    H267107   5.420   6.168  17.049  0.3847  1.2827  0.6563
15206TIP3   OH267108   1.772   4.299   1.504 -0.1101  0.1823  0.3726
15206TIP3    H167109   1.763   4.356   1.427 -1.3875 -0.5064 -0.0244
15206TIP3    H267110   1.793   4.213   1.468  0.5851  0.1284  0.8908
15207TIP3   OH267111   4.550   0.543   3.565 -0.0319  0.2268  0.2455
15207TIP3    H167112   4.561   0.537   3.660  1.5521  0.1979  0.0912
15207TIP3    H267113   4.547   0.637   3.547 -1.6347  0.2305  0.4302
15208TIP3   OH267114   1.293   1.371  14.494 -0.3724  0.4333 -0.3271
15208TIP3    H167115   1.378   1.386  14.537 -0.7530  0.3462  0.4732
15208TIP3    H267116   1.306   1.404  14.405  0.6180  0.0818 -0.3320
15209TIP3   OH267117   5.543   0.874  14.019 -0.3978  0.1089 -0.0203
15209TIP3    H167118   5.537   0.886  13.925 -2.0663 -2.4589 -0.3456
15209TIP3    H267119   5.470   0.925  14.055  1.2888  2.5576  0.1538
15210TIP3   OH267120   5.796   3.551   3.080 -0.3796  0.2231  0.4821
15210TIP3    H167121   5.844   3.469   3.092 -1.1741 -0.2977  0.1911
15210TIP3    H267122   5.823   3.606   3.153  0.8259  0.0311  0.2007
15211TIP3   OH267123   6.453   4.211   3.003  0.0290  0.5201 -0.1923
15211TIP3    H167124   6.508   4.204   2.925  0.3608 -1.3005  0.1718
15211TIP3    H267125   6.379   4.153   2.986  0.6010 -0.6855  1.2081
15212TIP3   OH267126   0.873   5.482   3.858  0.3197 -0.2641  0.2596
15212TIP3    H167127   0.865   5.467   3.952  1.0065  1.0251  0.5401
15212TIP3    H267128   0.900   5.573   3.850 -0.6707 -0.0656 -1.2352
15213TIP3   OH267129   1.667   4.563   1.923  0.1636 -0.5947 -0.8061
15213TIP3    H167130   1.634   4.480   1.890  0.5898 -1.0891 -0.0237
15213TIP3    H267131   1.678   4.549   2.017  1.0445  0.0654 -0.7922
15214TIP3   OH267132   6.801   5.320  14.668 -0.0669 -0.3480  0.1516
15214TIP3    H167133   6.871   5.261  14.694  0.0631 -0.2034  0.1292
15214TIP3    H267134   6.794   5.383  14.740  0.2212 -0.0106 -0.1143
15215TIP3   OH267135   1.651   6.407  13.181 -0.5543 -0.0945 -0.1398
15215TIP3    H167136   1.668   6.323  13.223 -1.5864  0.1968  0.9154
15215TIP3    H267137   1.729   6.460  13.199 -0.8239 -0.0952  1.1531
15216TIP3   OH267138   3.854   6.709   3.729  0.6612 -0.1819 -0.4725
15216TIP3    H167139   3.846   6.614   3.733  2.2470 -0.3282  2.2990
15216TIP3    H267140   3.932   6.725   3.675 -1.0563 -0.2322 -3.1148
15217TIP3   OH267141   6.103   5.696   0.786  0.2811  0.5763 -0.1268
15217TIP3    H167142   6.023   5.747   0.777  1.2121  1.9788 -0.8497
15217TIP3    H267143   6.075   5.615   0.828 -1.7661  0.3417 -1.7744
15218TIP3   OH267144   3.434   0.862   5.847  0.1664  0.1190 -0.0799
15218TIP3    H167145   3.492   0.842   5.920 -0.4409  0.8781  0.6282
15218TIP3    H267146   3.354   0.895   5.888 -0.2428  0.4169 -1.0856
15219TIP3   OH267147   2.198   0.843   2.519 -0.7508 -0.4785 -0.4618
15219TIP3    H167148   2.235   0.904   2.582 -0.8306 -0.7430 -0.1573
15219TIP3    H267149   2.109   0.875   2.503 -2.2704 -2.6659  2.6761
15220TIP3   OH267150   5.219   2.913   6.775  0.4749  0.4864  0.2353
15220TIP3    H167151   5.161   2.922   6.699  0.6626  1.6705  0.2093
15220TIP3    H267152   5.213   2.998   6.819  1.1786  0.1657  0.9568
15221TIP3   OH267153   1.626   5.239  11.112 -0.4401  0.2315 -0.2299
15221TIP3    H167154   1.692   5.181  11.073 -1.3959 -1.9160  1.1505
15221TIP3    H267155   1.676   5.316  11.140  0.8560  0.2449 -2.3114
15222TIP3   OH267156   0.155   0.320   1.312  0.1907  0.2017 -0.8749
15222TIP3    H167157   0.071   0.365   1.303 -0.6777 -1.5377 -1.8728
15222TIP3    H267158   0.186   0.309   1.223  1.6064  0.9484 -0.5180
15223TIP3   OH267159   4.151   5.330  12.045  0.3855  0.5000 -0.0179
15223TIP3    H167160   4.174   5.243  12.079 -0.5308 -0.4722 -1.7797
15223TIP3    H267161   4.178   5.390  12.114  0.0426 -1.2562  1.7401
15224TIP3   OH267162   4.903   6.738  12.382  0.3041 -0.0491 -0.2496
15224TIP3    H167163   4.941   6.721  12.296 -0.5313  1.4791 -0.9587
15224TIP3    H267164   4.923   6.830  12.400  1.0122 -0.5046  1.4981
15225TIP3   OH267165   0.496   0.779   4.334  0.1665 -0.6278  0.4804
15225TIP3    H167166   0.564   0.748   4.393 -0.7699 -5.3363 -0.5263
15225TIP3    H267167   0.543   0.821   4.262  1.5299  1.3296  2.4168
15226TIP3   OH267168   3.459   5.468   1.806 -0.7079  0.7072 -0.8572
15226TIP3    H167169   3.487   5.550   1.848  1.1349 -0.9601  1.5181
15226TIP3    H267170   3.380   5.443   1.854 -0.3429  0.3321 -0.4346
15227TIP3   OH267171   4.273   2.979   2.541  0.2590 -0.3350 -0.3835
15227TIP3    H167172   4.274   3.050   2.477  0.6767  0.2575  0.2570
15227TIP3    H267173   4.215   3.011   2.611 -0.0711 -0.9047 -0.3977
15228TIP3   OH267174   1.227   5.327  16.187 -0.1985  0.6560  0.2469
15228TIP3    H167175   1.313   5.355  16.219  0.2186 -0.1333 -0.1533
15228TIP3    H267176   1.182   5.409  16.166 -0.1786  1.1743  2.0265
15229TIP3   OH267177   4.614   5.825   5.306  1.0719 -0.0770  0.3019
15229TIP3    H167178   4.637   5.775   5.384  0.6977 -1.0219 -0.1756
15229TIP3    H267179   4.689   5.883   5.291  1.9679 -1.2089  0.2981
15230TIP3   OH267180   0.367   6.556   0.017  0.5130 -0.0142  0.5600
15230TIP3    H167181   0.404   6.467   0.013 -0.0011 -0.1882 -0.5069
15230TIP3    H267182   0.322   6.559   0.102 -1.8124 -1.7396 -0.4979
15231TIP3   OH267183   3.999   2.038  14.285  0.3401 -0.1919 -0.9901
15231TIP3    H167184   3.907   2.059  14.299  0.0963 -1.7034 -0.1353
15231TIP3    H267185   4.002   1.942  14.282  1.8719 -0.1704 -1.1347
15232TIP3   OH267186   6.221   6.645   2.111  0.2619 -0.4322  0.2126
15232TIP3    H167187   6.243   6.732   2.078 -0.1761 -0.8413 -1.2262
15232TIP3    H267188   6.304   6.596   2.106  0.3885 -0.2526  0.5251
15233TIP3   OH267189   0.074   1.979   1.907  0.0406  0.2788 -0.5326
15233TIP3    H167190   0.052   1.887   1.892 -0.8862  0.9293 -4.2323
15233TIP3    H267191  -0.000   2.014   1.956 -1.2911 -0.3231 -2.0118
15234TIP3   OH267192   1.787   5.878   4.230 -0.3186  0.5271  0.0419
15234TIP3    H167193   1.876   5.850   4.254 -0.4916  0.3633  0.4985
15234TIP3    H267194   1.801   5.948   4.166  0.1336  0.0627 -0.3811
15235TIP3   OH267195   6.665   6.473  16.366 -0.3231  0.4795  0.0203
15235TIP3    H167196   6.668   6.439  16.276 -0.0581  0.6443 -0.0315
15235TIP3    H267197   6.669   6.568  16.356  1.0030  0.4640  0.2592
15236TIP3   OH267198   4.557   4.374  13.350 -0.5532  0.0601  0.1562
15236TIP3    H167199   4.577   4.454  13.301 -0.4815  0.4315  0.7812
15236TIP3    H267200   4.601   4.385  13.434 -0.9380 -0.4247  0.4309
15237TIP3   OH267201   3.271   0.678  17.055  0.2499 -0.4480  0.1796
15237TIP3    H167202   3.254   0.726  16.974 -1.6163 -0.4383  0.5360
15237TIP3    H267203   3.317   0.599  17.027  3.1202  1.2978 -0.4555
15238TIP3   OH267204   2.504   3.554  13.986 -0.1359 -0.3066  0.0652
15238TIP3    H167205   2.564   3.614  14.030  0.8778 -1.3928  0.2010
15238TIP3    H267206   2.454   3.610  13.926 -0.2479  0.8996  1.2223
15239TIP3   OH267207   1.396   0.787   3.139  0.1091  0.5514  0.5442
15239TIP3    H167208   1.365   0.877   3.146  1.0226  0.9094  0.0408
15239TIP3    H267209   1.385   0.764   3.047  1.6115  0.7945  0.2887
15240TIP3   OH267210   2.708   2.494   5.109 -0.0101 -0.3218  0.0758
15240TIP3    H167211   2.615   2.488   5.087  0.0947 -1.7138 -0.0273
15240TIP3    H267212   2.727   2.588   5.103 -0.9472 -0.2057 -1.7999
15241TIP3   OH267213   5.178   4.381   4.503 -0.3773  0.2631  0.1792
15241TIP3    H167214   5.137   4.312   4.451 -0.0039  0.1120  0.0893
15241TIP3    H267215   5.153   4.462   4.459  0.1949  0.1202 -0.4216
15242TIP3   OH267216   3.063   6.503  15.961 -0.1058 -0.1622  0.0010
15242TIP3    H167217   3.004   6.557  15.909 -0.2802  0.5778  0.9386
15242TIP3    H267218   3.005   6.452  16.018  0.1161 -0.2338  0.1644
15243TIP3   OH267219   1.029   0.881  13.852 -0.3813 -0.5309  0.2797
15243TIP3    H167220   1.110   0.887  13.801 -0.6134 -0.5863 -0.1044
15243TIP3    H267221   1.006   0.972  13.870  0.1716 -0.5404  1.0480
15244TIP3   OH267222   4.012   5.840   4.536  0.0788  0.4118  0.7252
15244TIP3    H167223   3.993   5.756   4.496  0.8098 -0.2693  1.7586
15244TIP3    H267224   4.107   5.844   4.541  0.0364  0.9784  1.3325
15245TIP3   OH267225   0.691   1.815   3.136 -0.6271  0.4151  0.3921
15245TIP3    H167226   0.701   1.758   3.212  0.0306  0.2452  0.1793
15245TIP3    H267227   0.642   1.763   3.072 -0.6890  0.3599  0.4852
15246TIP3   OH267228   0.902   3.910   4.544  0.7372 -0.3272 -0.0494
15246TIP3    H167229   0.998   3.912   4.542  0.7294 -0.4444 -0.8215
15246TIP3    H267230   0.881   3.817   4.556  0.7248 -0.1592  1.3607
15247TIP3   OH267231   4.822   4.791  11.066 -0.2699 -0.6239  0.4661
15247TIP3    H167232   4.875   4.748  10.999 -0.7499  0.8263 -0.9086
15247TIP3    H267233   4.732   4.776  11.037 -0.5104 -0.5627  1.1774
15248TIP3   OH267234   4.435   5.924   2.769 -0.4041  0.3875  0.1645
15248TIP3    H167235   4.498   5.852   2.765  0.6682  1.3344 -0.7148
15248TIP3    H267236   4.374   5.899   2.838 -0.6051 -1.7869 -0.7336
15249TIP3   OH267237   3.224   5.840   5.006  0.2459 -0.1678  0.0648
15249TIP3    H167238   3.191   5.882   4.926  2.4250 -0.4596 -1.0538
15249TIP3    H267239   3.147   5.796   5.043 -0.8342 -0.0021 -1.8539
15250TIP3   OH267240   1.801   5.181  12.195  0.4611  0.1957 -0.3454
15250TIP3    H167241   1.785   5.231  12.275 -0.2263  0.0136 -0.3621
15250TIP3    H267242   1.802   5.246  12.126  1.1475  0.3643 -0.1812
15251TIP3   OH267243   5.985   2.621  12.312 -0.5504 -0.3650 -0.0697
15251TIP3    H167244   5.949   2.677  12.243 -0.8720  0.3747  0.6704
15251TIP3    H267245   6.013   2.542  12.267  0.7487  0.7273 -1.3062
15252TIP3   OH267246   0.693   3.938   0.702  0.9934 -0.0608 -0.4902
15252TIP3    H167247   0.753   3.933   0.776 -0.7214 -0.6511  0.9397
15252TIP3    H267248   0.643   3.856   0.707  0.1308  0.3698 -1.6629
15253TIP3   OH267249   3.061   1.543  10.587  0.7800  0.2569 -0.1683
15253TIP3    H167250   3.055   1.586  10.501 -0.1620 -1.3711 -0.9559
15253TIP3    H267251   3.114   1.465  10.570 -0.0352 -0.4638  0.5760
15254TIP3   OH267252   1.082   4.460   6.270 -0.2180  0.6595  0.1744
15254TIP3    H167253   1.177   4.464   6.286 -0.0200  1.1660 -1.0137
15254TIP3    H267254   1.055   4.552   6.267 -0.5553  0.5435 -0.4905
15255TIP3   OH267255   6.387   0.907   4.677 -0.2180  0.2937 -0.2505
15255TIP3    H167256   6.305   0.868   4.705  0.7518 -2.5762 -1.0735
15255TIP3    H267257   6.455   0.858   4.723  1.1252  0.1587 -2.2188
15256TIP3   OH267258   5.524   5.478   5.108  0.2953  0.3578  0.0289
15256TIP3    H167259   5.599   5.443   5.156 -0.1769  0.3654  0.7848
15256TIP3    H267260   5.556   5.489   5.019  0.5653 -1.6969 -0.1709
15257TIP3   OH267261   5.809   2.185  16.996 -0.3316  0.3282  0.2165
15257TIP3    H167262   5.900   2.158  16.982 -0.3519 -0.4513  1.4556
15257TIP3    H267263   5.780   2.215  16.910  0.8020 -0.3101 -0.4166
15258TIP3   OH267264   6.065   4.371  16.279 -0.9350  0.1100  0.7386
15258TIP3    H167265   6.043   4.409  16.364 -0.9093  0.6739  0.4985
15258TIP3    H267266   6.039   4.438  16.215 -2.2420 -0.8578  0.2096
15259TIP3   OH267267   3.637   6.211   0.068 -0.4940 -0.4353  0.4565
15259TIP3    H167268   3.605   6.293   0.106  0.7425  0.0927  0.4189
15259TIP3    H267269   3.718   6.193   0.115 -0.5106 -1.3875  0.1340
15260TIP3   OH267270   1.949   2.245   4.949 -0.1373 -0.3456  0.1288
15260TIP3    H167271   1.991   2.203   4.874  0.3884 -1.0618  0.8072
15260TIP3    H267272   1.857   2.221   4.941 -0.8392  2.6315 -2.3138
15261TIP3   OH267273   0.836   3.238  11.172  0.1514 -0.2100  0.0094
15261TIP3    H167274   0.814   3.155  11.215  0.5989 -0.2484  0.1693
15261TIP3    H267275   0.779   3.241  11.095 -0.8223 -0.0393  0.7146
15262TIP3   OH267276   4.154   5.593   3.883 -0.0673  0.0721  0.0993
15262TIP3    H167277   4.186   5.603   3.972 -0.2219  0.2101  0.1392
15262TIP3    H267278   4.068   5.551   3.892  0.3443 -0.8368 -0.0385
15263TIP3   OH267279   1.245   0.450  16.576  0.0148  0.4911  0.0183
15263TIP3    H167280   1.209   0.425  16.661  0.6604  2.1483  0.8354
15263TIP3    H267281   1.200   0.394  16.513 -0.5371 -0.7322  1.4343
15264TIP3   OH267282   4.650   6.682   5.935 -0.1042 -0.0201  0.2270
15264TIP3    H167283   4.741   6.659   5.957 -0.1311  0.7264  1.1458
15264TIP3    H267284   4.618   6.729   6.011 -1.8484 -1.7734  0.6431
15265TIP3   OH267285   3.928   2.391   1.229  0.2280  0.2306 -0.1308
15265TIP3    H167286   4.004   2.344   1.194  0.3938 -1.1676  1.9691
15265TIP3    H267287   3.957   2.482   1.235  1.7972 -0.2945  0.7544
15266TIP3   OH267288   5.675   5.594   6.124 -0.0616  0.0771 -0.3445
15266TIP3    H167289   5.748   5.654   6.141 -2.0275  2.6142 -0.2828
15266TIP3    H267290   5.598   5.641   6.155 -1.6879 -2.8719  0.4426
15267TIP3   OH267291   4.576   4.384   2.333 -0.3484  0.4829  0.0204
15267TIP3    H167292   4.661   4.353   2.364  0.0096 -0.0566 -1.4268
15267TIP3    H267293   4.524   4.304   2.324 -0.8884  0.7737  0.5215
15268TIP3   OH267294   1.223   0.823  12.097  0.0885 -0.0334 -0.5025
15268TIP3    H167295   1.259   0.888  12.157 -0.9231 -0.3815  0.5265
15268TIP3    H267296   1.256   0.848  12.011  1.4859  0.5482  0.1777
15269TIP3   OH267297   5.379   5.202  12.530 -0.1580 -0.0803 -0.0079
15269TIP3    H167298   5.315   5.273  12.532  0.4838  0.5072  0.1343
15269TIP3    H267299   5.461   5.245  12.506  0.3594 -0.6774  0.6548
15270TIP3   OH267300   0.582   4.335   0.862 -0.0702 -0.0904  1.0047
15270TIP3    H167301   0.551   4.422   0.839 -0.8448  0.3984  3.6148
15270TIP3    H267302   0.634   4.347   0.941  0.5840 -1.8935  0.9051
15271TIP3   OH267303   3.238   6.774   1.454 -0.1760  0.7359 -0.1470
15271TIP3    H167304   3.271   6.747   1.369 -1.1092 -0.5014 -0.1480
15271TIP3    H267305   3.157   6.821   1.434 -0.7962 -0.2181  0.0850
15272TIP3   OH267306   2.293   6.101   0.837 -0.8803 -0.3818  0.1353
15272TIP3    H167307   2.203   6.126   0.857 -1.0788 -1.7288  1.0800
15272TIP3    H267308   2.330   6.076   0.922  0.6401  0.8792 -0.1054
15273TIP3   OH267309   1.996   0.859   1.446  0.5178 -0.2412 -0.1808
15273TIP3    H167310   2.076   0.822   1.484  0.2266 -0.3878  0.3025
15273TIP3    H267311   2.023   0.894   1.361  1.1609 -0.0174  0.1100
15274TIP3   OH267312   2.190   5.835   2.619 -0.3362 -0.5030 -0.5445
15274TIP3    H167313   2.113   5.799   2.575  0.7060 -1.2193 -1.8832
15274TIP3    H267314   2.239   5.879   2.549 -0.5116  1.7244  0.6588
15275TIP3   OH267315   1.517   4.476  10.942 -1.2411 -0.1311  0.2746
15275TIP3    H167316   1.598   4.491  10.894 -2.1534  2.6794 -0.5903
15275TIP3    H267317   1.456   4.444  10.875 -1.2513 -0.8322  0.6124
15276TIP3   OH267318   0.962   6.352   5.533  0.9570  0.1204 -0.4380
15276TIP3    H167319   0.893   6.400   5.487  0.6186 -0.7039 -0.8189
15276TIP3    H267320   1.021   6.324   5.464  0.2098 -1.5142 -0.4618
15277TIP3   OH267321   5.957   4.547   3.414  0.0700 -0.6132  0.0923
15277TIP3    H167322   6.039   4.544   3.462 -0.1043 -1.5627  0.3506
15277TIP3    H267323   5.949   4.460   3.375 -0.2821 -0.1800 -0.8294
15278TIP3   OH267324   0.339   4.259   4.499  0.7063  0.0979  0.3721
15278TIP3    H167325   0.284   4.284   4.425 -0.3086  0.4312  1.1973
15278TIP3    H267326   0.406   4.327   4.503  0.4720  0.3526  0.0480
15279TIP3   OH267327   2.406   1.926  11.536 -0.2403 -0.0874  0.6122
15279TIP3    H167328   2.373   1.976  11.462  0.0364  0.8911  1.1282
15279TIP3    H267329   2.429   1.841  11.500 -3.2892 -0.8554  0.2204
15280TIP3   OH267330   6.177   0.379  16.845 -0.3119  0.3775 -0.1661
15280TIP3    H167331   6.108   0.377  16.779  0.2096 -0.6112 -0.6951
15280TIP3    H267332   6.256   0.404  16.797  0.3064 -1.4725 -0.1591
15281TIP3   OH267333   6.386   2.780  13.937  0.4878 -0.1546  0.1879
15281TIP3    H167334   6.440   2.715  13.982 -2.4370 -2.2632  0.9325
15281TIP3    H267335   6.359   2.841  14.006 -1.4202 -1.5715  0.7810
15282TIP3   OH267336   0.466   0.444  16.691 -0.0775 -0.1497 -0.2098
15282TIP3    H167337   0.424   0.494  16.621 -0.5836 -1.4998 -0.9121
15282TIP3    H267338   0.560   0.464  16.681 -0.0192 -1.0933 -1.9558
15283TIP3   OH267339   2.459   0.398   4.044 -0.4257  0.0968 -0.1334
15283TIP3    H167340   2.539   0.350   4.023 -0.1129  0.3393  0.4973
15283TIP3    H267341   2.487   0.489   4.055 -0.3852 -0.1635  2.3404
15284TIP3   OH267342   3.656   1.163   0.241 -0.5277 -0.4961  0.3012
15284TIP3    H167343   3.603   1.212   0.304  0.8752  0.8761  0.4621
15284TIP3    H267344   3.705   1.101   0.295 -1.4942 -1.3632  0.2129
15285TIP3   OH267345   6.057   3.079   5.523 -0.2774  0.7139 -0.3058
15285TIP3    H167346   6.086   2.996   5.485  0.5522  0.3129  1.1085
15285TIP3    H267347   5.976   3.101   5.477  1.3041  0.9501 -3.1995
15286TIP3   OH267348   5.978   3.085   6.527 -0.9355 -0.2298  0.3407
15286TIP3    H167349   5.931   3.019   6.475 -1.9068  0.0655  0.8079
15286TIP3    H267350   6.043   3.121   6.468 -2.1676  0.2638 -0.7736
15287TIP3   OH267351   3.796   3.906  15.908 -0.0823 -0.1509  0.8257
15287TIP3    H167352   3.785   3.819  15.871  2.3109 -1.8042  3.5182
15287TIP3    H267353   3.716   3.921  15.958 -0.9241 -0.3491 -0.4295
15288TIP3   OH267354   1.330   0.092   2.036  0.2593  0.6229 -0.1252
15288TIP3    H167355   1.327   0.069   1.943  0.0126  2.1687 -0.5448
15288TIP3    H267356   1.342   0.009   2.081  2.8947  0.0545 -1.6503
15289TIP3   OH267357   1.897   2.136   1.233  0.1308 -0.1676  0.4734
15289TIP3    H167358   1.961   2.200   1.204  0.2396 -0.1206  0.8092
15289TIP3    H267359   1.910   2.130   1.328  1.2283 -1.8561  0.2559
15290TIP3   OH267360   6.353   4.965  13.952 -0.4816  0.3905 -0.4187
15290TIP3    H167361   6.368   4.936  14.042 -0.2760  1.8438  0.0440
15290TIP3    H267362   6.367   5.060  13.955  1.6293  0.2289 -2.3944
15291TIP3   OH267363   6.453   5.933   2.555 -0.1667  0.3313  0.3763
15291TIP3    H167364   6.511   5.880   2.609  0.3606  0.6251  0.1019
15291TIP3    H267365   6.497   5.937   2.470 -0.8907  0.0348 -0.0256
15292TIP3   OH267366   5.276   1.346   3.252 -0.2637 -0.7164 -0.2534
15292TIP3    H167367   5.279   1.418   3.314  0.0078 -0.1475 -0.9150
15292TIP3    H267368   5.366   1.313   3.249  0.0593  0.1732 -1.3755
15293TIP3   OH267369   2.532   5.851  13.663  0.0061  0.1282  0.2793
15293TIP3    H167370   2.465   5.915  13.638 -0.6277 -0.3094  0.8272
15293TIP3    H267371   2.602   5.863  13.599 -2.5878 -2.7364 -3.5059
15294TIP3   OH267372   1.615   3.527   2.080  0.4180 -0.9596 -0.0014
15294TIP3    H167373   1.693   3.490   2.122  1.0333  1.2469  0.9881
15294TIP3    H267374   1.605   3.477   1.999  3.2927 -0.9241 -0.4995
15295TIP3   OH267375   2.435   3.328  11.098 -0.1527 -0.3039 -0.3586
15295TIP3    H167376   2.498   3.265  11.132  0.1161 -1.2318 -2.4387
15295TIP3    H267377   2.481   3.371  11.026 -1.3402  0.1848 -0.8460
15296TIP3   OH267378   0.541   6.410   3.047 -0.8768 -0.3037  0.6559
15296TIP3    H167379   0.529   6.355   2.970  1.1654 -1.5430  1.1678
15296TIP3    H267380   0.566   6.495   3.011  0.7037 -1.0390 -0.0694
15297TIP3   OH267381   0.406   0.041   5.237 -0.2757  0.2737  0.5176
15297TIP3    H167382   0.319   0.003   5.249 -0.8671  1.4236  0.0662
15297TIP3    H267383   0.431   0.072   5.324  1.7313 -3.9924  1.7682
15298TIP3   OH267384   0.024   0.168  11.138  0.3129  0.3481  0.1056
15298TIP3    H167385   0.031   0.245  11.082  0.3655  0.1998 -0.0935
15298TIP3    H267386  -0.044   0.115  11.097 -1.3697  1.3284  1.4930
15299TIP3   OH267387   5.501   0.199   4.357  0.3643  0.9141  0.0367
15299TIP3    H167388   5.466   0.197   4.446  0.1723 -0.1912 -0.0489
15299TIP3    H267389   5.592   0.227   4.367  1.4328 -2.5096  0.9965
15300TIP3   OH267390   3.093   1.648   2.654  0.2271  0.5123  0.6367
15300TIP3    H167391   3.128   1.728   2.615  0.1469  0.3330  0.1944
15300TIP3    H267392   3.101   1.582   2.586 -2.2131  0.7622  0.0215
15301TIP3   OH267393   5.749   1.700  11.340 -0.9681  0.3504  0.2726
15301TIP3    H167394   5.689   1.733  11.272 -0.5653  1.6091  0.5033
15301TIP3    H267395   5.730   1.754  11.416 -0.9563 -0.6240  0.9876
15302TIP3   OH267396   4.135   4.974  10.794  0.0711  0.1928  0.0646
15302TIP3    H167397   4.158   5.064  10.768  1.3081 -0.6124 -1.8221
15302TIP3    H267398   4.218   4.927  10.796 -0.6745 -1.2019 -0.2382
15303TIP3   OH267399   3.298   3.441  12.123 -0.2595 -0.2807  0.0599
15303TIP3    H167400   3.385   3.441  12.163  0.3208  1.5914 -1.0514
15303TIP3    H267401   3.250   3.372  12.169  1.5850 -0.8940  1.1738
15304TIP3   OH267402   0.361   3.162  15.274  0.0064  0.1110  0.2276
15304TIP3    H167403   0.341   3.108  15.351  0.5469 -0.4491 -0.0174
15304TIP3    H267404   0.325   3.113  15.200  0.5846  0.0347 -0.0080
15305TIP3   OH267405   0.853   0.109  15.494 -0.5036 -0.0282  0.0706
15305TIP3    H167406   0.855   0.022  15.534 -3.3627 -0.4872 -0.6114
15305TIP3    H267407   0.793   0.159  15.549  0.1579  1.1819 -0.2681
15306TIP3   OH267408   0.475   2.553  12.935  0.0943  0.2527  0.1147
15306TIP3    H167409   0.490   2.642  12.968  1.9543 -0.2409  0.7398
15306TIP3    H267410   0.390   2.528  12.971 -0.2466  1.5947  0.3135
15307TIP3   OH267411   4.985   0.879  16.241  0.0240  0.6115  0.5064
15307TIP3    H167412   5.064   0.846  16.198  0.2533  2.0133 -0.2080
15307TIP3    H267413   4.932   0.916  16.171 -1.4857 -0.6339  0.9159
15308TIP3   OH267414   3.869   2.562  16.827 -0.1401  0.7629  0.2966
15308TIP3    H167415   3.893   2.632  16.888  0.6924  0.4323  0.3646
15308TIP3    H267416   3.940   2.498  16.836 -1.8301 -1.0366  1.6903
15309TIP3   OH267417   5.045   3.542   3.809  0.0250 -0.5470 -0.7439
15309TIP3    H167418   5.004   3.605   3.869  0.2301  0.4132 -1.5812
15309TIP3    H267419   4.988   3.465   3.812  0.1759 -0.6208  0.8662
15310TIP3   OH267420   5.873   3.065  11.688 -0.5657 -0.2014  0.1743
15310TIP3    H167421   5.797   3.106  11.730 -0.3411  0.2844  0.1089
15310TIP3    H267422   5.835   3.006  11.622 -0.8968 -0.3481  0.4916
15311TIP3   OH267423   2.897   4.384  14.676  0.0067  0.2385  0.0041
15311TIP3    H167424   2.862   4.453  14.733 -1.3801 -1.5256  1.3903
15311TIP3    H267425   2.827   4.320  14.668  1.4883 -1.4068 -0.6072
15312TIP3   OH267426   5.747   2.271  12.435 -0.0867  0.2403  0.3595
15312TIP3    H167427   5.760   2.339  12.501 -0.6913 -1.2980  2.1258
15312TIP3    H267428   5.679   2.306  12.378  2.0503  2.6036 -0.9693
15313TIP3   OH267429   2.982   5.585   5.723 -0.5963  0.6469  0.3472
15313TIP3    H167430   2.992   5.492   5.705 -1.3921  0.3391  1.4100
15313TIP3    H267431   3.017   5.628   5.645 -1.2747 -0.5581 -0.6614
15314TIP3   OH267432   0.540   2.220  11.157  0.0265 -0.0328 -0.3998
15314TIP3    H167433   0.498   2.290  11.108  0.8785  0.4649 -0.4429
15314TIP3    H267434   0.507   2.229  11.247  1.9646  2.0158  0.1927
15315TIP3   OH267435   5.190   2.704   6.137  0.3359  0.0273 -0.1403
15315TIP3    H167436   5.215   2.761   6.210 -0.6619  0.2385  0.0498
15315TIP3    H267437   5.100   2.679   6.156 -0.3393  0.9737 -1.8714
15316TIP3   OH267438   5.357   1.828  12.949  0.1928  0.2537 -1.0033
15316TIP3    H167439   5.304   1.823  12.870  0.4543 -1.2360 -1.1095
15316TIP3    H267440   5.447   1.833  12.918  0.2988 -0.3682 -0.8076
15317TIP3   OH267441   0.750   0.463  13.764 -0.1500 -0.3576  0.0583
15317TIP3    H167442   0.783   0.485  13.851  0.5221 -0.5593 -0.1383
15317TIP3    H267443   0.740   0.547  13.720  0.1760 -0.2931  0.1019
15318TIP3   OH267444   0.880   3.724  14.530 -0.0894 -0.4859  0.6859
15318TIP3    H167445   0.854   3.756  14.444 -1.3010  0.0621  1.2296
15318TIP3    H267446   0.958   3.672  14.514 -0.2182 -0.2769 -0.7222
15319TIP3   OH267447   5.411   3.601  14.604 -0.4594 -0.4107  0.0034
15319TIP3    H167448   5.403   3.604  14.699  0.5877 -0.2824  0.0916
15319TIP3    H267449   5.488   3.654  14.584 -1.5484  0.8402 -1.0409
15320TIP3   OH267450   0.814   2.558  13.578  0.2119  0.0078  0.6291
15320TIP3    H167451   0.906   2.580  13.568  0.4108 -0.8276  0.5823
15320TIP3    H267452   0.799   2.486  13.517 -0.8642  1.1491 -0.5193
15321TIP3   OH267453   2.841   1.252  13.291 -0.2932  0.1059 -0.0746
15321TIP3    H167454   2.807   1.341  13.283 -1.6271 -0.4907 -1.4213
15321TIP3    H267455   2.839   1.233  13.385 -0.8223  1.1724  0.1359
15322TIP3   OH267456   1.808   1.221  13.144  0.5805 -0.6274 -0.0036
15322TIP3    H167457   1.857   1.246  13.066 -0.0574 -1.9599 -0.8800
15322TIP3    H267458   1.721   1.259  13.131 -0.6119 -3.5486 -1.6691
15323TIP3   OH267459   1.762   0.257   4.386 -0.3913 -0.8321 -0.6769
15323TIP3    H167460   1.835   0.311   4.355 -1.0298  0.2377 -0.3865
15323TIP3    H267461   1.803   0.185   4.433  0.4832  0.3330  0.4322
15324TIP3   OH267462   0.787   3.142  16.241 -0.2939  0.4908 -0.1223
15324TIP3    H167463   0.788   3.053  16.275  0.8510  0.5544  0.0592
15324TIP3    H267464   0.877   3.158  16.214 -0.1866  2.0183  0.9941
15325TIP3   OH267465   1.005   6.646  13.205  0.4443  0.0215  0.1565
15325TIP3    H167466   0.985   6.633  13.297 -0.2172 -0.2166 -0.0125
15325TIP3    H267467   1.100   6.652  13.201  0.4346  0.9757  0.9763
15326TIP3   OH267468   0.129   2.589   5.768 -0.0119 -0.2891 -0.2454
15326TIP3    H167469   0.044   2.624   5.743 -1.3045 -3.7067 -1.2661
15326TIP3    H267470   0.185   2.604   5.692 -0.3382  0.0956 -0.4118
15327TIP3   OH267471   1.729   3.410  15.810 -0.2001 -0.3681 -0.3985
15327TIP3    H167472   1.791   3.445  15.875 -0.1998  0.5576 -0.8765
15327TIP3    H267473   1.676   3.347  15.859 -0.3904  0.5150  0.5844
15328TIP3   OH267474   1.280   6.139  14.544 -0.0963 -0.2629 -0.2126
15328TIP3    H167475   1.295   6.225  14.584 -1.3992 -1.0980  2.1941
15328TIP3    H267476   1.357   6.087  14.568 -0.1291 -0.3006 -0.1896
15329TIP3   OH267477   2.368   4.544   3.586  0.2306 -0.3561  0.2097
15329TIP3    H167478   2.373   4.622   3.532  1.4394 -0.8561 -0.4323
15329TIP3    H267479   2.311   4.569   3.659  0.8741  1.2246  0.2004
15330TIP3   OH267480   3.044   2.593  16.704  0.4675 -0.0406  0.2861
15330TIP3    H167481   3.136   2.600  16.727  0.1865 -0.0191  1.4650
15330TIP3    H267482   3.020   2.503  16.727  0.0151  0.1849  0.7222
15331TIP3   OH267483   4.187   0.149  15.374 -0.3358  0.2328 -0.0426
15331TIP3    H167484   4.160   0.100  15.297  0.5012 -0.7224  0.2643
15331TIP3    H267485   4.248   0.092  15.420 -0.3729  1.0162  1.0326
15332TIP3   OH267486   5.201   0.995  11.458  0.5051 -0.0022  0.2703
15332TIP3    H167487   5.119   0.986  11.505  0.0611 -0.3673 -0.5643
15332TIP3    H267488   5.237   1.079  11.487 -0.3352  0.3263  0.3646
15333TIP3   OH267489   3.920   6.505  13.551 -0.0868 -0.1446  0.2866
15333TIP3    H167490   3.958   6.470  13.632  1.5079  0.2257 -0.2517
15333TIP3    H267491   3.984   6.483  13.483 -1.2787 -0.2399 -0.8538
15334TIP3   OH267492   2.495   3.947   4.524 -0.2024  0.1630  0.4825
15334TIP3    H167493   2.581   3.912   4.500 -0.2269  0.4392 -0.0277
15334TIP3    H267494   2.513   4.033   4.560 -0.2327  0.0613  0.7406
15335TIP3   OH267495   3.353   3.105  14.057  0.0444 -0.7104 -0.2041
15335TIP3    H167496   3.278   3.050  14.081  0.8830 -0.5271  3.4126
15335TIP3    H267497   3.340   3.186  14.106  2.1928 -0.3617 -0.1097
15336TIP3   OH267498   3.694   3.202   2.121  0.2369  0.5562 -0.3165
15336TIP3    H167499   3.703   3.121   2.072 -0.6012 -0.6878  1.4548
15336TIP3    H267500   3.684   3.270   2.055  0.9369 -0.7794 -1.8495
15337TIP3   OH267501   2.290   6.503  15.897  0.2213  0.3975  0.7076
15337TIP3    H167502   2.340   6.533  15.973 -0.4898 -0.3812  1.4977
15337TIP3    H267503   2.208   6.553  15.901 -0.0520 -0.0583  0.7730
15338TIP3   OH267504   2.261   2.196  12.214 -0.1360  0.3442  0.2021
15338TIP3    H167505   2.322   2.245  12.268 -0.1762 -0.2603  0.8120
15338TIP3    H267506   2.179   2.244  12.220  0.4412  1.5865 -1.2338
15339TIP3   OH267507   1.687   3.572   2.713  0.0676  0.2910  0.0522
15339TIP3    H167508   1.604   3.598   2.673 -0.2240 -0.0930  0.4005
15339TIP3    H267509   1.664   3.547   2.802  0.6179  0.5340  0.2667
15340TIP3   OH267510   3.483   5.436   2.948 -0.4231  0.2696 -0.2491
15340TIP3    H167511   3.498   5.518   2.900  0.4473  1.8385  2.5101
15340TIP3    H267512   3.427   5.462   3.022  1.6242 -1.1109  1.9072
15341TIP3   OH267513   5.552   0.662   0.390 -0.1477  0.3192  0.2899
15341TIP3    H167514   5.637   0.663   0.435 -0.6333 -0.9063  1.2893
15341TIP3    H267515   5.520   0.751   0.398  0.7915  0.6599  0.4041
15342TIP3   OH267516   0.343   1.356   2.411 -0.2131  0.4391  0.6461
15342TIP3    H167517   0.369   1.419   2.344  0.5549  0.3804  0.8827
15342TIP3    H267518   0.404   1.284   2.403 -1.6682 -0.7517 -0.2538
15343TIP3   OH267519   0.704   3.730   1.090  0.3789  0.4725 -0.4281
15343TIP3    H167520   0.790   3.700   1.060  0.2648 -0.6708  0.3200
15343TIP3    H267521   0.710   3.726   1.185  0.5079  3.3602 -0.2475
15344TIP3   OH267522   4.850   1.428   5.293  0.1538 -0.7485 -0.3838
15344TIP3    H167523   4.841   1.440   5.387 -0.0461 -0.8631 -0.3876
15344TIP3    H267524   4.942   1.445   5.275  0.5131 -2.1496  0.0319
15345TIP3   OH267525   6.381   4.825   2.259  0.0738 -0.0311  0.4344
15345TIP3    H167526   6.291   4.802   2.280 -0.6709  2.6039  0.5248
15345TIP3    H267527   6.400   4.902   2.313  2.8833 -1.2722  1.4210
15346TIP3   OH267528   2.926   5.391   3.986  0.1222 -0.1712  0.1384
15346TIP3    H167529   2.893   5.465   3.935 -1.1218 -1.5386 -1.1800
15346TIP3    H267530   2.847   5.346   4.016  0.8397 -0.9291  0.9441
15347TIP3   OH267531   2.763   0.271  17.221  0.3878  0.3669  0.7630
15347TIP3    H167532   2.836   0.238  17.168  0.9085  1.5177  0.7321
15347TIP3    H267533   2.798   0.274  17.310  0.1612  0.2928  0.8534
15348TIP3   OH267534   3.794   4.827  13.832 -0.7589 -0.2646  0.5326
15348TIP3    H167535   3.847   4.813  13.753 -0.5756  0.1266  0.5833
15348TIP3    H267536   3.818   4.755  13.890 -3.0041 -2.3020 -0.8423
15349TIP3   OH267537   1.907   2.541   5.808  0.2990 -0.4804 -0.4874
15349TIP3    H167538   1.903   2.609   5.875 -0.2652 -1.6468  0.7091
15349TIP3    H267539   1.997   2.510   5.812  0.7824  0.7037 -1.5938
15350TIP3   OH267540   0.359   0.612   5.999 -0.1365  0.2527  0.1743
15350TIP3    H167541   0.355   0.699   6.039 -1.8496  0.1861  0.2082
15350TIP3    H267542   0.376   0.553   6.073  0.8726  0.5257  0.1735
15351TIP3   OH267543   1.305   5.136  16.503 -0.0246  0.8227 -0.2092
15351TIP3    H167544   1.255   5.082  16.563  0.5709 -0.9419 -1.2309
15351TIP3    H267545   1.255   5.134  16.421  0.7843  0.5361 -0.7055
15352TIP3   OH267546   5.089   6.183   3.287 -0.1446 -0.4446  0.0342
15352TIP3    H167547   5.054   6.270   3.307  0.0450 -0.0434 -1.2682
15352TIP3    H267548   5.157   6.199   3.221 -0.1486 -1.5917 -0.2716
15353TIP3   OH267549   5.165   5.217   4.394 -0.4373 -0.4118  0.1004
15353TIP3    H167550   5.139   5.233   4.303  0.3423 -0.5089 -0.1487
15353TIP3    H267551   5.097   5.259   4.446 -1.0291 -0.5757 -0.5284
15354TIP3   OH267552   1.279   1.605  11.414 -0.4627 -0.3538  0.9408
15354TIP3    H167553   1.291   1.565  11.328  1.0392  1.3037  0.3121
15354TIP3    H267554   1.247   1.534  11.469  0.5989 -1.9969 -0.4635
15355TIP3   OH267555   4.221   3.737   4.838 -0.5587 -0.7567  0.0980
15355TIP3    H167556   4.259   3.682   4.770 -1.8111  0.1312 -1.3744
15355TIP3    H267557   4.295   3.760   4.894  0.6078 -1.0582 -1.2633
15356TIP3   OH267558   0.548   0.028  13.091  0.6230  0.0008  0.4385
15356TIP3    H167559   0.541  -0.063  13.120  2.6207 -0.7091 -1.0709
15356TIP3    H267560   0.642   0.042  13.079  0.3202  2.1341  0.1714
15357TIP3   OH267561   4.862   1.627   2.677 -0.3027  0.5049  0.7606
15357TIP3    H167562   4.870   1.557   2.742  0.0396 -0.3682 -0.1953
15357TIP3    H267563   4.951   1.643   2.648 -0.6550 -0.8947 -1.2934
15358TIP3   OH267564   1.431   4.121   2.506  0.3209  0.6085 -0.4584
15358TIP3    H167565   1.368   4.053   2.528  1.6570 -0.6772 -0.4995
15358TIP3    H267566   1.517   4.082   2.523  1.1266  2.4477 -0.0064
15359TIP3   OH267567   1.719   5.470   1.046 -0.3808 -0.1711 -0.0857
15359TIP3    H167568   1.746   5.392   1.094  0.9271  0.8253  0.8805
15359TIP3    H267569   1.708   5.537   1.113 -3.0388  0.1172 -0.7120
15360TIP3   OH267570   0.974   2.209   2.915  0.2773 -0.0174  0.2113
15360TIP3    H167571   0.898   2.227   2.971  1.1712 -0.2953  1.5621
15360TIP3    H267572   0.968   2.115   2.897  0.9199 -0.2936  1.3219
15361TIP3   OH267573   1.258   2.289  12.090  0.3128 -0.4406  0.0512
15361TIP3    H167574   1.175   2.336  12.079 -0.2838 -1.6933 -1.0288
15361TIP3    H267575   1.296   2.326  12.170 -0.3704  1.4883 -0.4517
15362TIP3   OH267576   0.795   5.403   1.238  0.1184 -0.0314  0.0563
15362TIP3    H167577   0.798   5.495   1.214  0.1284  0.0464  0.3443
15362TIP3    H267578   0.728   5.398   1.306  0.5133 -0.1366  0.4479
15363TIP3   OH267579   6.128   2.435  13.713  0.1351 -0.2632 -0.1484
15363TIP3    H167580   6.127   2.530  13.714  0.5108 -0.2187 -1.5444
15363TIP3    H267581   6.162   2.412  13.626  1.2240 -1.6516  0.5953
15364TIP3   OH267582   1.568   3.526  14.852  0.3991  0.0683  0.2132
15364TIP3    H167583   1.614   3.558  14.774  3.1037  1.4264  2.2021
15364TIP3    H267584   1.509   3.597  14.876 -0.1977 -0.2199 -0.3479
15365TIP3   OH267585   0.691   6.024  11.044  0.5668 -0.2071 -0.3809
15365TIP3    H167586   0.721   6.000  11.131 -0.7742  1.6712  0.6775
15365TIP3    H267587   0.729   6.110  11.028 -1.0362  0.5114 -0.6140
15366TIP3   OH267588   4.181   0.344   1.222 -0.0644 -0.5532  0.2213
15366TIP3    H167589   4.134   0.427   1.230  0.3512 -0.4225  1.5840
15366TIP3    H267590   4.133   0.295   1.156  0.2724  1.1612 -1.3625
15367TIP3   OH267591   1.626   5.370   0.251  0.5160 -0.5563 -0.4258
15367TIP3    H167592   1.624   5.458   0.213 -1.1079  0.6342  2.1057
15367TIP3    H267593   1.650   5.385   0.343  0.3443 -2.7666  0.0235
15368TIP3   OH267594   2.202   1.522  11.643 -0.2065 -0.0303  0.0126
15368TIP3    H167595   2.163   1.467  11.711  0.9389 -1.0067 -0.0874
15368TIP3    H267596   2.189   1.472  11.562  1.3106 -0.4206 -0.0028
15369TIP3   OH267597   5.432   3.242   5.598  0.2646  0.0145  0.1093
15369TIP3    H167598   5.435   3.148   5.614 -2.1337 -0.0860  0.2538
15369TIP3    H267599   5.448   3.250   5.504 -0.4159 -0.6400 -0.0784
15370TIP3   OH267600   4.783   4.006   4.736 -0.4856 -0.0122  0.4086
15370TIP3    H167601   4.816   3.933   4.683 -2.0531 -0.8324  0.5158
15370TIP3    H267602   4.721   3.966   4.796 -0.9952  1.3501  0.8287
15371TIP3   OH267603   4.609   6.815  14.839  0.0020  0.0355 -0.0586
15371TIP3    H167604   4.640   6.897  14.802  3.1505 -1.1493 -0.4014
15371TIP3    H267605   4.538   6.788  14.781 -1.8257  2.8898  0.6588
15372TIP3   OH267606   1.650   5.316  17.097 -0.0912  0.1809  0.0026
15372TIP3    H167607   1.691   5.382  17.153  1.2088 -0.6800  0.0945
15372TIP3    H267608   1.641   5.239  17.153  2.1954 -1.0501 -1.1629
15373TIP3   OH267609   2.181   0.596  11.745  0.0176  0.4542  0.2975
15373TIP3    H167610   2.138   0.680  11.728  0.4718  0.5180 -0.5641
15373TIP3    H267611   2.272   0.610  11.720  0.1170 -0.2737  0.2452
15374TIP3   OH267612   0.356   4.630   1.308 -0.1731  0.2912 -0.4239
15374TIP3    H167613   0.293   4.694   1.275  2.3784  1.3243 -3.9489
15374TIP3    H267614   0.420   4.681   1.357 -0.5844 -0.3247  0.7847
15375TIP3   OH267615   6.269   6.766  16.770 -0.3510 -0.3991 -0.1482
15375TIP3    H167616   6.233   6.697  16.715 -2.3541  1.1568 -0.8992
15375TIP3    H267617   6.197   6.792  16.827  0.2098  1.3062 -0.1408
15376TIP3   OH267618   4.694   6.477   3.908  0.1338  0.1696 -0.1477
15376TIP3    H167619   4.615   6.472   3.855 -0.6885 -2.0987  1.1359
15376TIP3    H267620   4.762   6.505   3.847 -0.8892 -1.6633 -2.2902
15377TIP3   OH267621   0.965   1.167  13.844  0.3239 -0.6369 -0.2068
15377TIP3    H167622   1.057   1.192  13.835 -0.1880  0.6023 -2.8399
15377TIP3    H267623   0.916   1.247  13.826 -1.2941 -1.5310  0.0450
15378TIP3   OH267624   1.698   6.332  14.617 -0.1257 -0.9442 -0.6077
15378TIP3    H167625   1.648   6.378  14.685  0.1121 -0.3688 -0.8258
15378TIP3    H267626   1.642   6.257  14.594 -0.3136 -1.0184  0.0543
15379TIP3   OH267627   6.493   4.962  16.965  0.2522  0.4530 -0.0662
15379TIP3    H167628   6.568   5.017  16.943 -0.3930  0.7383 -1.6949
15379TIP3    H267629   6.518   4.875  16.932  0.3938  0.2440  0.5801
15380TIP3   OH267630   2.439   4.079  13.655 -0.0063 -0.3554  0.0875
15380TIP3    H167631   2.369   4.017  13.633  1.6576 -1.5932 -2.2594
15380TIP3    H267632   2.486   4.091  13.573  1.2796  2.1216  1.0813
15381TIP3   OH267633   5.264   2.250  14.461  0.0226 -0.6577 -0.5377
15381TIP3    H167634   5.238   2.274  14.550  0.2569 -0.4559 -0.5224
15381TIP3    H267635   5.355   2.220  14.470  0.1494 -0.3424 -0.7569
15382TIP3   OH267636   6.819   1.213   4.551 -0.4495 -0.2244 -0.5039
15382TIP3    H167637   6.767   1.234   4.628 -0.0145 -1.5042  0.1786
15382TIP3    H267638   6.791   1.124   4.527  1.7132 -1.1634  0.2013
15383TIP3   OH267639   0.541   3.425  11.762 -0.4381  0.8309 -0.0460
15383TIP3    H167640   0.487   3.421  11.683  1.6113  1.7943 -1.6060
15383TIP3    H267641   0.539   3.518  11.787  0.7483  0.9576 -0.3623
15384TIP3   OH267642   1.500   0.990   2.883 -0.0890  0.1300 -0.5489
15384TIP3    H167643   1.464   0.905   2.860  0.3297 -0.0068 -0.7248
15384TIP3    H267644   1.424   1.045   2.903 -0.3158 -0.6702  0.9628
15385TIP3   OH267645   1.063   4.363  11.584  0.0014  0.0817 -0.1480
15385TIP3    H167646   1.055   4.457  11.598 -0.8259 -0.0891  0.6555
15385TIP3    H267647   0.973   4.332  11.577  0.0655 -1.0646  2.7179
15386TIP3   OH267648   3.064   2.930  12.474 -0.1603  0.0098  0.2970
15386TIP3    H167649   3.049   2.918  12.380  0.9042 -0.0328  0.1227
15386TIP3    H267650   2.977   2.927  12.513 -0.6269  0.2051 -0.7115
15387TIP3   OH267651   4.586   1.251   3.668 -0.3213 -0.7029  0.3823
15387TIP3    H167652   4.514   1.192   3.688 -0.2707 -1.2019 -0.8524
15387TIP3    H267653   4.571   1.278   3.577 -0.3023  1.1218  0.8871
15388TIP3   OH267654   5.929   0.977  16.716 -0.6331 -0.6308 -0.1922
15388TIP3    H167655   5.868   0.980  16.790 -1.5605  1.3035 -0.9472
15388TIP3    H267656   5.969   0.891  16.721 -0.0986 -0.3086  2.9920
15389TIP3   OH267657   1.732   2.274  16.977  0.3239  0.1599 -0.2671
15389TIP3    H167658   1.721   2.248  16.886  1.8884  1.5940 -0.8986
15389TIP3    H267659   1.670   2.346  16.990  0.2794  0.1208 -0.2619
15390TIP3   OH267660   6.808   1.507  12.132  0.3717 -0.0158 -0.5105
15390TIP3    H167661   6.751   1.536  12.204  0.7048 -1.5038  0.3984
15390TIP3    H267662   6.896   1.526  12.162  0.4957 -0.3043 -0.6919
15391TIP3   OH267663   0.882   4.308   3.451 -0.1713  0.0433 -0.3722
15391TIP3    H167664   0.805   4.290   3.398 -0.8568 -0.7113  0.8495
15391TIP3    H267665   0.940   4.358   3.393 -1.1965 -0.1347 -1.5798
15392TIP3   OH267666   5.659   3.279  14.781  0.4434 -0.3149  0.5576
15392TIP3    H167667   5.678   3.279  14.687  0.7035 -0.6313  0.6071
15392TIP3    H267668   5.651   3.371  14.804 -0.2419 -0.2562  0.0997
15393TIP3   OH267669   0.923   1.425   6.076 -0.0753 -0.1381  0.2929
15393TIP3    H167670   0.874   1.442   5.995 -2.3056 -1.3223  1.2899
15393TIP3    H267671   0.980   1.352   6.055 -2.3968 -2.0950  0.3164
15394TIP3   OH267672   0.321   1.214  16.294  0.1748 -0.4048 -0.2753
15394TIP3    H167673   0.396   1.162  16.323 -0.7430 -1.4946  0.2468
15394TIP3    H267674   0.271   1.230  16.374 -1.3198 -1.6722 -0.8960
15395TIP3   OH267675   5.602   3.519   4.656  0.1234  0.1918  0.1049
15395TIP3    H167676   5.525   3.570   4.681  0.5628 -0.0947  2.2928
15395TIP3    H267677   5.567   3.437   4.623 -0.5334  1.0436 -1.4100
15396TIP3   OH267678   3.406   6.111  11.457 -0.6850 -0.6887  0.2087
15396TIP3    H167679   3.349   6.162  11.516 -1.8415 -0.7077 -0.8440
15396TIP3    H267680   3.413   6.165  11.379  0.8407 -0.6622  0.3452
15397TIP3   OH267681   2.844   2.335   0.399 -0.2907  0.5196 -0.0611
15397TIP3    H167682   2.913   2.393   0.432 -0.8919  0.3430  1.5815
15397TIP3    H267683   2.815   2.377   0.317  1.8118  0.5236 -0.8628
15398TIP3   OH267684   4.226   5.777   1.366 -0.3342  0.0290 -0.1469
15398TIP3    H167685   4.226   5.769   1.271  1.7514 -0.2811 -0.1702
15398TIP3    H267686   4.185   5.696   1.397 -1.8367  0.5243 -0.7642
15399TIP3   OH267687   4.439   6.077   1.789 -0.0552 -0.1341  0.5682
15399TIP3    H167688   4.514   6.036   1.832 -0.4765 -2.2345 -0.5700
15399TIP3    H267689   4.477   6.126   1.717  0.2630 -1.1921 -0.0065
15400TIP3   OH267690   0.417   3.591  10.944 -0.3262  0.2975  0.2280
15400TIP3    H167691   0.440   3.575  11.036 -2.0905 -3.7368  0.1987
15400TIP3    H267692   0.501   3.593  10.898  0.5045 -1.0155  1.5857
15401TIP3   OH267693   0.572   1.762  14.170  0.3295  0.1543 -0.0225
15401TIP3    H167694   0.663   1.791  14.177  0.2269  0.5483 -0.2711
15401TIP3    H267695   0.521   1.840  14.189  0.0389 -0.1153  0.3185
15402TIP3   OH267696   5.027   1.234   2.404 -0.1710 -0.1175  0.6139
15402TIP3    H167697   4.957   1.254   2.467 -0.3874 -1.6710  0.9109
15402TIP3    H267698   5.033   1.138   2.404 -1.1068 -0.3154 -2.7227
15403TIP3   OH267699   6.486   5.295   2.789 -0.1524  0.2661 -0.2364
15403TIP3    H167700   6.542   5.235   2.739  1.1344  0.6612  0.6926
15403TIP3    H267701   6.437   5.238   2.849 -1.3410 -0.1575 -1.5424
15404TIP3   OH267702   4.007   1.751   5.345 -0.2546  0.2116 -0.8851
15404TIP3    H167703   4.103   1.744   5.345 -0.3314 -1.0508 -0.3661
15404TIP3    H267704   3.991   1.843   5.325  1.1223  0.9346  0.9850
15405TIP3   OH267705   4.811   0.812   4.620  0.1243  0.1444 -0.4927
15405TIP3    H167706   4.810   0.787   4.713 -0.0732 -1.2910 -0.8520
15405TIP3    H267707   4.766   0.896   4.617 -2.1675 -0.9763  0.4135
15406TIP3   OH267708   3.063   6.703   2.612 -0.7495  0.0674  0.2691
15406TIP3    H167709   3.087   6.697   2.520  0.5087  0.4130  0.5563
15406TIP3    H267710   2.969   6.682   2.614 -0.7894  0.0424 -1.0737
15407TIP3   OH267711   4.735   4.878  12.930 -0.0304 -0.1854  0.0343
15407TIP3    H167712   4.781   4.857  12.849  1.5725  0.7974  0.6359
15407TIP3    H267713   4.709   4.793  12.965 -0.9227 -0.6145 -1.5590
15408TIP3   OH267714   5.151   0.141   5.028 -0.3393 -0.4464 -0.3782
15408TIP3    H167715   5.073   0.176   4.985 -1.0206 -0.1536  1.0459
15408TIP3    H267716   5.171   0.205   5.097  0.6249 -0.9742 -0.1558
15409TIP3   OH267717   0.002   1.573   3.783  0.1850 -0.2897 -0.5139
15409TIP3    H167718   0.060   1.580   3.859 -0.5421  1.6963 -0.0805
15409TIP3    H267719  -0.086   1.583   3.819 -0.1364  1.3938 -1.6571
15410TIP3   OH267720   1.573   6.304  12.034 -0.1545  0.5231 -0.1278
15410TIP3    H167721   1.499   6.360  12.056  1.4278  1.7287  2.5293
15410TIP3    H267722   1.579   6.243  12.107  0.1753 -1.0332 -1.3973
15411TIP3   OH267723   0.162   2.050  12.974  0.6752 -0.6622  0.7181
15411TIP3    H167724   0.115   2.065  12.893  2.4650 -1.1668 -0.4666
15411TIP3    H267725   0.202   2.135  12.995 -0.7876 -0.1883  1.8136
15412TIP3   OH267726   6.398   6.694   3.020 -0.1084 -0.1371  0.1560
15412TIP3    H167727   6.483   6.723   2.987  0.0438 -0.4332  0.2859
15412TIP3    H267728   6.402   6.598   3.016  0.0951 -0.1981  1.5034
15413TIP3   OH267729   5.522   4.811   0.611  0.8850 -0.0119  0.0237
15413TIP3    H167730   5.499   4.900   0.639 -0.3562 -0.3586  0.1666
15413TIP3    H267731   5.513   4.814   0.516  1.8277  0.2675 -0.0693
15414TIP3   OH267732   4.183   3.861   3.458  0.4074  0.8709 -0.2487
15414TIP3    H167733   4.219   3.850   3.370  0.0337 -0.3541 -0.2629
15414TIP3    H267734   4.119   3.931   3.450 -0.6519 -0.1782 -1.2803
15415TIP3   OH267735   6.649   3.169  15.747  0.1172 -0.4324  0.1309
15415TIP3    H167736   6.738   3.139  15.765  0.3083 -0.6109 -0.9959
15415TIP3    H267737   6.597   3.088  15.746  0.3224 -0.5728 -1.1969
15416TIP3   OH267738   1.777   0.847  16.791  0.6133  0.6059 -0.2883
15416TIP3    H167739   1.690   0.874  16.761  0.9209  1.1854 -0.6846
15416TIP3    H267740   1.768   0.835  16.885 -0.4532 -1.5457 -0.6113
15417TIP3   OH267741   3.692   0.606   3.056 -0.0352 -0.4109  0.0212
15417TIP3    H167742   3.719   0.514   3.058 -0.2912 -0.5733 -1.8541
15417TIP3    H267743   3.641   0.618   3.136  0.6985 -1.6681  0.7076
15418TIP3   OH267744   3.289   6.646   1.214 -0.4111  0.0901  0.2350
15418TIP3    H167745   3.357   6.624   1.150 -0.1694 -3.2357  1.3989
15418TIP3    H267746   3.225   6.576   1.205 -3.1264  2.4249  0.1028
15419TIP3   OH267747   0.130   3.480   1.854 -0.1799 -0.5748 -0.9261
15419TIP3    H167748   0.143   3.458   1.946 -1.4401 -2.2035 -1.0831
15419TIP3    H267749   0.063   3.549   1.855 -2.2756 -2.4973 -0.6501
15420TIP3   OH267750   0.301   2.361  15.678  0.2310 -0.3304 -0.2290
15420TIP3    H167751   0.284   2.271  15.652 -0.5126 -0.2645 -0.0026
15420TIP3    H267752   0.283   2.363  15.772  0.7607 -0.0687 -0.1314
15421TIP3   OH267753   6.450   0.024   1.392 -0.0458  0.1267 -0.5188
15421TIP3    H167754   6.535   0.041   1.351 -0.4714 -0.3523 -1.6644
15421TIP3    H267755   6.389   0.019   1.318 -0.5922 -2.3360  0.0008
15422TIP3   OH267756   0.537   3.775   4.036  0.1576  0.3390 -0.2699
15422TIP3    H167757   0.512   3.737   4.120  2.4168  1.3745  0.9632
15422TIP3    H267758   0.595   3.710   3.996 -1.3199 -0.3885 -1.3615
15423TIP3   OH267759   2.009   0.174   1.407 -0.0682 -0.1710  0.3288
15423TIP3    H167760   1.932   0.197   1.355 -0.7839 -1.7696  0.6269
15423TIP3    H267761   2.023   0.081   1.390  1.3609 -0.0847  0.8688
15424TIP3   OH267762   0.361   1.325   5.515  0.1564  0.2724  0.6278
15424TIP3    H167763   0.334   1.252   5.570 -0.4076  1.0899  1.4585
15424TIP3    H267764   0.285   1.344   5.460  0.8073 -0.7203 -0.6718
15425TIP3   OH267765   5.992   0.569  16.416 -0.3773  0.0488  0.1180
15425TIP3    H167766   5.902   0.562  16.446 -0.4861 -0.6665 -0.3540
15425TIP3    H267767   5.996   0.516  16.336  0.5615 -0.2955  0.3721
15426TIP3   OH267768   6.214   6.348   2.549  0.2161 -0.3086 -0.4470
15426TIP3    H167769   6.161   6.388   2.618  0.7382 -0.1241 -0.1470
15426TIP3    H267770   6.152   6.328   2.479 -0.3073 -0.4278  0.0448
15427TIP3   OH267771   2.257   5.705  11.502 -0.2674 -0.2251 -0.4613
15427TIP3    H167772   2.322   5.661  11.448  0.0225 -0.6230  0.1977
15427TIP3    H267773   2.256   5.655  11.583 -1.7266 -0.5039 -0.6291
15428TIP3   OH267774   3.670   2.020  12.256 -0.5544  0.0798  0.6281
15428TIP3    H167775   3.729   1.974  12.315 -1.1251 -0.1418  1.0420
15428TIP3    H267776   3.612   2.069  12.315 -0.7464  0.3389  0.2291
15429TIP3   OH267777   6.014   6.614  16.106 -0.1006  0.1109 -0.0641
15429TIP3    H167778   6.004   6.708  16.091 -0.7123  0.1871  0.7624
15429TIP3    H267779   5.964   6.597  16.185 -1.9114 -1.3152 -1.4363
15430TIP3   OH267780   4.038   1.645   2.371 -0.4346  0.0313  0.6244
15430TIP3    H167781   4.038   1.685   2.284 -2.0191  1.3178  1.1799
15430TIP3    H267782   4.123   1.601   2.377  1.0463  2.5449 -0.3724
15431TIP3   OH267783   0.628   1.030  13.318  0.0284  0.3696  0.2102
15431TIP3    H167784   0.541   1.008  13.283 -0.0067  0.1424  0.4392
15431TIP3    H267785   0.682   0.954  13.296 -0.1251 -0.0163  1.1237
15432TIP3   OH267786   1.726   3.435   0.544  0.0686 -0.2380 -0.6826
15432TIP3    H167787   1.656   3.384   0.504 -0.2745  0.0894 -0.5037
15432TIP3    H267788   1.682   3.493   0.606  0.6623 -1.4538  0.9556
15433TIP3   OH267789   0.970   0.666  11.596  0.2530 -0.2517  0.0069
15433TIP3    H167790   1.025   0.720  11.540 -0.0404  0.4931  0.4138
15433TIP3    H267791   0.922   0.730  11.650 -0.4809 -0.9054  0.1401
15434TIP3   OH267792   5.001   4.732   5.468 -0.8625 -0.0966  0.4964
15434TIP3    H167793   5.001   4.664   5.535 -1.2586  0.8968  1.5356
15434TIP3    H267794   5.005   4.684   5.385  0.4704 -1.3311  1.2281
15435TIP3   OH267795   3.191   4.047   4.199 -0.5724  0.4482 -0.2204
15435TIP3    H167796   3.096   4.044   4.193 -0.5828 -0.2407  0.1217
15435TIP3    H267797   3.221   4.060   4.109 -0.9829  0.5106 -0.3502
15436TIP3   OH267798   4.960   5.774  13.299 -0.7507  0.4425 -0.1063
15436TIP3    H167799   5.044   5.746  13.335 -0.3680  0.7261 -0.7617
15436TIP3    H267800   4.927   5.838  13.361  0.0906  1.2239 -0.4532
15437TIP3   OH267801   4.523   0.837  13.429 -0.5057 -0.3323  0.7677
15437TIP3    H167802   4.571   0.837  13.346  1.8452  2.2312  1.9662
15437TIP3    H267803   4.476   0.921  13.429 -1.2594 -0.7387  1.6501
15438TIP3   OH267804   0.290   4.900   4.435  0.0679 -0.5595  0.2600
15438TIP3    H167805   0.366   4.944   4.399 -0.2318 -1.1054 -1.1166
15438TIP3    H267806   0.303   4.902   4.530  0.3966  1.8401  0.2252
15439TIP3   OH267807   2.865   1.880   4.402  0.0077 -0.6296 -0.1679
15439TIP3    H167808   2.891   1.791   4.426  0.1248 -0.4986  0.2028
15439TIP3    H267809   2.922   1.902   4.329 -0.1552 -0.9298 -0.3877
15440TIP3   OH267810   2.699   4.938   0.462 -0.2154  0.0239 -0.2908
15440TIP3    H167811   2.778   4.967   0.416 -0.2854  0.8886  0.1154
15440TIP3    H267812   2.629   4.992   0.425 -0.3973  0.1645  0.2559
15441TIP3   OH267813   3.012   1.829   1.852  1.0940  0.3840 -0.0990
15441TIP3    H167814   3.049   1.917   1.852 -0.1414  0.9651 -1.9432
15441TIP3    H267815   2.935   1.834   1.909  1.9082  0.0507  1.0613
15442TIP3   OH267816   4.936   1.606  12.378  0.2112 -0.0926  0.2050
15442TIP3    H167817   5.001   1.661  12.334 -0.5070  1.5912  1.1433
15442TIP3    H267818   4.956   1.517  12.349  2.5578  0.4291  0.0118
15443TIP3   OH267819   4.750   2.854  14.896  0.2252  0.1113 -0.1129
15443TIP3    H167820   4.758   2.801  14.817 -0.8140  0.1767 -0.2760
15443TIP3    H267821   4.657   2.871  14.904  0.2717 -0.1493  1.2932
15444TIP3   OH267822   4.344   4.936  13.410  0.4391  0.6061 -0.1118
15444TIP3    H167823   4.292   4.922  13.330 -1.0460  0.0054  0.9115
15444TIP3    H267824   4.279   4.945  13.479  1.6871 -1.3467  1.4183
15445TIP3   OH267825   5.964   4.046   3.904  0.0577  0.1540 -0.2540
15445TIP3    H167826   5.899   4.053   3.973  0.6035 -0.6328  0.3605
15445TIP3    H267827   6.048   4.046   3.949  0.5686  2.2662 -1.1070
15446TIP3   OH267828   6.450   2.477   0.386  0.2912 -0.6794  0.1539
15446TIP3    H167829   6.425   2.393   0.426  1.4654 -1.5662 -0.8741
15446TIP3    H267830   6.508   2.452   0.314 -0.8160  0.9316 -1.3498
15447TIP3   OH267831   6.639   3.467   2.867 -0.3921  0.8947  0.0799
15447TIP3    H167832   6.697   3.502   2.935 -0.8547  0.7372  0.5607
15447TIP3    H267833   6.621   3.377   2.894  0.7793  0.2490 -1.1450
15448TIP3   OH267834   0.887   6.252  12.096  0.1135 -0.1599 -0.1557
15448TIP3    H167835   0.860   6.196  12.170  1.4439  1.4443  1.6441
15448TIP3    H267836   0.870   6.198  12.019 -0.3697 -2.3446  1.3603
15449TIP3   OH267837   3.215   2.753   5.569  0.1042  0.3690 -0.1626
15449TIP3    H167838   3.176   2.685   5.514  0.8589  0.3798 -0.7235
15449TIP3    H267839   3.195   2.725   5.658  0.7200 -0.8133 -0.3622
15450TIP3   OH267840   2.073   1.111  14.561  0.6096 -0.3126 -0.3363
15450TIP3    H167841   2.142   1.176  14.567  0.6870 -0.4863  1.0755
15450TIP3    H267842   1.996   1.160  14.534  0.8690  0.2094 -0.1460
15451TIP3   OH267843   2.621   3.318   1.466  0.1325  0.1907  0.3747
15451TIP3    H167844   2.536   3.338   1.505 -0.5046 -1.9194  0.1644
15451TIP3    H267845   2.600   3.272   1.385  1.4116 -2.3870  1.3983
15452TIP3   OH267846   2.295   5.623  16.549 -0.2743 -0.0069 -0.0113
15452TIP3    H167847   2.350   5.564  16.602  1.7586  1.3929 -0.4550
15452TIP3    H267848   2.287   5.578  16.465 -0.0050 -0.3417  0.1370
15453TIP3   OH267849   3.698   1.329   4.344 -0.4744  0.1943  0.3554
15453TIP3    H167850   3.718   1.266   4.274 -0.2793  0.1851  0.4166
15453TIP3    H267851   3.603   1.333   4.348 -0.4856  0.1581  0.1206
15454TIP3   OH267852   5.814   2.934  16.865 -0.4344  0.7578 -0.2884
15454TIP3    H167853   5.827   2.883  16.785  0.1184 -0.2722  0.4288
15454TIP3    H267854   5.895   2.921  16.914 -1.8561 -1.0837  1.7558
15455TIP3   OH267855   6.146   0.990  15.814 -0.1433  0.5607  0.1488
15455TIP3    H167856   6.115   0.943  15.891  0.9100 -0.4726 -0.0202
15455TIP3    H267857   6.099   0.950  15.741  1.1139 -0.6471 -0.0508
15456TIP3   OH267858   0.580   3.387  12.581  0.2072  0.9786  0.3461
15456TIP3    H167859   0.519   3.384  12.655 -1.4323 -0.1973 -0.9849
15456TIP3    H267860   0.578   3.479  12.553 -0.6161  1.0454  0.5988
15457TIP3   OH267861   0.179   2.733   1.467  0.2407 -0.3328  0.0779
15457TIP3    H167862   0.085   2.735   1.451  0.4931  1.9927 -1.7435
15457TIP3    H267863   0.188   2.716   1.560 -2.0025 -0.1033  0.3781
15458TIP3   OH267864   2.772   1.516  14.801  0.6821  0.3558 -0.4364
15458TIP3    H167865   2.822   1.503  14.720 -0.6914  0.7781 -1.3901
15458TIP3    H267866   2.681   1.512  14.773  0.1668 -0.1782  1.2267
15459TIP3   OH267867   3.016   0.366   4.130 -0.3254 -0.3850 -0.3644
15459TIP3    H167868   3.080   0.438   4.133  0.0006 -0.6535 -0.7618
15459TIP3    H267869   3.006   0.339   4.221  0.3992 -0.5755 -0.3358
15460TIP3   OH267870   6.634   4.108  12.488 -0.0782  0.7430  0.1907
15460TIP3    H167871   6.672   4.185  12.532 -0.8723  0.3469  1.6428
15460TIP3    H267872   6.666   4.034  12.539 -0.4641  0.2105 -0.3406
15461TIP3   OH267873   3.840   1.105   3.486 -0.4620 -0.6173 -0.0246
15461TIP3    H167874   3.772   1.087   3.422 -0.4123  1.0161 -0.5688
15461TIP3    H267875   3.796   1.155   3.555 -0.0259 -0.3884  0.0944
15462TIP3   OH267876   0.977   2.549  16.981  0.7223 -0.6473  0.1653
15462TIP3    H167877   0.903   2.544  16.921  1.3942 -0.2289 -0.7167
15462TIP3    H267878   1.040   2.606  16.937  1.1058 -0.0733  1.4014
15463TIP3   OH267879   2.441   3.296   2.285  0.5317 -0.2566 -0.0347
15463TIP3    H167880   2.360   3.277   2.237  0.4850 -0.6264  0.1880
15463TIP3    H267881   2.503   3.230   2.254  0.8999  0.3276 -0.5687
15464TIP3   OH267882   3.895   1.892  10.681 -0.5892  0.5063  0.2848
15464TIP3    H167883   3.979   1.848  10.671  0.8630  2.7491  1.7761
15464TIP3    H267884   3.830   1.822  10.673  1.3583 -1.2575 -1.1693
15465TIP3   OH267885   0.928   0.567   2.625 -0.0590  0.3435 -0.8425
15465TIP3    H167886   0.860   0.627   2.593 -0.0234 -0.0552 -1.6759
15465TIP3    H267887   0.880   0.494   2.663 -0.1264  1.3657  1.1760
15466TIP3   OH267888   1.168   0.635   1.031  0.7949  0.0775 -0.0688
15466TIP3    H167889   1.244   0.667   0.982 -0.4461  1.1034 -1.4303
15466TIP3    H267890   1.192   0.644   1.123  2.3700  0.1968 -0.4681
15467TIP3   OH267891   2.818   1.498  15.066  0.0877 -0.0522 -0.6999
15467TIP3    H167892   2.839   1.484  14.973  1.5985  1.1336 -0.5631
15467TIP3    H267893   2.736   1.548  15.064 -1.7645 -2.8288 -1.2693
15468TIP3   OH267894   2.443   2.287  11.408  0.1570  0.0100 -0.0325
15468TIP3    H167895   2.422   2.351  11.339  0.1453  0.6244  0.5325
15468TIP3    H267896   2.409   2.204  11.374  1.4513  0.0093 -1.4130
15469TIP3   OH267897   2.776   1.896  15.741 -0.1410  0.2093  0.4974
15469TIP3    H167898   2.825   1.916  15.821  1.6161 -0.2588 -0.4030
15469TIP3    H267899   2.784   1.801  15.732 -0.3198  0.2561 -0.2251
15470TIP3   OH267900   0.738   2.413  14.608  0.0681 -0.8064  0.1759
15470TIP3    H167901   0.769   2.397  14.519 -0.1988 -0.7515  0.0719
15470TIP3    H267902   0.762   2.334  14.656  0.1659 -0.8582  0.0443
15471TIP3   OH267903   6.227   3.881   1.646 -0.3911  0.2759 -0.6473
15471TIP3    H167904   6.274   3.896   1.565 -0.6107  2.3085 -0.4372
15471TIP3    H267905   6.292   3.894   1.715 -0.6586  0.5098 -0.4361
15472TIP3   OH267906   3.512   6.412  14.046 -0.2929  0.0822  0.1069
15472TIP3    H167907   3.545   6.494  14.083 -0.7034  0.4327 -0.2762
15472TIP3    H267908   3.552   6.343  14.099  1.1122  0.4752 -0.3972
15473TIP3   OH267909   0.721   2.536  11.511 -0.0397 -0.0626  0.2840
15473TIP3    H167910   0.704   2.622  11.550 -1.6238 -0.8225  1.3300
15473TIP3    H267911   0.677   2.539  11.426 -0.6425 -0.0524  0.5922
15474TIP3   OH267912   5.988   1.184   0.183  0.3767  0.1295  1.0680
15474TIP3    H167913   5.926   1.180   0.111  1.3553  3.6477 -0.1576
15474TIP3    H267914   6.007   1.092   0.203 -1.6318 -0.9968 -1.6015
15475TIP3   OH267915   5.831   0.036  13.900 -0.2532 -0.3016  0.3674
15475TIP3    H167916   5.758   0.078  13.945 -1.1237 -2.1953  0.8198
15475TIP3    H267917   5.812   0.049  13.807  0.7222  2.2352  0.4321
15476TIP3   OH267918   3.363   0.129  11.643 -0.1098  0.0803 -0.4940
15476TIP3    H167919   3.443   0.084  11.670 -0.1806  0.1040 -0.2470
15476TIP3    H267920   3.392   0.190  11.575 -0.0061 -0.3123 -0.8080
15477TIP3   OH267921   1.850   4.972   0.050 -0.3706  0.0546  0.1516
15477TIP3    H167922   1.930   4.967   0.103  0.8687  1.9039 -1.3942
15477TIP3    H267923   1.785   5.011   0.109  0.1413 -0.4960  1.1109
15478TIP3   OH267924   0.216   1.753  13.324  0.0090 -0.2108  0.5165
15478TIP3    H167925   0.288   1.778  13.381 -0.0000  0.7730  0.1221
15478TIP3    H267926   0.151   1.715  13.383 -0.4187  1.6878  1.3391
15479TIP3   OH267927   4.658   5.508   5.207 -0.7829 -0.0988 -0.3286
15479TIP3    H167928   4.728   5.543   5.261 -2.4310 -0.9183  2.5318
15479TIP3    H267929   4.577   5.540   5.247 -2.2283 -3.5309 -0.0901
15480TIP3   OH267930   4.911   1.741  15.451 -0.4985 -0.2738 -0.3449
15480TIP3    H167931   4.861   1.666  15.419  0.8140 -1.8030  0.9818
15480TIP3    H267932   4.962   1.706  15.525 -0.2577  2.0719  0.6942
15481TIP3   OH267933   3.077   1.652   1.193 -0.4449  0.4581 -0.2503
15481TIP3    H167934   3.034   1.658   1.107  0.5704 -0.2122 -0.8285
15481TIP3    H267935   3.030   1.715   1.248 -1.4953  0.4744 -1.1302
15482TIP3   OH267936   3.606   5.847  10.631 -0.0784  0.4757 -1.1644
15482TIP3    H167937   3.617   5.798  10.550 -0.1301 -0.3861 -0.6648
15482TIP3    H267938   3.512   5.845  10.648 -0.3918  2.6444 -2.2689
15483TIP3   OH267939   1.470   1.582  15.723  0.4466  0.0471 -0.3869
15483TIP3    H167940   1.556   1.560  15.687  0.0382  0.7396 -1.8969
15483TIP3    H267941   1.484   1.666  15.767  0.9400 -0.7767  1.0822
15484TIP3   OH267942   4.025   2.670   2.048 -0.3381 -1.2781  0.0415
15484TIP3    H167943   4.014   2.638   2.138 -1.7977 -0.3442  0.2359
15484TIP3    H267944   3.988   2.601   1.994  1.0980 -2.1168  0.0919
15485TIP3   OH267945   5.925   6.473  11.698 -0.5272 -0.2316 -0.0391
15485TIP3    H167946   5.883   6.395  11.733  1.3049 -0.8659  0.8952
15485TIP3    H267947   6.012   6.474  11.740  0.2978  1.1198 -1.6633
15486TIP3   OH267948   5.214   1.865   6.793  0.3540 -0.1227 -0.7285
15486TIP3    H167949   5.136   1.822   6.828 -0.0611 -0.4081 -1.9569
15486TIP3    H267950   5.287   1.809   6.819  0.1268 -0.0300  0.1363
15487TIP3   OH267951   1.263   4.920  15.060 -0.4611  0.3989 -0.1893
15487TIP3    H167952   1.188   4.937  15.003 -1.8964 -1.3129  1.0734
15487TIP3    H267953   1.227   4.869  15.133  1.9804 -0.7432  0.3316
15488TIP3   OH267954   6.107   0.089  13.921  0.6319 -0.2217  0.0773
15488TIP3    H167955   6.059   0.136  13.853 -0.7646 -1.0922  0.3992
15488TIP3    H267956   6.144   0.157  13.977  2.2260  0.5213 -1.7829
15489TIP3   OH267957   3.833   5.645  14.948 -0.2655  0.7854  0.2369
15489TIP3    H167958   3.826   5.736  14.978  0.2838  0.9020  0.0314
15489TIP3    H267959   3.842   5.651  14.853  2.0870  0.6860  0.3867
15490TIP3   OH267960   1.051   2.402   2.451  0.4477 -0.2753 -0.3382
15490TIP3    H167961   0.996   2.351   2.511 -1.7052  1.9763 -0.2488
15490TIP3    H267962   1.137   2.403   2.492 -0.0190 -1.8803  0.7869
15491TIP3   OH267963   6.095   5.277   0.204 -0.4469  0.0666 -0.8209
15491TIP3    H167964   6.013   5.254   0.248  0.0133  0.8703  0.4903
15491TIP3    H267965   6.125   5.355   0.249  0.5738  0.3212 -1.9127
15492TIP3   OH267966   2.891   4.939  16.163  0.2086 -0.5477  0.4120
15492TIP3    H167967   2.848   4.902  16.240 -2.3660  0.3963 -0.4867
15492TIP3    H267968   2.831   4.921  16.090  2.6713 -1.6953 -1.5211
15493TIP3   OH267969   1.475   5.597   5.620 -0.0253  0.3560 -0.5362
15493TIP3    H167970   1.380   5.588   5.609 -0.1519  0.2818  0.5338
15493TIP3    H267971   1.493   5.688   5.599 -0.1572  0.0996 -1.8608
15494TIP3   OH267972   0.062   0.655   3.556 -0.4809 -0.1063 -0.7012
15494TIP3    H167973   0.021   0.569   3.559  1.1486 -0.8967  0.5371
15494TIP3    H267974   0.135   0.644   3.495  0.7994 -0.1495  0.7845
15495TIP3   OH267975   6.703   5.542  13.834 -0.4282  0.4324  0.1002
15495TIP3    H167976   6.764   5.613  13.812  2.2311 -1.8226 -0.4874
15495TIP3    H267977   6.640   5.542  13.762  0.6732  1.0541 -0.9192
15496TIP3   OH267978   4.049   1.074   2.598  0.0876 -0.7863  0.2512
15496TIP3    H167979   3.989   1.006   2.571  0.5300 -0.9374 -0.3634
15496TIP3    H267980   4.058   1.131   2.522  0.9429 -0.9320  0.2277
15497TIP3   OH267981   5.455   2.294   0.503  0.0302 -0.3771 -0.1477
15497TIP3    H167982   5.494   2.208   0.517 -1.4549 -0.9696  0.5299
15497TIP3    H267983   5.528   2.355   0.514  0.9538 -1.4916  0.1366
15498TIP3   OH267984   0.877   0.198  16.560 -0.1661 -0.9718  0.4371
15498TIP3    H167985   0.805   0.135  16.558  1.0734 -2.5201  1.6166
15498TIP3    H267986   0.892   0.215  16.653  0.4934 -0.0824  0.1830
15499TIP3   OH267987   0.530   6.530   5.031  0.2098 -0.5546  0.0524
15499TIP3    H167988   0.537   6.532   4.935 -1.2701 -0.4730 -0.0751
15499TIP3    H267989   0.609   6.574   5.062 -0.2709  1.2687 -1.1847
15500TIP3   OH267990   0.827   1.669   4.500  0.4132 -0.2172 -0.1452
15500TIP3    H167991   0.842   1.595   4.442  0.8947 -0.6420  0.4992
15500TIP3    H267992   0.753   1.642   4.555  0.5059 -0.1626  0.0064
15501TIP3   OH267993   5.888   1.547   1.353 -0.6732  0.6752  0.0021
15501TIP3    H167994   5.873   1.641   1.359  0.0043  0.7949 -0.0940
15501TIP3    H267995   5.872   1.526   1.260  1.0683  1.0501 -0.4074
15502TIP3   OH267996   2.617   5.142   2.804  0.4464 -0.0640 -0.3811
15502TIP3    H167997   2.530   5.174   2.825  0.1072  0.5330 -2.4917
15502TIP3    H267998   2.604   5.051   2.777  0.7013 -0.4279  0.6751
15503TIP3   OH267999   0.574   2.050   4.205 -0.4410 -0.0545  0.1788
15503TIP3    H168000   0.626   1.993   4.261 -1.3589 -1.2275 -0.1248
15503TIP3    H268001   0.484   2.038   4.234 -0.8747 -0.2857 -1.1753
15504TIP3   OH268002   1.994   0.597  17.180  0.4034 -0.2728  0.1081
15504TIP3    H168003   2.076   0.549  17.190  1.5640  2.0235  3.2772
15504TIP3    H268004   2.014   0.685  17.212 -2.5538  1.3057 -1.9440
15505TIP3   OH268005   6.035   4.761  16.512  0.3127  0.5467  0.0091
15505TIP3    H168006   6.109   4.782  16.569 -0.5493 -1.4107  1.9831
15505TIP3    H268007   5.959   4.796  16.557 -0.3721 -0.9312  0.0782
15506TIP3   OH268008   0.077   1.309  15.031 -0.2436 -0.4202  0.1848
15506TIP3    H168009   0.054   1.298  14.939 -1.1305  0.1386  0.3270
15506TIP3    H268010   0.109   1.400  15.037  0.8411 -0.7927  0.2325
15507TIP3   OH268011   5.685   0.174   6.137  0.0083  0.1070  0.2045
15507TIP3    H168012   5.634   0.133   6.208  0.5380  0.0982  0.5851
15507TIP3    H268013   5.649   0.135   6.057 -0.3397 -0.1675  0.4882
15508TIP3   OH268014   1.834   2.886  12.782  0.1986  0.4276 -0.2509
15508TIP3    H168015   1.814   2.814  12.722  1.0275  1.0611 -1.3410
15508TIP3    H268016   1.750   2.905  12.825 -0.2693 -0.4855 -0.7179
15509TIP3   OH268017   0.795   2.690   3.092 -0.1959 -0.4478  0.2915
15509TIP3    H168018   0.808   2.649   3.177  1.0496 -2.1009 -0.6268
15509TIP3    H268019   0.870   2.660   3.039 -0.9756  0.4325 -1.4128
15510TIP3   OH268020   3.757   3.995  12.399 -0.1555  0.3741 -0.3584
15510TIP3    H168021   3.684   3.975  12.341 -0.5844 -0.3224  0.4185
15510TIP3    H268022   3.833   3.956  12.356  0.0593  2.3306 -1.9143
15511TIP3   OH268023   6.462   4.604   4.177  0.4680  0.6767  0.2061
15511TIP3    H168024   6.491   4.523   4.136  1.3393  0.3272  1.4551
15511TIP3    H268025   6.538   4.662   4.172  0.3172  0.9128  0.5993
15512TIP3   OH268026   5.845   1.899   6.011  0.2538 -0.0316  0.2143
15512TIP3    H168027   5.922   1.941   5.973  0.5850 -1.9964 -1.4483
15512TIP3    H268028   5.863   1.898   6.105  0.4950  2.8554  0.3018
15513TIP3   OH268029   5.617   5.642   0.334  0.3562  0.0595 -0.1627
15513TIP3    H168030   5.559   5.568   0.351  0.4221 -0.2430 -1.1862
15513TIP3    H268031   5.563   5.719   0.349  0.0006 -0.2124 -0.0441
15514TIP3   OH268032   3.808   1.427   4.564 -0.6990  0.1641  0.2996
15514TIP3    H168033   3.807   1.374   4.485  0.1612  0.1597  0.2819
15514TIP3    H268034   3.737   1.391   4.618  0.5822 -1.7973  0.7917
15515TIP3   OH268035   4.804   1.716   0.577  0.6713 -1.0073  0.2788
15515TIP3    H168036   4.754   1.775   0.520  0.0102 -1.2445  0.5962
15515TIP3    H268037   4.877   1.686   0.523  1.0328  0.1100  0.1178
15516TIP3   OH268038   5.006   5.351  15.164  0.0134  0.6794 -0.6347
15516TIP3    H168039   5.027   5.258  15.153 -0.5842  0.4367  0.2150
15516TIP3    H268040   5.037   5.392  15.083  0.8984 -0.1501 -0.7289
15517TIP3   OH268041   6.611   5.856   3.317  0.4265  0.4217  0.5492
15517TIP3    H168042   6.570   5.848   3.231 -0.6595 -0.2404  1.1188
15517TIP3    H268043   6.624   5.766   3.346  2.5269  0.5894  0.2979
15518TIP3   OH268044   6.756   2.116   0.691  0.0251 -0.5374 -0.0888
15518TIP3    H168045   6.817   2.043   0.681  1.5693  0.8829 -1.6958
15518TIP3    H268046   6.729   2.112   0.783  3.7830 -0.3539  1.2042
15519TIP3   OH268047   4.096   4.110   4.109  0.1293  0.0735 -0.5952
15519TIP3    H168048   4.149   4.152   4.176 -0.5473 -0.1046  0.0793
15519TIP3    H268049   4.150   4.111   4.031  0.1933  2.0428 -0.5682
15520TIP3   OH268050   3.561   5.784  15.369  0.4056 -0.2531 -0.4931
15520TIP3    H168051   3.638   5.741  15.332  1.4275  1.2273 -0.1794
15520TIP3    H268052   3.564   5.762  15.462 -0.6257 -1.7111 -0.7681
15521TIP3   OH268053   6.301   6.611  12.818 -0.5376 -0.4919 -0.5746
15521TIP3    H168054   6.376   6.668  12.799 -0.5117 -0.1877  0.3832
15521TIP3    H268055   6.229   6.672  12.836 -0.7206 -0.7732 -0.3628
15522TIP3   OH268056   3.132   6.317  15.772 -0.4175 -0.1778  0.4351
15522TIP3    H168057   3.216   6.279  15.797 -0.0169  0.3922 -0.0253
15522TIP3    H268058   3.141   6.410  15.792 -0.3693  0.1596 -1.0664
15523TIP3   OH268059   6.808   3.725  16.686 -0.2298 -0.4280 -0.0634
15523TIP3    H168060   6.756   3.786  16.738  0.3846 -0.2036  0.2936
15523TIP3    H268061   6.826   3.772  16.605 -0.1782 -0.3221  0.0094
15524TIP3   OH268062   5.126   1.807   4.671  0.5377  0.2236 -0.2827
15524TIP3    H168063   5.041   1.851   4.667  1.3435  1.9347  0.4323
15524TIP3    H268064   5.106   1.717   4.699 -1.1339  0.1715 -1.5171
15525TIP3   OH268065   0.118   0.421   5.693  0.1595 -0.6100  0.3140
15525TIP3    H168066   0.076   0.429   5.779  1.6120  1.9694  0.8656
15525TIP3    H268067   0.138   0.328   5.685  0.2346 -0.8894  2.9079
15526TIP3   OH268068   4.376   4.914   5.325 -0.3625 -0.1118  0.1118
15526TIP3    H168069   4.387   4.824   5.294  1.4092  0.1330 -0.0682
15526TIP3    H268070   4.308   4.951   5.269  0.8138 -0.5317 -1.6608
15527TIP3   OH268071   5.349   1.087  15.297 -0.0689 -0.3093 -0.3821
15527TIP3    H168072   5.403   1.104  15.221 -0.1518 -1.6755 -0.7709
15527TIP3    H268073   5.345   0.992  15.303 -1.2182 -0.2292  0.5024
15528TIP3   OH268074   6.574   2.548   2.178 -0.4524  0.2547  0.7371
15528TIP3    H168075   6.536   2.461   2.165  0.2102  0.1768 -1.0516
15528TIP3    H268076   6.510   2.608   2.139  0.3136  0.2882 -0.5424
15529TIP3   OH268077   5.257   3.978  16.284 -0.1931  0.2758 -0.6398
15529TIP3    H168078   5.336   3.931  16.312  0.2911  0.6980 -1.2751
15529TIP3    H268079   5.210   3.997  16.365  1.1012  1.3441 -0.1018
15530TIP3   OH268080   2.206   4.584  14.524 -0.2626  0.1882  0.2809
15530TIP3    H168081   2.139   4.631  14.574 -1.5998  0.5693 -1.7380
15530TIP3    H268082   2.157   4.521  14.472  1.3217 -2.1290  1.4408
15531TIP3   OH268083   2.452   5.828  15.522  0.3483  0.7432  0.1987
15531TIP3    H168084   2.526   5.844  15.582 -0.0334 -0.3420  1.0001
15531TIP3    H268085   2.377   5.817  15.580  0.0799 -0.9790 -0.4097
15532TIP3   OH268086   4.281   1.695   5.113 -0.1977  0.7661  0.1868
15532TIP3    H168087   4.332   1.645   5.049  0.0566  0.0134  0.9647
15532TIP3    H268088   4.195   1.705   5.072  0.1346  0.7926 -0.5172
15533TIP3   OH268089   5.671   1.488  17.220 -0.1011 -0.4666  0.6982
15533TIP3    H168090   5.748   1.510  17.273  1.4761 -0.9109 -1.2900
15533TIP3    H268091   5.696   1.510  17.130 -3.0873  1.3564  0.1650
15534TIP3   OH268092   5.386   2.390   3.832  0.1043 -0.5618 -0.1555
15534TIP3    H168093   5.421   2.438   3.907  1.2122 -0.3717 -0.7833
15534TIP3    H268094   5.383   2.454   3.761 -3.2708 -0.0271  0.2724
15535TIP3   OH268095   2.077   3.901   5.666 -0.0615 -0.4293  0.4415
15535TIP3    H168096   2.002   3.841   5.667 -0.2497 -0.1827  1.0133
15535TIP3    H268097   2.057   3.967   5.731  0.3074  0.0752  0.0562
15536TIP3   OH268098   0.599   3.532   5.081 -0.7997  0.0598  0.1923
15536TIP3    H168099   0.584   3.455   5.135  1.8069 -1.0619 -0.5319
15536TIP3    H268100   0.559   3.604   5.130  0.0619 -1.1480  2.8179
15537TIP3   OH268101   5.665   2.831   3.663  0.9349  0.3672  0.0713
15537TIP3    H168102   5.581   2.785   3.661  1.1640 -0.0520 -1.0176
15537TIP3    H268103   5.667   2.875   3.747  0.4659 -1.2156  0.9615
15538TIP3   OH268104   3.391   5.335  15.922  0.2245 -0.3413 -0.3953
15538TIP3    H168105   3.469   5.294  15.958 -0.7161 -0.7887  1.2547
15538TIP3    H268106   3.358   5.389  15.994 -0.7129  0.2268 -1.2309
15539TIP3   OH268107   6.527   4.548  11.923 -0.3355  0.0673 -0.2989
15539TIP3    H168108   6.591   4.505  11.867  0.4934  0.8062  0.0554
15539TIP3    H268109   6.533   4.503  12.007  0.4641  0.7979  0.0434
15540TIP3   OH268110   1.328   0.939   3.714 -0.2732  0.0154 -0.1192
15540TIP3    H168111   1.399   0.976   3.767  0.3231  0.1455 -0.9881
15540TIP3    H268112   1.365   0.932   3.626 -0.4504 -2.3710 -0.0706
15541TIP3   OH268113   0.553   0.816   0.443 -0.3490  0.0550  0.1104
15541TIP3    H168114   0.461   0.810   0.417 -0.2594 -0.0007 -0.2105
15541TIP3    H268115   0.600   0.766   0.376  0.0812  1.4586 -0.6965
15542TIP3   OH268116   3.061   2.203  12.595 -0.0206  0.7751 -0.0187
15542TIP3    H168117   3.112   2.263  12.539 -1.1799  1.3706 -0.4752
15542TIP3    H268118   3.055   2.249  12.679  1.2352  0.1362  0.4490
15543TIP3   OH268119   3.978   5.582   5.488 -0.3163 -0.3141 -0.1547
15543TIP3    H168120   4.066   5.561   5.520 -0.4986  0.6784  1.0525
15543TIP3    H268121   3.944   5.499   5.455  0.6649 -0.9353  0.3568
15544TIP3   OH268122   6.550   5.808   3.011 -0.9779 -0.0375  0.2265
15544TIP3    H168123   6.601   5.730   3.030 -1.6754 -0.8278 -1.0221
15544TIP3    H268124   6.592   5.847   2.934 -0.1747  1.2788  1.2756
15545TIP3   OH268125   4.373   0.473  10.944  0.5052 -0.5008  0.6916
15545TIP3    H168126   4.357   0.386  10.980  4.0860 -0.6503  2.4272
15545TIP3    H268127   4.425   0.457  10.865  0.2811  0.0172  0.4398
15546TIP3   OH268128   2.112   5.803   5.125 -0.2491  0.5404 -0.0977
15546TIP3    H168129   2.180   5.862   5.157  1.1003 -1.5376  1.0347
15546TIP3    H268130   2.130   5.792   5.032  0.7066  0.3581  0.1058
15547TIP3   OH268131   2.603   2.783  10.168 -0.2705  0.0861  0.4045
15547TIP3    H168132   2.585   2.784  10.262  0.7254  0.5689  0.5989
15547TIP3    H268133   2.645   2.867  10.151 -1.0735  0.2972 -0.6107
15548TIP3   OH268134   5.841   0.614  17.138  0.4008 -0.2637 -0.4373
15548TIP3    H168135   5.924   0.649  17.107  0.1739  2.3173  1.4804
15548TIP3    H268136   5.859   0.523  17.159  2.5017 -0.0152 -0.9700
15549TIP3   OH268137   0.786   1.892   5.226 -0.1344 -0.1443 -0.1333
15549TIP3    H168138   0.874   1.928   5.239 -0.5036  1.1250 -0.9770
15549TIP3    H268139   0.752   1.880   5.315  0.0209  1.6222  0.1960
15550TIP3   OH268140   5.971   4.904   3.682 -0.1146  0.3528 -0.2626
15550TIP3    H168141   5.908   4.938   3.745 -0.3631  0.0602 -0.3487
15550TIP3    H268142   5.920   4.895   3.601 -0.4437 -1.5485  0.1038
15551TIP3   OH268143   2.728   2.482  11.607  0.1499  0.2969 -0.4515
15551TIP3    H168144   2.670   2.517  11.539 -0.1388  3.8853  1.4044
15551TIP3    H268145   2.815   2.510  11.581  0.0341  1.7298  0.5240
15552TIP3   OH268146   3.415   6.250  15.185 -0.6068  0.2047  0.2121
15552TIP3    H168147   3.387   6.341  15.181  0.3072  0.5249  0.6708
15552TIP3    H268148   3.493   6.252  15.241  0.4399 -0.5995 -1.1738
15553TIP3   OH268149   4.979   4.841  10.574 -0.6689 -0.0991  0.1320
15553TIP3    H168150   4.948   4.758  10.608 -0.9501  0.9854  2.7055
15553TIP3    H268151   5.073   4.839  10.589 -0.7796  0.3399  0.9230
15554TIP3   OH268152   2.350   5.282   2.495 -0.2739 -0.1721  0.1160
15554TIP3    H168153   2.282   5.265   2.431 -0.2929  0.0676  0.0717
15554TIP3    H268154   2.358   5.201   2.544  0.3956 -0.6816 -0.7989
15555TIP3   OH268155   0.057   0.384   2.332 -0.1136 -0.2590  0.6503
15555TIP3    H168156  -0.027   0.413   2.368  0.3232 -1.2018  2.5702
15555TIP3    H268157   0.122   0.434   2.381  0.5080 -1.2182  0.8184
15556TIP3   OH268158   1.116   0.250  16.432  0.2387  0.2165  0.4332
15556TIP3    H168159   1.108   0.174  16.375  1.3626 -1.0140  1.8551
15556TIP3    H268160   1.035   0.249  16.484  1.7595 -2.3295  3.0709
15557TIP3   OH268161   4.498   4.626   4.362 -0.2404 -0.4471  0.3053
15557TIP3    H168162   4.530   4.643   4.450  1.5049  1.8005 -0.6704
15557TIP3    H268163   4.557   4.560   4.327 -1.2306 -1.7035  0.9317
15558TIP3   OH268164   4.426   2.351   0.249  0.0435 -0.0098 -0.5661
15558TIP3    H168165   4.497   2.333   0.187 -0.1513  2.1405 -1.5227
15558TIP3    H268166   4.432   2.445   0.265 -1.6608 -0.0374  0.5022
15559TIP3   OH268167   0.047   2.063  15.641 -0.0740  0.7966 -0.4830
15559TIP3    H168168  -0.026   2.112  15.603 -2.1976 -0.9783  1.0981
15559TIP3    H268169   0.047   2.089  15.733  1.5544  0.9917 -0.5056
15560TIP3   OH268170   3.593   2.764  10.989 -0.7055 -0.6059 -0.5997
15560TIP3    H168171   3.629   2.821  11.057 -1.8301 -1.7296  1.0018
15560TIP3    H268172   3.521   2.718  11.032  0.1701 -3.2728 -1.7911
15561TIP3   OH268173   2.897   4.620   0.818 -0.7899 -0.0099 -0.4609
15561TIP3    H168174   2.851   4.565   0.880  0.5632  0.9348  1.4888
15561TIP3    H268175   2.832   4.640   0.750 -2.5422 -0.4864  1.0083
15562TIP3   OH268176   0.342   6.291   0.950 -0.1762 -0.2177  0.7351
15562TIP3    H168177   0.424   6.289   0.901  1.0052  0.8854  2.5025
15562TIP3    H268178   0.368   6.320   1.038 -2.7512  2.6799  0.7150
15563TIP3   OH268179   1.721   4.793  16.324 -1.0073  0.1857  0.2370
15563TIP3    H168180   1.782   4.756  16.260 -0.2513  1.6920  0.0218
15563TIP3    H268181   1.634   4.773  16.289 -0.6229 -0.6159 -0.2821
15564TIP3   OH268182   4.116   5.715   0.282 -0.3255 -0.1091  0.3999
15564TIP3    H168183   4.085   5.737   0.370  0.9254 -0.4345  0.9329
15564TIP3    H268184   4.079   5.628   0.266 -0.2967 -0.1873  0.7357
15565TIP3   OH268185   3.919   5.818  12.459  0.2053  0.0994  0.2274
15565TIP3    H168186   3.892   5.727  12.449  2.4214 -0.7771  1.4596
15565TIP3    H268187   3.878   5.846  12.540  0.1324 -0.0420  0.2402
15566TIP3   OH268188   3.493   5.745  11.732 -0.5097  0.2550 -0.3474
15566TIP3    H168189   3.579   5.767  11.767 -0.2842 -1.5070  0.3097
15566TIP3    H268190   3.441   5.722  11.809 -2.3864  3.5765 -0.4438
15567TIP3   OH268191   0.223   4.775  15.046  0.2927  0.1646 -0.1175
15567TIP3    H168192   0.201   4.853  14.995  2.6007 -0.7265 -2.6949
15567TIP3    H268193   0.216   4.702  14.984 -0.7741 -1.6106  1.9329
15568TIP3   OH268194   4.640   4.993   6.868  0.3132 -0.1619 -0.3535
15568TIP3    H168195   4.698   4.919   6.853 -0.7913 -1.6157  1.8968
15568TIP3    H268196   4.589   4.968   6.946 -1.7853  1.9454 -0.9236
15569TIP3   OH268197   4.555   5.371   0.561 -0.0384 -0.0264  0.3816
15569TIP3    H168198   4.610   5.294   0.546 -0.0211 -0.0012  0.3177
15569TIP3    H268199   4.617   5.443   0.574 -0.0287 -0.2431  1.6399
15570TIP3   OH268200   3.131   5.085   0.626 -0.0314 -0.1973  0.0314
15570TIP3    H168201   3.147   5.056   0.536 -1.5534 -2.3664  0.3867
15570TIP3    H268202   3.117   5.179   0.618 -1.3010 -0.4984 -2.1993
15571TIP3   OH268203   0.529   6.266   4.994  0.3225 -0.2879 -0.1926
15571TIP3    H168204   0.600   6.248   4.931 -1.0155 -0.6477 -1.6632
15571TIP3    H268205   0.520   6.361   4.992  0.6175 -0.2571 -0.1610
15572TIP3   OH268206   4.446   3.066   0.899 -0.2177 -0.6805 -0.6251
15572TIP3    H168207   4.434   3.087   0.807 -1.2181  0.5631 -0.2277
15572TIP3    H268208   4.533   3.100   0.921 -0.2186 -0.4681 -0.9548
15573TIP3   OH268209   4.048   1.257  14.988 -0.3058 -0.0800  0.7306
15573TIP3    H168210   4.016   1.268  15.078  0.0216 -1.2327  1.0067
15573TIP3    H268211   4.143   1.261  14.996 -0.2494 -0.9253  0.5516
15574TIP3   OH268212   6.541   3.083   3.314  0.1452  0.3894  0.2080
15574TIP3    H168213   6.531   3.173   3.284 -0.4455 -0.5495 -2.7591
15574TIP3    H268214   6.484   3.077   3.391 -2.3650  1.8002 -1.3779
15575TIP3   OH268215   6.098   1.172   1.697  0.2862 -0.0554  0.1670
15575TIP3    H168216   6.063   1.212   1.617 -1.0991 -1.9894 -0.2748
15575TIP3    H268217   6.030   1.184   1.762  0.9516  0.5448  0.7655
15576TIP3   OH268218   0.014   1.667   0.916 -0.3144  0.3055 -0.0968
15576TIP3    H168219  -0.012   1.607   0.986 -0.4524 -0.5679 -0.8763
15576TIP3    H268220   0.093   1.710   0.948  1.2835 -2.1628 -0.5233
15577TIP3   OH268221   5.524   5.051  10.284 -0.7401  0.3301  0.0243
15577TIP3    H168222   5.431   5.056  10.306 -0.1122  0.5493  2.9830
15577TIP3    H268223   5.534   4.967  10.239 -2.8204  1.7225 -3.5365
15578TIP3   OH268224   3.883   1.179  11.863  0.0213  0.1109  0.7064
15578TIP3    H168225   3.898   1.261  11.909 -0.8122  2.2843 -2.5512
15578TIP3    H268226   3.791   1.158  11.881 -0.3213  0.9842  0.0036
15579TIP3   OH268227   1.677   6.279   3.876 -0.2748  0.4182  0.0636
15579TIP3    H168228   1.767   6.304   3.893  1.1085 -2.9988 -1.2379
15579TIP3    H268229   1.650   6.333   3.802  1.5830 -0.0680 -1.0192
15580TIP3   OH268230   3.675   1.308  14.107  0.1825 -0.6032  0.2816
15580TIP3    H168231   3.741   1.300  14.175 -0.0997 -1.3365  0.4805
15580TIP3    H268232   3.724   1.310  14.025  0.5144  0.1198  0.4922
15581TIP3   OH268233   4.152   3.128   0.823 -0.0577 -0.2935  0.4512
15581TIP3    H168234   4.095   3.064   0.866  0.2700 -1.5399 -0.8663
15581TIP3    H268235   4.109   3.145   0.739  0.5825  0.1323  0.2054
15582TIP3   OH268236   6.308   5.063  16.797  0.6184 -0.7576 -0.0807
15582TIP3    H168237   6.366   5.098  16.729  1.5428 -2.4360 -0.1958
15582TIP3    H268238   6.367   5.033  16.866 -0.1588 -1.6573  0.2156
15583TIP3   OH268239   0.196   0.079   1.447 -0.2055  0.2597 -0.2471
15583TIP3    H168240   0.200   0.168   1.412 -1.2658  0.2537 -0.4291
15583TIP3    H268241   0.229   0.023   1.376  1.0654  0.5446  0.0968
15584TIP3   OH268242   6.817   3.375   4.994  0.0542 -0.3153 -0.4424
15584TIP3    H168243   6.843   3.284   5.012  2.1379  0.5016  1.1707
15584TIP3    H268244   6.891   3.411   4.944  0.2133  1.0051  0.6894
15585TIP3   OH268245   1.809   0.302   4.812 -0.0394  0.4327  0.0090
15585TIP3    H168246   1.823   0.265   4.900  0.5363 -0.0726 -0.2865
15585TIP3    H268247   1.721   0.274   4.788  0.1095 -0.1133  0.0952
15586TIP3   OH268248   4.216   5.730   1.106 -0.6677 -0.4211 -0.9434
15586TIP3    H168249   4.133   5.729   1.060 -0.2719 -0.1826 -1.6860
15586TIP3    H268250   4.257   5.812   1.080 -0.2257 -0.5036 -0.5324
15587TIP3   OH268251   2.327   1.206   0.260 -0.2042 -0.2038  0.2676
15587TIP3    H168252   2.302   1.187   0.350  0.5378 -2.5747  0.0487
15587TIP3    H268253   2.327   1.301   0.254 -0.2184  0.0092  2.7797
15588TIP3   OH268254   3.215   3.269   5.069 -0.3650  0.4805 -0.2272
15588TIP3    H168255   3.255   3.229   5.146  0.4880 -1.2599 -1.4979
15588TIP3    H268256   3.122   3.276   5.091 -0.2912 -0.8357  0.6375
15589TIP3   OH268257   1.013   6.680  12.784 -0.1528 -0.9112 -0.0288
15589TIP3    H168258   0.920   6.696  12.798 -0.2371 -0.4406 -1.0447
15589TIP3    H268259   1.053   6.767  12.789  0.2353 -1.1146  0.4258
15590TIP3   OH268260   6.655   6.027  12.617 -0.1591  0.3858 -0.0372
15590TIP3    H168261   6.589   5.975  12.570 -0.0530 -0.4621  0.7282
15590TIP3    H268262   6.609   6.059  12.695 -0.3446  1.8166 -0.7029
15591TIP3   OH268263   2.608   4.448   3.745 -0.4700  0.1095  0.1605
15591TIP3    H168264   2.639   4.373   3.693 -1.7543 -0.3686  0.0307
15591TIP3    H268265   2.575   4.510   3.680  3.8320  2.5189 -0.0415
15592TIP3   OH268266   6.496   1.550   4.307  0.4447 -0.0940 -0.8018
15592TIP3    H168267   6.504   1.544   4.212  0.5729  1.7952 -0.9368
15592TIP3    H268268   6.424   1.490   4.328 -0.5575  0.5352 -2.2616
15593TIP3   OH268269   1.160   3.290   0.316  0.6665 -0.6025  0.5697
15593TIP3    H168270   1.153   3.275   0.222 -0.7312 -0.2415  0.5941
15593TIP3    H268271   1.181   3.204   0.352 -2.4355 -1.6114  0.2462
15594TIP3   OH268272   4.916   6.083  16.480  0.3785  0.0035  0.2328
15594TIP3    H168273   5.003   6.115  16.505 -0.6602  3.4415 -0.0773
15594TIP3    H268274   4.863   6.092  16.559 -0.9458  3.2831 -0.8738
15595TIP3   OH268275   0.383   6.406   5.244 -0.6735  0.2493  0.3564
15595TIP3    H168276   0.435   6.325   5.250 -1.0447  0.0708  1.4902
15595TIP3    H268277   0.413   6.448   5.163 -1.3714 -1.6214 -0.9238
15596TIP3   OH268278   4.906   1.324  11.439 -0.1190  0.4751 -0.2356
15596TIP3    H168279   4.828   1.367  11.405 -0.6898 -0.1411  0.2616
15596TIP3    H268280   4.966   1.320  11.364 -1.4750 -1.1574 -1.3133
15597TIP3   OH268281   3.322   3.228  10.752 -0.4379  0.7986 -0.2166
15597TIP3    H168282   3.307   3.310  10.704 -1.7335 -0.2100 -1.5977
15597TIP3    H268283   3.301   3.159  10.690  1.2422 -0.6383  0.7222
15598TIP3   OH268284   2.576   2.791   6.126  0.4432  0.5718 -0.8618
15598TIP3    H168285   2.491   2.785   6.169  0.1311 -0.0889 -1.5381
15598TIP3    H268286   2.602   2.883   6.135 -0.0358  0.6361 -0.0913
15599TIP3   OH268287   3.772   4.055   0.572 -0.1475  0.6444 -0.2316
15599TIP3    H168288   3.717   4.093   0.641 -0.1317 -0.0648  0.1881
15599TIP3    H268289   3.743   3.964   0.566  1.7436 -0.0866  0.8295
15600TIP3   OH268290   6.438   3.162   2.623 -0.2562  0.6691  0.8956
15600TIP3    H168291   6.464   3.189   2.535  1.0506  0.6924  1.2731
15600TIP3    H268292   6.520   3.151   2.670 -0.9122 -0.0681  1.9097
15601TIP3   OH268293   1.928   2.109   0.284 -0.0317 -0.4233 -0.1568
15601TIP3    H168294   1.905   2.040   0.221 -0.7266 -2.2969  2.0131
15601TIP3    H268295   2.022   2.121   0.272  0.0490 -1.5300 -0.8135
15602TIP3   OH268296   4.490   1.821   3.763  0.2975  0.0256  0.6985
15602TIP3    H168297   4.535   1.903   3.784 -0.8791  0.7582  0.4720
15602TIP3    H268298   4.397   1.842   3.772 -0.0312 -1.2491  0.4713
15603TIP3   OH268299   5.514   2.806  15.931 -0.3706 -0.2636  0.5970
15603TIP3    H168300   5.427   2.795  15.969 -0.5147  1.5382  0.8668
15603TIP3    H268301   5.540   2.895  15.957  1.8654 -1.0299  1.1697
15604TIP3   OH268302   3.061   6.293   2.487 -0.5326  0.4484 -0.2043
15604TIP3    H168303   2.971   6.268   2.509  0.1712 -2.6690 -0.4074
15604TIP3    H268304   3.105   6.302   2.571 -0.8746  1.4444 -0.1193
15605TIP3   OH268305   1.769   0.395   3.915 -0.4161  0.3895 -0.4336
15605TIP3    H168306   1.700   0.358   3.972 -0.2466  0.6785 -0.0349
15605TIP3    H268307   1.722   0.421   3.836 -0.8378  0.9156 -0.0252
15606TIP3   OH268308   4.859   0.583  16.211  0.0135 -0.5551  0.9252
15606TIP3    H168309   4.806   0.649  16.256  0.3581  0.3831 -0.0189
15606TIP3    H268310   4.942   0.583  16.259  0.5548  0.7865  0.0664
15607TIP3   OH268311   6.790   1.748   4.947  0.3556  0.4088  0.3592
15607TIP3    H168312   6.747   1.829   4.972 -0.2131  0.6622 -1.3339
15607TIP3    H268313   6.812   1.760   4.855  0.6751 -1.1912  0.2034
15608TIP3   OH268314   1.578   2.924  13.807 -0.8863 -0.0910 -0.5008
15608TIP3    H168315   1.543   2.946  13.721 -1.2300 -1.3244 -0.6984
15608TIP3    H268316   1.640   2.994  13.826 -0.1890 -0.2269 -2.1132
15609TIP3   OH268317   6.646   0.624   0.715 -0.1108  1.0933 -0.0477
15609TIP3    H168318   6.663   0.618   0.809 -1.4948 -0.6713  0.1359
15609TIP3    H268319   6.552   0.614   0.707  0.1344 -0.2700 -1.7198
15610TIP3   OH268320   2.718   5.182   4.081 -0.8836 -1.2063  0.0352
15610TIP3    H168321   2.640   5.193   4.026 -1.3745 -2.0110  0.5503
15610TIP3    H268322   2.718   5.089   4.104 -0.9132 -0.8262  1.7010
15611TIP3   OH268323   2.785   1.829   2.001 -0.3963 -0.4645  0.1142
15611TIP3    H168324   2.704   1.867   1.968 -0.2322  0.0854  0.3301
15611TIP3    H268325   2.788   1.854   2.093 -0.3717 -1.1658  0.3067
15612TIP3   OH268326   0.828   1.433   2.735  0.0005 -0.2509  0.0667
15612TIP3    H168327   0.873   1.515   2.754  0.9818 -0.9833  1.0217
15612TIP3    H268328   0.761   1.457   2.670  0.6408  1.1797 -0.1055
15613TIP3   OH268329   0.370   0.971  12.415 -0.2054  0.1095  0.0527
15613TIP3    H168330   0.366   0.969  12.319  0.0305  2.2293 -0.0419
15613TIP3    H268331   0.427   0.897  12.437 -1.2030 -1.1373 -1.3455
15614TIP3   OH268332   6.400   1.101   3.999  0.1245 -0.1440  0.1821
15614TIP3    H168333   6.451   1.063   4.071  0.1714  1.2249  0.9207
15614TIP3    H268334   6.455   1.172   3.966 -1.4982  1.8784  1.4942
15615TIP3   OH268335   2.828   5.862  15.190  0.3762  0.0804  0.5519
15615TIP3    H168336   2.860   5.772  15.193 -0.4764 -0.3533 -1.3469
15615TIP3    H268337   2.869   5.905  15.264  4.3888 -0.7078 -0.9384
15616TIP3   OH268338   1.977   5.201   4.168  0.6094  0.4835  0.1831
15616TIP3    H168339   1.947   5.246   4.247 -0.1646 -1.9716  1.4026
15616TIP3    H268340   1.901   5.150   4.140  1.1463  0.6429 -1.6846
15617TIP3   OH268341   2.085   1.776  11.674 -0.0713  0.2976  0.3440
15617TIP3    H168342   2.115   1.686  11.664 -0.1889  0.2816  0.1119
15617TIP3    H268343   2.159   1.822  11.714  0.6101  0.4551 -1.0104
15618TIP3   OH268344   5.948   2.990   6.140  0.6755 -0.0044  0.3507
15618TIP3    H168345   6.033   2.952   6.161  0.8936 -1.0870 -2.0803
15618TIP3    H268346   5.892   2.966   6.214  2.0303 -0.9124  1.1235
15619TIP3   OH268347   4.786   3.493  14.207 -0.2777  1.2410  0.6160
15619TIP3    H168348   4.782   3.537  14.122 -1.8954  0.7631  0.4198
15619TIP3    H268349   4.863   3.531  14.249  1.1679  0.7961 -1.4376
15620TIP3   OH268350   1.917   5.403  14.695 -0.4280 -0.5433 -0.2055
15620TIP3    H168351   1.965   5.445  14.624  1.0218 -0.2273  0.9033
15620TIP3    H268352   1.828   5.438  14.688 -0.3605 -0.6391 -1.9256
15621TIP3   OH268353   3.571   1.322  10.450 -0.5801  0.4534 -0.1421
15621TIP3    H168354   3.530   1.377  10.517 -2.5245 -3.6075  2.3525
15621TIP3    H268355   3.661   1.311  10.479 -1.8086 -2.6326  3.0763
15622TIP3   OH268356   0.410   3.193  14.037  0.3437 -0.1855  0.0232
15622TIP3    H168357   0.411   3.289  14.027 -1.1901 -0.1067  0.3315
15622TIP3    H268358   0.430   3.160  13.950  1.3903  0.4015  0.0225
15623TIP3   OH268359   3.688   1.327   5.387 -0.3536 -0.6242  0.0037
15623TIP3    H168360   3.644   1.396   5.338  1.6899  0.4121 -0.4836
15623TIP3    H268361   3.752   1.373   5.442  0.4631 -2.0665  0.3275
15624TIP3   OH268362   6.322   4.447   4.379 -0.0464  0.6236  0.5712
15624TIP3    H168363   6.375   4.494   4.314 -1.0542  0.3982 -0.4352
15624TIP3    H268364   6.354   4.357   4.373 -1.7737  0.0613 -1.4376
15625TIP3   OH268365   5.660   1.298   1.356  0.7502  0.4129  0.3142
15625TIP3    H168366   5.618   1.334   1.278  1.7908  0.8259 -0.0722
15625TIP3    H268367   5.704   1.372   1.397  1.3356 -0.0569  0.5541
15626TIP3   OH268368   4.294   1.345   2.960 -0.6112  0.0363 -0.1901
15626TIP3    H168369   4.347   1.328   2.882 -0.0542 -1.2268  0.4310
15626TIP3    H268370   4.278   1.439   2.958  3.4515  0.9524  0.6585
15627TIP3   OH268371   1.080   6.804  15.965 -0.3728  0.1166  0.6886
15627TIP3    H168372   1.026   6.857  15.906 -0.8139  0.7370  1.6353
15627TIP3    H268373   1.076   6.716  15.928 -2.4318  0.0342  0.9788
15628TIP3   OH268374   2.626   3.936  11.770 -0.4718  0.2782 -0.0045
15628TIP3    H168375   2.697   3.918  11.709  0.2996 -0.5164  1.0928
15628TIP3    H268376   2.571   4.001  11.725 -1.2752 -1.9910 -2.5425
15629TIP3   OH268377   1.278   5.008   2.326  0.4211  1.2751 -0.1143
15629TIP3    H168378   1.206   5.011   2.263 -1.2355 -0.6326  1.5519
15629TIP3    H268379   1.258   5.079   2.388 -2.0080 -1.1770  2.1807
15630TIP3   OH268380   6.387   2.525  12.653 -0.1703 -0.0884  0.2124
15630TIP3    H168381   6.366   2.524  12.560 -2.9723 -0.5171  0.7392
15630TIP3    H268382   6.398   2.433  12.676  0.3050 -0.0001  0.3355
15631TIP3   OH268383   5.454   4.602   1.836  0.5686  0.5417  0.7438
15631TIP3    H168384   5.498   4.610   1.752  1.4741  0.6050  1.2179
15631TIP3    H268385   5.521   4.567   1.896 -0.4665 -0.9719  1.0926
15632TIP3   OH268386   2.934   3.379  15.101  0.3120 -0.2620 -0.3125
15632TIP3    H168387   2.858   3.374  15.044  0.3242 -0.2891 -0.3263
15632TIP3    H268388   2.900   3.360  15.188  0.0638  1.1103 -0.0987
15633TIP3   OH268389   3.549   5.950   1.142 -0.0619 -1.5507  0.1925
15633TIP3    H168390   3.500   6.023   1.181  1.3298 -0.2045 -0.4411
15633TIP3    H268391   3.617   5.930   1.206  0.4491 -1.2857 -0.2571
15634TIP3   OH268392   3.232   2.024  14.408 -0.4852 -0.4323  0.1115
15634TIP3    H168393   3.189   1.967  14.472 -3.5620  1.7447  0.1970
15634TIP3    H268394   3.292   2.077  14.459 -0.7020 -0.7568  0.7079
15635TIP3   OH268395   5.419   1.740  12.070  0.5266 -0.5274 -0.1442
15635TIP3    H168396   5.334   1.732  12.027 -0.1624  1.1124  0.8287
15635TIP3    H268397   5.479   1.769  12.001  0.2288 -1.3438 -0.7547
15636TIP3   OH268398   1.269   3.016   3.105  0.3326  0.4410  0.1513
15636TIP3    H168399   1.310   3.055   3.181  0.6925 -0.6312  0.5232
15636TIP3    H268400   1.202   2.958   3.141  1.3096 -1.0056 -0.2592
15637TIP3   OH268401   1.064   5.299  12.383  0.0336 -0.2902  0.0411
15637TIP3    H168402   1.033   5.284  12.294 -0.2069  0.0778  0.0609
15637TIP3    H268403   1.160   5.295  12.376  0.0202 -0.0593 -0.2690
15638TIP3   OH268404   4.063   0.028  15.701  0.3704  0.2666 -0.0741
15638TIP3    H168405   4.157   0.016  15.698  0.3166 -0.4238  0.5558
15638TIP3    H268406   4.040   0.016  15.794 -0.1503  1.9109  0.0500
15639TIP3   OH268407   1.943   3.045  11.347 -0.3617 -0.2176  0.2014
15639TIP3    H168408   1.950   3.094  11.265  0.6238 -0.8910 -0.1314
15639TIP3    H268409   1.848   3.041  11.364 -0.6566 -0.9114 -1.4254
15640TIP3   OH268410   1.252   2.513   1.886  0.2496 -0.1743  1.3188
15640TIP3    H168411   1.226   2.471   1.805 -1.3023 -0.7590  2.0664
15640TIP3    H268412   1.318   2.578   1.861 -1.2402  0.6716 -0.6023
15641TIP3   OH268413   2.548   2.912  12.455 -0.1913  0.4285 -0.2535
15641TIP3    H168414   2.453   2.902  12.447 -0.0431 -2.2394  0.3331
15641TIP3    H268415   2.581   2.895  12.367 -0.2035  0.8685 -0.3471
15642TIP3   OH268416   0.399   4.521  14.544 -0.3813 -0.0148  0.4574
15642TIP3    H168417   0.368   4.604  14.581  2.2279  2.1970 -1.8699
15642TIP3    H268418   0.382   4.529  14.450  1.7755 -1.2110 -0.0990
15643TIP3   OH268419   3.495   4.389  16.628  0.3436 -0.2182 -0.5932
15643TIP3    H168420   3.434   4.318  16.646  1.4076 -0.8753  0.6102
15643TIP3    H268421   3.516   4.380  16.535  0.3439 -1.3910 -0.4972
15644TIP3   OH268422   6.001   3.040   3.556 -0.9460 -0.5744  0.4842
15644TIP3    H168423   5.909   3.033   3.529 -0.4171  0.7014 -1.8795
15644TIP3    H268424   6.012   3.133   3.578  0.2134 -0.3141 -1.0794
15645TIP3   OH268425   4.629   6.781  15.666 -0.4661  0.2447  0.4068
15645TIP3    H168426   4.601   6.767  15.757  0.3379  0.1446  0.6440
15645TIP3    H268427   4.656   6.694  15.636  1.7005  0.6847  0.9173
15646TIP3   OH268428   0.318   3.426  13.924 -0.1827 -0.1785 -0.0353
15646TIP3    H168429   0.344   3.387  13.841 -1.0460 -1.3464  0.2082
15646TIP3    H268430   0.223   3.432  13.918 -0.3574 -1.1823  1.2126
15647TIP3   OH268431   4.240   1.538  16.598  0.1800 -0.6936 -0.0260
15647TIP3    H168432   4.288   1.524  16.516  0.3121 -0.0602 -0.0616
15647TIP3    H268433   4.293   1.496  16.665  0.6109 -0.3036 -0.1174
15648TIP3   OH268434   1.840   4.329  11.808  0.0144 -0.1104  0.2878
15648TIP3    H168435   1.817   4.261  11.871 -1.1826 -1.2666 -1.3202
15648TIP3    H268436   1.757   4.357  11.771  0.6145  1.2074 -0.1416
15649TIP3   OH268437   1.173   3.621   1.023 -0.5566  0.0987  0.0364
15649TIP3    H168438   1.116   3.551   1.055 -1.8048  0.8675 -0.4328
15649TIP3    H268439   1.129   3.702   1.049  0.7308  0.7250  0.3523
15650TIP3   OH268440   1.570   1.439   5.423 -0.2868 -0.4621 -0.4151
15650TIP3    H168441   1.617   1.503   5.475  1.7106 -0.9898 -1.4547
15650TIP3    H268442   1.489   1.483   5.397  1.0068  1.6742 -1.0958
15651TIP3   OH268443   6.727   2.197   2.252 -0.2514 -0.3505  0.0002
15651TIP3    H168444   6.760   2.268   2.307  1.7238 -0.9623 -0.2994
15651TIP3    H268445   6.792   2.127   2.262 -0.3449 -0.8417 -2.3512
15652TIP3   OH268446   0.442   4.750   2.083 -0.1006 -0.0377 -0.0284
15652TIP3    H168447   0.460   4.839   2.052  1.1712 -0.5136 -0.7425
15652TIP3    H268448   0.373   4.761   2.148 -0.3237  1.4139 -0.4651
15653TIP3   OH268449   2.361   2.745   5.415 -0.2026  0.0939 -0.2696
15653TIP3    H168450   2.302   2.695   5.359  1.1467  0.1225 -1.7916
15653TIP3    H268451   2.373   2.828   5.369 -0.9942  1.1414  1.3277
15654TIP3   OH268452   1.508   5.248  15.536  0.0452 -0.6123  0.4013
15654TIP3    H168453   1.436   5.304  15.507  0.2471  0.0834  1.2162
15654TIP3    H268454   1.542   5.209  15.455 -0.5999 -0.1578 -0.0932
15655TIP3   OH268455   5.563   4.719   6.287 -0.1967 -0.3454  0.0648
15655TIP3    H168456   5.493   4.777   6.257  0.1455 -0.8059 -1.7977
15655TIP3    H268457   5.643   4.770   6.274 -0.0433 -0.5231  0.3054
15656TIP3   OH268458   5.609   1.323  13.797  0.0953 -0.3370  0.5805
15656TIP3    H168459   5.674   1.252  13.798  0.3332 -0.1302  1.7354
15656TIP3    H268460   5.639   1.383  13.729 -0.0196 -1.2543 -0.2978
15657TIP3   OH268461   3.628   6.741  12.392  0.1635 -0.5548 -0.4852
15657TIP3    H168462   3.674   6.825  12.388 -0.9822  0.0653 -1.5421
15657TIP3    H268463   3.647   6.707  12.479 -0.3597  1.4178  0.4658
15658TIP3   OH268464   3.682   5.504  13.044 -0.1418 -0.6406 -0.0816
15658TIP3    H168465   3.737   5.426  13.055  0.6955 -0.0469  0.0270
15658TIP3    H268466   3.636   5.513  13.127 -2.2796 -2.5166 -0.9647
15659TIP3   OH268467   1.331   2.759   4.456  0.0998 -0.3787  0.0912
15659TIP3    H168468   1.375   2.826   4.404 -1.0516  1.2115  1.0560
15659TIP3    H268469   1.382   2.679   4.441  2.3289  0.9913 -0.0361
15660TIP3   OH268470   0.912   6.704   2.398  0.6211  0.5586  0.0774
15660TIP3    H168471   0.933   6.702   2.305 -0.6642 -1.0094 -0.2220
15660TIP3    H268472   0.874   6.791   2.413  2.9753  1.7338 -0.2943
15661TIP3   OH268473   4.570   5.485   2.462  0.5724 -1.0958 -0.4627
15661TIP3    H168474   4.536   5.454   2.547 -0.1201  0.9149  0.0579
15661TIP3    H268475   4.664   5.494   2.476  0.4187 -0.4327  0.2472
15662TIP3   OH268476   2.014   3.231  15.142  0.5734 -0.6428  0.0521
15662TIP3    H168477   2.069   3.309  15.152  2.7275 -2.1316  0.2189
15662TIP3    H268478   1.947   3.241  15.210  1.3260  0.6296  0.6431
15663TIP3   OH268479   6.818   6.366   2.749  0.5540  0.2965  0.1997
15663TIP3    H168480   6.871   6.420   2.808  1.4541  0.5628 -0.8152
15663TIP3    H268481   6.835   6.403   2.662 -1.5883  0.6020 -0.1257
15664TIP3   OH268482   6.762   2.420  12.892  0.4791 -0.1628 -0.0092
15664TIP3    H168483   6.723   2.496  12.935  0.4116 -0.6502  0.8005
15664TIP3    H268484   6.695   2.352  12.897  0.3828 -0.1762 -1.0820
15665TIP3   OH268485   2.239   4.273  16.189  0.0625 -0.3473 -0.3873
15665TIP3    H168486   2.187   4.345  16.225  0.9411  1.3362 -2.2746
15665TIP3    H268487   2.190   4.245  16.112 -0.5711 -2.2442  0.6514
15666TIP3   OH268488   4.403   4.661  13.632  0.7645 -0.0016 -0.2689
15666TIP3    H168489   4.322   4.709  13.646 -0.0396 -1.0565 -1.1515
15666TIP3    H268490   4.470   4.712  13.678 -0.2474  1.3245 -0.2272
15667TIP3   OH268491   1.827   1.320   1.387  0.4364  0.0589 -0.6244
15667TIP3    H168492   1.841   1.399   1.334  1.6177 -0.2954 -0.8592
15667TIP3    H268493   1.733   1.320   1.404  0.1915  0.7589 -1.8181
15668TIP3   OH268494   1.628   0.973  15.524 -0.6888 -0.4400 -0.0462
15668TIP3    H168495   1.706   0.995  15.574  0.1679 -0.8880 -1.1552
15668TIP3    H268496   1.588   1.058  15.505 -0.2730 -0.1846  0.1982
15669TIP3   OH268497   0.053   3.095   3.517  0.0225 -0.4635 -0.1112
15669TIP3    H168498   0.133   3.138   3.547 -0.8982  1.6567 -0.5105
15669TIP3    H268499  -0.003   3.090   3.595  0.8862 -2.9357  0.4246
15670TIP3   OH268500   0.242   0.905   0.703 -0.3350 -0.4487  0.2980
15670TIP3    H168501   0.288   0.981   0.669 -0.1846  0.0470  1.5487
15670TIP3    H268502   0.157   0.907   0.661 -0.0712 -0.0005 -0.2217
15671TIP3   OH268503   0.168   2.349  13.806 -0.4473  0.1399  0.6228
15671TIP3    H168504   0.096   2.317  13.752 -1.5066 -0.0009  2.0353
15671TIP3    H268505   0.187   2.277  13.866 -1.2811  1.2449  2.3058
15672TIP3   OH268506   6.693   6.300   5.190  0.4487  0.1278 -0.0660
15672TIP3    H168507   6.611   6.288   5.142  0.0088 -1.6334  1.0437
15672TIP3    H268508   6.666   6.332   5.276  1.0688  1.0221 -0.1853
15673TIP3   OH268509   1.147   4.693  13.539  0.3128  0.1693 -0.1770
15673TIP3    H168510   1.171   4.662  13.626  0.9267  0.5700 -0.1923
15673TIP3    H268511   1.218   4.660  13.482 -1.2688 -2.1220 -0.9566
15674TIP3   OH268512   3.791   5.391   6.156  0.2915  0.4733 -0.1938
15674TIP3    H168513   3.758   5.409   6.068  1.3515  1.1052 -0.4793
15674TIP3    H268514   3.865   5.332   6.143 -1.0267 -1.3880  0.4881
15675TIP3   OH268515   6.187   1.661   4.514 -0.0276 -0.4488 -0.0457
15675TIP3    H168516   6.138   1.623   4.587  0.8668 -1.3557  0.1049
15675TIP3    H268517   6.214   1.747   4.546 -1.6124  0.1355 -0.1915
15676TIP3   OH268518   0.986   3.882  12.430 -0.2838 -0.3296  0.6737
15676TIP3    H168519   0.899   3.911  12.404  0.0362  0.5346  0.5495
15676TIP3    H268520   0.970   3.820  12.501 -0.9251  2.6428  3.3676
15677TIP3   OH268521   6.366   4.283  13.829  0.0387  0.0971  0.1053
15677TIP3    H168522   6.357   4.237  13.913 -0.1302  0.6245  0.3786
15677TIP3    H268523   6.460   4.282  13.811  0.3333  1.7103  1.3019
15678TIP3   OH268524   0.044   3.630   1.482 -0.2441  0.1675  0.3976
15678TIP3    H168525   0.116   3.644   1.543  0.3774  2.6194 -0.7684
15678TIP3    H268526  -0.034   3.628   1.537  0.2782  2.5179  1.3761
15679TIP3   OH268527   2.283   1.852   5.010  0.4582 -0.4924 -0.4360
15679TIP3    H168528   2.215   1.831   4.946  0.3999 -1.3508 -0.1067
15679TIP3    H268529   2.239   1.908   5.074  0.9968  2.0480 -2.1320
15680TIP3   OH268530   3.360   3.316  11.845 -0.2855 -0.3830  0.5879
15680TIP3    H168531   3.394   3.310  11.756 -0.6828  0.7791  0.3430
15680TIP3    H268532   3.403   3.392  11.882 -2.3578  0.9882  0.3591
15681TIP3   OH268533   4.311   3.548   3.403 -0.1104  0.5255  0.2676
15681TIP3    H168534   4.349   3.480   3.458 -0.3643 -0.1159 -0.3380
15681TIP3    H268535   4.245   3.590   3.459  0.9565  1.1732  1.0866
15682TIP3   OH268536   6.214   3.327  11.115 -0.5161  0.1070 -0.1142
15682TIP3    H168537   6.134   3.321  11.167 -2.0657 -3.5967 -2.5271
15682TIP3    H268538   6.206   3.256  11.051  3.5187  1.2708 -2.2013
15683TIP3   OH268539   4.116   4.036   1.808  0.0443 -0.1727 -0.3717
15683TIP3    H168540   4.179   4.043   1.736 -0.4467 -2.0868 -1.0513
15683TIP3    H268541   4.060   4.113   1.799  1.9664  1.3710  0.0005
15684TIP3   OH268542   2.954   1.775  11.036 -0.1634 -0.1536  0.4936
15684TIP3    H168543   2.945   1.764  10.942  1.4135 -1.6018  0.4474
15684TIP3    H268544   2.864   1.784  11.068 -0.7363  0.1464 -1.1093
15685TIP3   OH268545   0.516   0.265  16.454 -0.5979  0.1897 -0.2706
15685TIP3    H168546   0.580   0.197  16.475  1.2885  1.0536 -2.7492
15685TIP3    H268547   0.477   0.288  16.539  3.3135  0.5162  1.7001
15686TIP3   OH268548   3.377   0.809  15.138 -0.1746  0.1668  0.1306
15686TIP3    H168549   3.322   0.795  15.061  0.8812 -1.3323 -0.4006
15686TIP3    H268550   3.418   0.894  15.123  1.6046 -0.9717 -2.0428
15687TIP3   OH268551   5.547   3.845  10.713 -0.3893  0.1566  0.7806
15687TIP3    H168552   5.566   3.763  10.668 -1.0291 -0.0977  0.9746
15687TIP3    H268553   5.615   3.905  10.681 -0.3100 -0.2594  0.1372
15688TIP3   OH268554   3.844   6.418  11.053  0.1926  0.5014 -0.1786
15688TIP3    H168555   3.917   6.403  10.994  0.7084  0.5405  0.4318
15688TIP3    H268556   3.767   6.385  11.006  0.7830 -0.7650 -0.3100
15689TIP3   OH268557   5.288   3.406   3.703 -0.4190  0.3861 -0.2178
15689TIP3    H168558   5.215   3.442   3.752 -1.4055  0.4372 -1.6765
15689TIP3    H268559   5.309   3.472   3.637 -1.3988 -1.0592 -2.0760
15690TIP3   OH268560   0.277   1.419   0.577  0.5378  0.0781 -0.7781
15690TIP3    H168561   0.186   1.391   0.584  1.0923 -1.7544 -0.2707
15690TIP3    H268562   0.276   1.512   0.600 -1.8363  1.4542 -5.3777
15691TIP3   OH268563   6.409   0.047  15.925 -0.1509 -0.4297  0.0877
15691TIP3    H168564   6.435   0.132  15.889 -3.3449 -0.7903 -3.7072
15691TIP3    H268565   6.329   0.064  15.974 -1.4758 -1.3040 -1.6814
15692TIP3   OH268566   3.673   5.577  11.090  0.4352  0.1515 -0.3601
15692TIP3    H168567   3.581   5.554  11.097  0.6039 -0.1906  0.8990
15692TIP3    H268568   3.676   5.647  11.025 -0.7738  0.5363 -0.0129
15693TIP3   OH268569   6.113   6.367   1.014  0.0948 -0.1943  0.2013
15693TIP3    H168570   6.079   6.415   0.938  1.9896  1.1242  0.1335
15693TIP3    H268571   6.144   6.435   1.073  0.1452 -1.2720  1.4528
15694TIP3   OH268572   6.032   6.425   0.254  0.2503 -0.8268  0.7449
15694TIP3    H168573   5.994   6.362   0.193 -0.9486 -1.2091  1.8372
15694TIP3    H268574   6.124   6.398   0.262  0.4370 -0.7451 -0.8768
15695TIP3   OH268575   2.396   6.006   0.592  0.3887 -0.0275  0.1386
15695TIP3    H168576   2.459   5.958   0.647  0.4598 -0.5427 -0.3872
15695TIP3    H268577   2.344   6.057   0.655 -0.7111 -1.9366  0.8807
15696TIP3   OH268578   0.468   2.876   2.497 -0.0145 -0.3035  0.3304
15696TIP3    H168579   0.551   2.920   2.518 -0.5911  0.7515  0.4584
15696TIP3    H268580   0.423   2.869   2.581  0.1666 -1.3804  0.3510
15697TIP3   OH268581   0.671   5.143   6.020 -0.2879  0.1118 -0.6109
15697TIP3    H168582   0.636   5.109   6.102 -1.8265  0.1771 -1.1985
15697TIP3    H268583   0.677   5.067   5.963  0.9910  0.0277 -0.3947
15698TIP3   OH268584   6.437   0.068  15.588  0.1791 -0.6180 -0.0824
15698TIP3    H168585   6.527   0.076  15.617  0.0857 -0.5563  0.1928
15698TIP3    H268586   6.441   0.082  15.493  0.3766  0.0196  0.0115
15699TIP3   OH268587   2.026   3.971  12.321  0.7104 -0.3597 -0.3002
15699TIP3    H168588   2.011   4.055  12.363 -0.2304 -0.0813 -1.1555
15699TIP3    H268589   1.968   3.971  12.245  2.4175 -0.8029 -1.6579
15700TIP3   OH268590   1.715   6.372   6.157 -0.3203 -0.6855  0.1292
15700TIP3    H168591   1.745   6.432   6.226  0.8658  0.0433 -0.9753
15700TIP3    H268592   1.623   6.394   6.144 -0.0380  0.5474  0.1023
15701TIP3   OH268593   0.634   4.878   5.574 -0.4550  0.3023  0.2684
15701TIP3    H168594   0.717   4.900   5.617 -0.7373  1.8307  0.0942
15701TIP3    H268595   0.616   4.788   5.602 -0.5335  1.1210  3.2112
15702TIP3   OH268596   1.674   0.660   6.357 -0.7925 -0.5078  0.2819
15702TIP3    H168597   1.629   0.738   6.390  0.8655  1.5599 -1.9312
15702TIP3    H268598   1.603   0.605   6.322 -1.8709  1.2626 -0.4897
15703TIP3   OH268599   2.613   1.600   4.243  0.0712 -0.4760  0.0297
15703TIP3    H168600   2.680   1.537   4.216  0.0502 -0.0043 -1.1989
15703TIP3    H268601   2.601   1.584   4.337  2.4028 -0.1128  0.4574
15704TIP3   OH268602   3.466   4.622  14.023 -0.6429 -0.4891 -0.4064
15704TIP3    H168603   3.540   4.631  14.083 -3.0618 -0.5026  2.7709
15704TIP3    H268604   3.502   4.572  13.949  2.7684  0.5270  0.3643
15705TIP3   OH268605   2.110   0.336   6.288 -0.5149 -0.3261  0.5816
15705TIP3    H168606   2.088   0.329   6.381 -0.4640  0.0635  0.6270
15705TIP3    H268607   2.038   0.293   6.242 -0.5471 -0.5074  0.7995
15706TIP3   OH268608   1.269   5.375   1.089 -0.6405 -0.0183 -0.4440
15706TIP3    H168609   1.292   5.339   1.174 -0.3774  0.7719 -0.1660
15706TIP3    H268610   1.323   5.327   1.026  0.8843  0.9275  0.0674
15707TIP3   OH268611   3.412   5.048   0.847 -0.1762 -0.3888 -0.4085
15707TIP3    H168612   3.382   5.034   0.937  3.8528 -0.6730  1.0938
15707TIP3    H268613   3.405   4.962   0.805 -0.5425 -0.6240  0.1255
15708TIP3   OH268614   4.277   5.055   4.552 -0.4961 -0.0339  0.0122
15708TIP3    H168615   4.368   5.076   4.533 -0.2024 -0.9319  0.3709
15708TIP3    H268616   4.255   4.984   4.490 -1.6131  1.5701 -1.5238
15709TIP3   OH268617   5.246   0.114  12.469 -0.4499 -0.0609 -0.3177
15709TIP3    H168618   5.312   0.067  12.521 -1.0283 -1.6146 -0.9240
15709TIP3    H268619   5.296   0.164  12.405  0.3328  2.4685  2.0799
15710TIP3   OH268620   4.991   0.005  14.604  0.7410  0.0552 -0.3655
15710TIP3    H168621   4.997   0.024  14.510  0.6045  2.3832  0.0395
15710TIP3    H268622   4.898  -0.008  14.620  0.7294 -0.0237 -0.4976
15711TIP3   OH268623   4.691   6.590  17.220  0.2555  0.6555 -0.0857
15711TIP3    H168624   4.753   6.587  17.147  0.3868  1.0016  0.0091
15711TIP3    H268625   4.741   6.557  17.295  0.3844  1.0974  0.0282
15712TIP3   OH268626   6.117   5.421   3.487  0.1543  0.4849 -0.4097
15712TIP3    H168627   6.130   5.383   3.400 -0.4686  0.2887 -0.4256
15712TIP3    H268628   6.055   5.492   3.473  0.9681  1.2262 -0.3081
15713TIP3   OH268629   5.124   4.803  14.295 -0.0971 -0.0269 -0.2738
15713TIP3    H168630   5.200   4.747  14.310  0.8836  0.9159 -1.4657
15713TIP3    H268631   5.129   4.826  14.202 -0.9321  1.3461 -0.0133
15714TIP3   OH268632   0.734   5.479   5.374  1.0173  0.2118 -0.2533
15714TIP3    H168633   0.698   5.514   5.293  0.0517  0.1405  0.1249
15714TIP3    H268634   0.693   5.531   5.443  2.8689  1.2025  0.1672
15715TIP3   OH268635   6.661   2.900  15.841  0.5144 -0.3287  0.1375
15715TIP3    H168636   6.654   2.958  15.916 -0.6979  1.0989 -1.0328
15715TIP3    H268637   6.607   2.824  15.864 -1.0052  0.7273  0.1712
15716TIP3   OH268638   1.604   3.475   5.225 -0.2951  0.0360  0.3831
15716TIP3    H168639   1.626   3.562   5.259  0.1722 -0.9722  2.9079
15716TIP3    H268640   1.525   3.450   5.273 -0.9813 -0.5648 -1.0241
15717TIP3   OH268641   6.821   6.239  11.982 -0.7207  0.5813  0.0546
15717TIP3    H168642   6.733   6.264  12.010 -0.8513  0.9658 -0.6886
15717TIP3    H268643   6.830   6.275  11.894 -0.5704 -1.1641 -0.6944
15718TIP3   OH268644   0.500   4.032   2.938 -0.6927  0.0794  0.0200
15718TIP3    H168645   0.561   4.105   2.949 -0.3725 -0.0604 -0.7267
15718TIP3    H268646   0.414   4.070   2.951 -0.4367  0.1474  1.7634
15719TIP3   OH268647   2.626   3.355   0.088  0.4993  0.2394  0.7922
15719TIP3    H168648   2.567   3.280   0.088  0.3361  0.3359  2.2731
15719TIP3    H268649   2.573   3.428   0.121  1.4928  0.2420  2.5376
15720TIP3   OH268650   3.809   1.274   1.372 -0.0633 -0.6291 -0.1511
15720TIP3    H168651   3.798   1.274   1.277 -1.5877 -0.1922 -0.0049
15720TIP3    H268652   3.846   1.360   1.392  0.6299 -0.8700 -0.3742
15721TIP3   OH268653   4.378   2.992   5.355 -0.0835 -0.1698  0.3641
15721TIP3    H168654   4.371   2.915   5.299  0.6310 -1.2228  1.6682
15721TIP3    H268655   4.472   3.009   5.363 -0.2432  1.8837 -1.2130
15722TIP3   OH268656   6.114   0.006  13.425  0.9839 -0.2916  0.2408
15722TIP3    H168657   6.177   0.070  13.455 -0.6152  1.5808 -0.1987
15722TIP3    H268658   6.167  -0.071  13.402  3.1035  1.2626 -0.3576
15723TIP3   OH268659   5.054   4.675  10.936 -0.7942  0.2391 -0.2049
15723TIP3    H168660   5.124   4.668  10.872 -0.9691  0.8714 -0.4689
15723TIP3    H268661   5.053   4.589  10.979 -0.6122 -0.1580 -0.9707
15724TIP3   OH268662   2.222   1.021   4.384 -0.2334 -0.2560 -0.3361
15724TIP3    H168663   2.246   0.945   4.437 -1.2045  0.7222  1.6032
15724TIP3    H268664   2.299   1.077   4.385 -0.0362 -0.5203 -0.5119
15725TIP3   OH268665   1.076   5.189  17.108  0.4548 -0.2907  0.2629
15725TIP3    H168666   1.158   5.150  17.139  0.8123 -0.1969 -0.5449
15725TIP3    H268667   1.093   5.211  17.017 -0.0182  1.0004  0.4763
15726TIP3   OH268668   6.037   4.876  16.948 -0.3763 -0.4446  0.0501
15726TIP3    H168669   6.021   4.930  16.871 -0.6481  0.2900  0.6186
15726TIP3    H268670   6.113   4.822  16.924 -0.5408 -0.3164 -0.7755
15727TIP3   OH268671   5.018   6.609  13.340 -0.1569  0.3833 -0.3772
15727TIP3    H168672   5.019   6.670  13.413  1.0905  1.4607 -1.2411
15727TIP3    H268673   5.097   6.556  13.352  0.0984  0.6212 -0.9689
15728TIP3   OH268674   5.172   2.481  13.102 -0.2504  0.4045 -0.2669
15728TIP3    H168675   5.099   2.448  13.154 -0.7735  1.7836 -0.0826
15728TIP3    H268676   5.182   2.572  13.130  1.0216  0.4703 -0.8718
15729TIP3   OH268677   4.814   6.013   2.636  0.1441 -0.3918 -0.4851
15729TIP3    H168678   4.733   5.999   2.586 -1.0032  0.2548  1.1252
15729TIP3    H268679   4.811   6.105   2.661  0.6514 -0.7164  0.8312
15730TIP3   OH268680   4.418   4.921   0.938  1.0766 -0.2781 -0.8265
15730TIP3    H168681   4.445   5.007   0.906  1.9602 -0.0709  0.3964
15730TIP3    H268682   4.441   4.922   1.031  2.8986 -2.5200 -1.1561
15731TIP3   OH268683   2.803   1.420   0.615 -0.4847  0.0210  0.4323
15731TIP3    H168684   2.801   1.484   0.544 -0.6143 -0.0989  0.3265
15731TIP3    H268685   2.722   1.371   0.604 -0.1761 -0.4513  0.2456
15732TIP3   OH268686   1.114   0.428   5.353  0.4874  0.0356 -0.0275
15732TIP3    H168687   1.055   0.503   5.345  0.5262  0.0028 -0.6662
15732TIP3    H268688   1.193   0.464   5.392 -0.2876 -0.1029  1.7759
15733TIP3   OH268689   2.298   4.541   5.328  0.0210 -0.3579  0.5794
15733TIP3    H168690   2.272   4.560   5.418 -0.8956  0.1921  0.2078
15733TIP3    H268691   2.309   4.446   5.326 -2.6975 -0.7316  0.5884
15734TIP3   OH268692   2.490   1.740   4.709  0.1836  0.3230 -0.2255
15734TIP3    H168693   2.572   1.788   4.702  0.2073  0.4790  0.9755
15734TIP3    H268694   2.499   1.688   4.788 -0.9375  0.4675  0.0139
15735TIP3   OH268695   0.165   2.303  13.408  0.6022 -0.0855  0.4870
15735TIP3    H168696   0.119   2.293  13.491 -0.4804  1.5962  0.1350
15735TIP3    H268697   0.154   2.219  13.363 -0.8774 -0.2045  1.0396
15736TIP3   OH268698   2.600   0.635   6.476 -0.0433 -0.0102  0.5518
15736TIP3    H168699   2.609   0.642   6.381  0.5848 -1.7428  0.4370
15736TIP3    H268700   2.512   0.597   6.488  0.4990 -1.3357  0.5326
15737TIP3   OH268701   2.582   1.134   0.147  0.1195  0.3671 -0.5662
15737TIP3    H168702   2.500   1.143   0.196  1.0294 -1.5006  1.4733
15737TIP3    H268703   2.598   1.221   0.112 -3.4791  0.4893 -2.4001
15738TIP3   OH268704   6.479   3.776  11.279 -0.0096 -0.0724 -0.6932
15738TIP3    H168705   6.495   3.732  11.362 -2.6657 -0.0884 -0.1193
15738TIP3    H268706   6.500   3.868  11.297  1.8399 -0.4385 -0.7874
15739TIP3   OH268707   3.026   5.691  12.765  0.1443 -0.3395 -0.5121
15739TIP3    H168708   3.029   5.610  12.714  2.3134 -1.7088  1.5717
15739TIP3    H268709   2.983   5.667  12.847 -0.4242  1.0031 -0.3826
15740TIP3   OH268710   5.494   5.626  16.193  0.1806  0.3216  0.1698
15740TIP3    H168711   5.558   5.557  16.175  1.1484  1.3217 -0.3372
15740TIP3    H268712   5.422   5.580  16.237  0.8373 -0.9866 -0.0491
15741TIP3   OH268713   5.864   2.231   5.480 -0.1115  0.4621 -0.4301
15741TIP3    H168714   5.858   2.326   5.468  0.8937  0.5827 -0.1400
15741TIP3    H268715   5.949   2.218   5.524 -0.1964 -0.5753 -0.5429
15742TIP3   OH268716   2.793   6.013  11.706 -0.4615  0.1298 -0.1895
15742TIP3    H168717   2.722   6.075  11.687 -1.0732  0.0058  1.5374
15742TIP3    H268718   2.861   6.035  11.643 -0.2935  3.1440  0.8934
15743TIP3   OH268719   5.388   0.039   1.777  0.4660  0.1977  0.1559
15743TIP3    H168720   5.468   0.030   1.725 -0.9833  1.1590 -2.4379
15743TIP3    H268721   5.418   0.040   1.868  3.1428 -1.9022 -0.5629
15744TIP3   OH268722   5.164   4.013   6.367 -0.2900  0.3071  0.1043
15744TIP3    H168723   5.108   4.018   6.290 -0.6510 -0.9221  0.2753
15744TIP3    H268724   5.103   4.007   6.441  0.0475 -0.5499  0.3258
15745TIP3   OH268725   0.880   5.339  12.836 -0.2222  0.0923 -0.0680
15745TIP3    H168726   0.935   5.403  12.881  0.5643 -0.1324 -0.6922
15745TIP3    H268727   0.914   5.254  12.865 -0.2488 -0.0473 -0.4363
15746TIP3   OH268728   2.349   6.074   2.832 -0.1157 -0.2181 -0.2127
15746TIP3    H168729   2.287   6.133   2.874 -0.5577 -0.5190 -0.4414
15746TIP3    H268730   2.304   5.990   2.828  0.2119 -0.3779 -0.5982
15747TIP3   OH268731   5.768   5.137   4.368 -0.4674 -0.1226 -0.1089
15747TIP3    H168732   5.736   5.048   4.353 -0.2741 -0.1792 -0.1737
15747TIP3    H268733   5.814   5.160   4.288 -0.2094 -0.0959  0.0474
15748TIP3   OH268734   4.208   1.264  16.848 -0.0037 -0.4776  0.3590
15748TIP3    H168735   4.250   1.211  16.916 -1.7706 -0.3830  1.5872
15748TIP3    H268736   4.160   1.202  16.794  0.4802 -0.4303 -0.1375
15749TIP3   OH268737   3.297   3.564  16.952  0.1054 -0.1600 -0.3277
15749TIP3    H168738   3.221   3.602  16.997 -1.6309 -0.9704 -2.3616
15749TIP3    H268739   3.261   3.486  16.907  1.5434  0.7485 -3.3199
15750TIP3   OH268740   6.472   4.670   1.298 -0.2471  0.1758 -0.1131
15750TIP3    H168741   6.403   4.708   1.353 -0.4101 -0.9094  0.4587
15750TIP3    H268742   6.553   4.702   1.337 -0.3875  0.1038  0.2473
15751TIP3   OH268743   5.152   3.469   5.068  0.1072 -0.0614  0.6663
15751TIP3    H168744   5.149   3.559   5.099 -0.5835  0.2501 -0.2758
15751TIP3    H268745   5.061   3.449   5.044 -0.2126 -1.7459  2.8822
15752TIP3   OH268746   4.405   1.256  11.692 -0.4514 -0.2190 -0.4234
15752TIP3    H168747   4.491   1.231  11.659 -0.4841 -0.6765 -0.1679
15752TIP3    H268748   4.423   1.321  11.760 -0.3398  0.0851 -0.7392
15753TIP3   OH268749   6.475   1.067  14.293 -0.0836 -0.1851 -0.1925
15753TIP3    H168750   6.408   1.038  14.355  1.4597 -0.5457  1.3866
15753TIP3    H268751   6.445   1.154  14.265 -0.4635  0.3298  1.6825
15754TIP3   OH268752   1.721   4.448  13.703 -0.1122  0.8735 -0.0859
15754TIP3    H168753   1.656   4.451  13.773  0.2751  0.1197  0.3249
15754TIP3    H268754   1.705   4.364  13.660  1.8175 -0.2538  1.2579
15755TIP3   OH268755   3.737   6.014   1.636 -0.1020  0.4129  0.0845
15755TIP3    H168756   3.832   6.021   1.635  0.0212 -0.9330  0.6412
15755TIP3    H268757   3.706   6.104   1.628  1.2169  1.0745  1.9069
15756TIP3   OH268758   4.788   1.806  13.599 -0.1164  0.5326 -0.2815
15756TIP3    H168759   4.821   1.896  13.595 -1.4844  1.0202 -1.1934
15756TIP3    H268760   4.764   1.794  13.691  0.1590  1.0694 -0.1373
15757TIP3   OH268761   4.717   0.127  12.584 -0.2812  0.2847 -0.2800
15757TIP3    H168762   4.626   0.105  12.564 -0.8435  0.5484  1.7184
15757TIP3    H268763   4.718   0.222  12.592  0.1777  0.2862 -0.3218
15758TIP3   OH268764   6.671   6.307   1.860 -0.0301  0.5780 -0.0508
15758TIP3    H168765   6.758   6.332   1.890 -0.1494  1.0422 -0.0887
15758TIP3    H268766   6.624   6.390   1.849  0.3234  0.5376 -2.4475
15759TIP3   OH268767   3.125   6.691   0.601 -0.0429 -0.3694 -0.7936
15759TIP3    H168768   3.143   6.692   0.695 -1.6573 -0.5076 -0.4415
15759TIP3    H268769   3.075   6.610   0.588  0.5559 -0.5793 -1.8555
15760TIP3   OH268770   4.042   4.951  13.993 -0.2009 -0.2899 -0.1492
15760TIP3    H168771   4.072   5.036  13.959 -1.0971 -0.7953 -2.3819
15760TIP3    H268772   4.112   4.890  13.970 -0.2836 -0.4453  0.0068
15761TIP3   OH268773   1.837   6.805  12.866 -0.6919 -0.2688 -0.2556
15761TIP3    H168774   1.868   6.888  12.903  1.9885 -0.4021 -2.0114
15761TIP3    H268775   1.743   6.820  12.852 -0.1588  2.8224 -1.3577
15762TIP3   OH268776   4.004   6.596   2.371 -0.5338  0.4493  0.3641
15762TIP3    H168777   4.020   6.601   2.277  0.7570 -1.6545  0.4174
15762TIP3    H268778   3.909   6.606   2.379 -1.1059 -2.3579 -1.4995
15763TIP3   OH268779   3.949   0.324   4.832 -0.1386  0.0791  0.1790
15763TIP3    H168780   3.914   0.335   4.744 -1.2546  0.9179  0.7031
15763TIP3    H268781   3.873   0.327   4.889  0.4459 -1.5277  1.1256
15764TIP3   OH268782   6.195   0.391   2.381  0.1285 -0.0318  0.5366
15764TIP3    H168783   6.126   0.398   2.447 -1.1947 -1.0072 -0.6602
15764TIP3    H268784   6.251   0.320   2.413 -0.1939 -0.1433  0.8708
15765TIP3   OH268785   2.843   1.534   5.520 -0.3472 -0.4544 -0.7602
15765TIP3    H168786   2.758   1.507   5.557  0.2634  0.4453  1.4990
15765TIP3    H268787   2.844   1.629   5.529  0.5587 -0.3803 -1.5420
15766TIP3   OH268788   5.318   1.341   5.860  0.5586  0.0292 -0.3602
15766TIP3    H168789   5.355   1.370   5.943  0.6989 -2.3731  0.4918
15766TIP3    H268790   5.223   1.341   5.874  0.6266 -1.5408  0.2659
15767TIP3   OH268791   6.342   2.528  17.114  0.4649 -0.1264  0.6338
15767TIP3    H168792   6.369   2.602  17.058 -1.2199  0.5311  0.6230
15767TIP3    H268793   6.366   2.450  17.064  2.7478  0.3678  0.8652
15768TIP3   OH268794   0.079   1.998  16.358  0.4510 -0.0612 -0.8626
15768TIP3    H168795   0.087   1.903  16.350  0.0152 -0.0644 -1.3460
15768TIP3    H268796  -0.015   2.015  16.348  0.4050  0.3452  0.1393
15769TIP3   OH268797   1.898   4.090   1.363 -0.1215  0.0139 -0.5313
15769TIP3    H168798   1.991   4.080   1.383 -0.2461 -1.1855 -0.5234
15769TIP3    H268799   1.876   4.013   1.311 -0.6335  1.3123 -2.3393
15770TIP3   OH268800   4.084   2.468  16.700 -0.1332 -0.1171 -0.1318
15770TIP3    H168801   4.034   2.546  16.679 -1.1102 -0.7061 -0.0389
15770TIP3    H268802   4.106   2.429  16.615  0.2599  0.1882 -0.1751
15771TIP3   OH268803   3.585   0.565   5.731  0.1347  0.3624 -0.7458
15771TIP3    H168804   3.654   0.524   5.782 -0.0757  0.4455 -0.3874
15771TIP3    H268805   3.514   0.501   5.731  0.0769  0.4264 -0.7972
15772TIP3   OH268806   1.694   6.556  15.709  0.6041 -0.3689 -0.0631
15772TIP3    H168807   1.634   6.591  15.776 -1.4094 -3.3343 -0.1020
15772TIP3    H268808   1.682   6.614  15.634 -2.6859 -1.0494 -0.2140
15773TIP3   OH268809   1.428   4.618  15.204  0.1468 -0.1387 -0.1929
15773TIP3    H168810   1.463   4.585  15.121  1.4025 -0.1658  0.3393
15773TIP3    H268811   1.460   4.708  15.209 -0.8002  0.2108 -0.2222
15774TIP3   OH268812   4.574   0.163   5.865 -0.1670 -0.0926  0.5315
15774TIP3    H168813   4.594   0.206   5.948 -1.0619  2.0125 -0.2850
15774TIP3    H268814   4.554   0.234   5.804 -1.5235 -1.6586 -0.9750
15775TIP3   OH268815   1.441   4.580  16.704  0.4119 -0.1016 -0.1715
15775TIP3    H168816   1.505   4.610  16.640  0.4006  0.4900  0.0853
15775TIP3    H268817   1.466   4.623  16.786 -0.9604  1.0769 -0.3191
15776TIP3   OH268818   4.838   2.676   2.878 -0.1312  0.1963  0.5206
15776TIP3    H168819   4.747   2.703   2.895  0.4149  3.3251 -0.8466
15776TIP3    H268820   4.859   2.617   2.951 -2.8211  0.3891  1.5982
15777TIP3   OH268821   5.557   6.814  15.744 -0.2600 -0.8364 -0.2247
15777TIP3    H168822   5.489   6.786  15.804  0.6323 -0.6487  0.9108
15777TIP3    H268823   5.615   6.738  15.737  0.7645 -0.1907  0.8262
15778TIP3   OH268824   0.374   1.537  11.962 -0.1508  0.2568 -0.0595
15778TIP3    H168825   0.466   1.541  11.987  0.0141 -0.5566 -0.5157
15778TIP3    H268826   0.371   1.478  11.887 -1.2178 -0.8607  0.8130
15779TIP3   OH268827   5.730   1.358   3.648  0.0737  0.2477 -0.2525
15779TIP3    H168828   5.765   1.378   3.735  2.1068  1.1385 -1.2312
15779TIP3    H268829   5.657   1.419   3.637 -0.9416 -0.6202  1.2118
15780TIP3   OH268830   0.421   6.672  12.848  0.4245  0.7457 -0.1758
15780TIP3    H168831   0.404   6.679  12.942 -1.1756 -1.2704 -0.2431
15780TIP3    H268832   0.509   6.634  12.842  0.2329  0.1863  0.5196
15781TIP3   OH268833   3.245   3.977   0.928  0.3296  0.2312 -0.0137
15781TIP3    H168834   3.213   3.910   0.868 -0.7691  1.0699 -0.3849
15781TIP3    H268835   3.333   3.998   0.895  0.5157 -0.7140 -0.1402
15782TIP3   OH268836   4.968   4.311   0.445 -0.5420  0.0158  0.4380
15782TIP3    H168837   4.873   4.300   0.456 -0.5636  0.3666  0.6257
15782TIP3    H268838   4.999   4.338   0.532 -0.2933  0.0445  0.3404
15783TIP3   OH268839   1.211   5.334   6.357 -0.0222  0.0284  0.0397
15783TIP3    H168840   1.215   5.406   6.293  0.2066  0.6106  0.6946
15783TIP3    H268841   1.300   5.330   6.393 -0.3237  0.1553  0.8072
15784TIP3   OH268842   3.202   5.509  10.864  0.2304  0.0123 -0.1826
15784TIP3    H168843   3.169   5.420  10.848  0.3621 -0.3586  1.4089
15784TIP3    H268844   3.240   5.536  10.780  0.9110 -1.7577 -0.4828
15785TIP3   OH268845   2.422   4.135   1.588  0.2542  0.2712  0.0095
15785TIP3    H168846   2.460   4.192   1.521 -0.2064 -0.9259 -1.3233
15785TIP3    H268847   2.430   4.047   1.552 -1.1459 -0.2871  0.9717
15786TIP3   OH268848   1.474   1.262  16.230  0.0938 -0.4556  0.2225
15786TIP3    H168849   1.488   1.335  16.170  3.7155 -1.0856  0.0800
15786TIP3    H268850   1.526   1.285  16.307  1.3871 -2.8416  0.1501
15787TIP3   OH268851   0.421   2.547  11.459  0.2417  0.3576 -0.1996
15787TIP3    H168852   0.453   2.457  11.465  0.4750  0.4642  0.1476
15787TIP3    H268853   0.366   2.547  11.381  0.2747 -0.0770 -0.2269
15788TIP3   OH268854   4.191   5.783  12.975  0.0409  0.7391  0.2156
15788TIP3    H168855   4.269   5.733  12.953  0.5287  0.5838  2.1173
15788TIP3    H268856   4.122   5.744  12.921  0.5682 -1.4764  1.0039
15789TIP3   OH268857   0.253   3.724  15.552 -0.4048 -0.0581  0.3195
15789TIP3    H168858   0.273   3.757  15.464 -1.2153  0.4426  0.3092
15789TIP3    H268859   0.178   3.665  15.539  0.1645 -0.8520  0.5326
15790TIP3   OH268860   4.684   6.535   6.557 -0.2049  0.1911 -0.4269
15790TIP3    H168861   4.622   6.608   6.569 -0.5041  0.0065 -0.8312
15790TIP3    H268862   4.636   6.472   6.503 -0.0401 -0.4264  0.1491
15791TIP3   OH268863   0.901   2.968   4.454  0.4117  0.3744  0.2797
15791TIP3    H168864   0.973   2.952   4.514  0.8058  1.5087  0.1297
15791TIP3    H268865   0.828   2.994   4.510  0.4473  0.3166  0.3530
15792TIP3   OH268866   1.164   5.366   4.854  0.3944 -0.8305 -0.5551
15792TIP3    H168867   1.251   5.331   4.869  1.0258  0.7270 -0.3439
15792TIP3    H268868   1.164   5.451   4.898 -1.8142 -1.5018  0.9250
15793TIP3   OH268869   5.496   3.876  15.076  0.1128  0.6181 -0.0749
15793TIP3    H168870   5.497   3.781  15.090  0.1663  0.7113  0.5765
15793TIP3    H268871   5.480   3.886  14.982 -0.2389 -0.0310 -0.0901
15794TIP3   OH268872   1.477   4.524  13.887  0.2023  0.1777  0.0819
15794TIP3    H168873   1.440   4.552  13.971 -0.7334 -0.2484 -0.1750
15794TIP3    H268874   1.472   4.601  13.831 -1.8446 -0.2682 -0.4502
15795TIP3   OH268875   0.461   0.044  15.866  0.1168  0.9984 -0.1787
15795TIP3    H168876   0.536  -0.003  15.905  1.3490  0.7240 -2.6438
15795TIP3    H268877   0.497   0.083  15.786 -2.3284  1.1039 -1.3064
15796TIP3   OH268878   2.079   2.463   0.122 -0.0780  0.4152  0.3822
15796TIP3    H168879   2.141   2.402   0.082  0.2433  1.1708 -0.3038
15796TIP3    H268880   2.014   2.480   0.054 -1.7927 -1.3367  1.4961
15797TIP3   OH268881   1.711   0.692  17.163 -0.0217 -0.0430  0.4278
15797TIP3    H168882   1.761   0.748  17.222 -1.3108  0.6999  0.8719
15797TIP3    H268883   1.751   0.605  17.172 -0.3745 -0.0322  2.6864
15798TIP3   OH268884   5.203   0.723   3.505 -0.0939  0.1669 -0.1349
15798TIP3    H168885   5.205   0.629   3.520 -0.5667  0.1597 -0.0818
15798TIP3    H268886   5.159   0.758   3.583 -0.5211  0.3606 -0.4586
15799TIP3   OH268887   0.589   0.413  14.412 -0.2161  0.1613 -0.0466
15799TIP3    H168888   0.677   0.395  14.377 -0.5795 -0.8685 -0.4526
15799TIP3    H268889   0.604   0.430  14.505  0.4182 -0.0157 -0.1074
15800TIP3   OH268890   6.551   2.509  13.103  0.0963  0.5031 -0.1100
15800TIP3    H168891   6.592   2.435  13.148 -0.2058  0.1558 -0.3999
15800TIP3    H268892   6.480   2.537  13.161  2.0201  2.4964  1.4547
15801TIP3   OH268893   0.942   2.120  14.571 -0.6044 -0.5720 -0.1752
15801TIP3    H168894   1.019   2.157  14.613 -0.4899 -1.3486  0.3176
15801TIP3    H268895   0.920   2.182  14.501  0.0775 -0.0219  0.0914
15802TIP3   OH268896   4.498   4.293  11.111  0.1818 -0.0700 -0.4744
15802TIP3    H168897   4.584   4.315  11.075  0.2937 -3.3222 -2.6334
15802TIP3    H268898   4.437   4.311  11.039 -0.5564 -0.5422  0.0162
15803TIP3   OH268899   2.490   3.444  10.866 -0.3183 -0.0017 -0.3105
15803TIP3    H168900   2.559   3.489  10.817 -0.4493  0.3408 -0.1834
15803TIP3    H268901   2.419   3.434  10.803  0.2154 -1.2749 -0.7476
15804TIP3   OH268902   4.474   5.200  12.108  0.1246 -0.0183  0.1593
15804TIP3    H168903   4.438   5.285  12.133  1.0411  0.2752  0.5307
15804TIP3    H268904   4.501   5.160  12.191 -0.3477 -0.7001 -0.0073
15805TIP3   OH268905   4.325   4.551   1.899  0.7121 -0.7033 -0.0378
15805TIP3    H168906   4.337   4.644   1.879  0.8039 -0.6286  0.3574
15805TIP3    H268907   4.354   4.542   1.990 -1.4760 -0.6883  0.6987
15806TIP3   OH268908   1.374   1.894   2.630  0.0382 -0.0846  0.3218
15806TIP3    H168909   1.441   1.909   2.697 -0.4548  1.7247  0.4765
15806TIP3    H268910   1.343   1.982   2.607 -1.7917 -0.8194 -0.2396
15807TIP3   OH268911   4.707   3.567   2.918  0.2716  0.0447 -0.2805
15807TIP3    H168912   4.800   3.573   2.897  0.6159 -2.6739  0.0367
15807TIP3    H268913   4.702   3.587   3.012  0.6280 -0.2917 -0.1858
15808TIP3   OH268914   1.098   2.831   0.124 -0.1690 -0.4648 -0.2372
15808TIP3    H168915   1.169   2.893   0.113  0.3037 -0.6751  1.3657
15808TIP3    H268916   1.024   2.883   0.153  0.0888 -0.5828  0.6386
15809TIP3   OH268917   3.252   1.558   6.035 -0.1335  0.6243 -0.2239
15809TIP3    H168918   3.212   1.478   6.069 -0.1863  0.6788 -0.1580
15809TIP3    H268919   3.184   1.597   5.980 -0.0757  0.5762 -0.3299
15810TIP3   OH268920   4.960   2.793   1.051  0.1357  0.3980  0.1184
15810TIP3    H168921   4.990   2.709   1.084  2.6792  1.3924  0.6000
15810TIP3    H268922   5.010   2.806   0.970 -1.1452  0.8981 -0.6076
15811TIP3   OH268923   3.377   0.361   5.667  0.1616 -0.8784 -0.2779
15811TIP3    H168924   3.328   0.404   5.596 -0.4672  0.8142  1.1154
15811TIP3    H268925   3.311   0.344   5.734  1.2792  0.7584  1.3368
15812TIP3   OH268926   1.344   0.457  15.750 -0.9585 -0.1166 -0.3071
15812TIP3    H168927   1.298   0.428  15.829  0.7752  2.5576  1.8833
15812TIP3    H268928   1.298   0.537  15.723  0.1177  0.5317 -0.2834
15813TIP3   OH268929   3.069   5.312   5.620  0.8830  0.1832 -0.1977
15813TIP3    H168930   3.050   5.351   5.534  1.9791  0.5020 -0.3123
15813TIP3    H268931   3.123   5.236   5.600 -0.9506 -1.2516  0.0518
15814TIP3   OH268932   3.816   6.373  12.821  0.0132 -0.2805 -0.2954
15814TIP3    H168933   3.725   6.345  12.835  0.1628 -0.5455  0.1516
15814TIP3    H268934   3.811   6.469  12.822  0.3193 -0.1155  4.0398
15815TIP3   OH268935   5.868   5.643  13.483 -0.5718 -0.3794  0.5119
15815TIP3    H168936   5.946   5.614  13.436 -1.2030 -0.2288 -0.6451
15815TIP3    H268937   5.826   5.562  13.512 -1.1110 -0.5516 -0.7202
15816TIP3   OH268938   3.559   2.651  16.487 -0.4647  0.1700  0.1703
15816TIP3    H168939   3.570   2.694  16.403  0.3737 -0.4760 -0.0682
15816TIP3    H268940   3.609   2.704  16.549  0.0507 -0.0995 -0.0070
15817TIP3   OH268941   5.659   4.849   3.113  0.1847 -1.0776 -0.1710
15817TIP3    H168942   5.658   4.821   3.205  2.0007 -2.7813 -0.6019
15817TIP3    H268943   5.701   4.776   3.066 -2.2086 -1.0035 -2.6404
15818TIP3   OH268944   5.242   1.861  14.193 -0.4405  0.4788 -0.1958
15818TIP3    H168945   5.297   1.785  14.213  1.4971  1.0903 -2.8493
15818TIP3    H268946   5.189   1.872  14.273 -1.2022 -3.8802  0.2027
15819TIP3   OH268947   2.079   1.463  13.508  0.1617 -0.6214  0.1297
15819TIP3    H168948   2.137   1.421  13.572  0.9882  1.0763  0.5553
15819TIP3    H268949   2.050   1.391  13.452 -0.1935 -2.0940  2.0714
15820TIP3   OH268950   5.589   5.854  14.413  0.4979 -0.3925  0.9295
15820TIP3    H168951   5.639   5.915  14.358 -1.2820  1.4491  1.2311
15820TIP3    H268952   5.606   5.883  14.503  0.4422 -1.0025  1.1389
15821TIP3   OH268953   4.196   1.354  12.307  0.1034  0.1085 -0.1866
15821TIP3    H168954   4.204   1.444  12.336  0.1372  0.0221  0.0786
15821TIP3    H268955   4.103   1.343  12.288  0.3312  0.6458 -1.7171
15822TIP3   OH268956   6.227   6.796   2.583 -0.0454 -0.3546  0.1877
15822TIP3    H168957   6.309   6.765   2.544  0.4150 -0.0258  0.8627
15822TIP3    H268958   6.159   6.770   2.521  0.7948  1.4101 -1.5789
15823TIP3   OH268959   2.175   1.098  16.682  0.4622 -0.2225  0.2296
15823TIP3    H168960   2.194   1.071  16.772  1.0943  0.3507  0.2783
15823TIP3    H268961   2.259   1.094  16.638 -0.3241 -3.7905 -1.2884
15824TIP3   OH268962   5.191   5.545   0.921 -0.4271  0.0826  0.3362
15824TIP3    H168963   5.202   5.457   0.885  0.8092  0.5961 -0.6048
15824TIP3    H268964   5.159   5.597   0.847 -1.8606  0.2943  1.0699
15825TIP3   OH268965   4.908   6.429  12.934 -0.4448 -0.1747 -0.3844
15825TIP3    H168966   4.822   6.421  12.893 -0.9605 -0.9954  0.8068
15825TIP3    H268967   4.889   6.448  13.026  0.6775  2.1548 -0.5522
15826TIP3   OH268968   2.056   5.516   5.901  0.1223 -0.3993 -0.7384
15826TIP3    H168969   2.115   5.567   5.845  0.3819  0.6491  0.4331
15826TIP3    H268970   1.969   5.550   5.880  0.3882  1.4050  0.8290
15827TIP3   OH268971   4.660   6.490  16.348 -0.2606 -0.8207  0.2560
15827TIP3    H168972   4.607   6.508  16.426  1.0306 -0.6722  1.1198
15827TIP3    H268973   4.689   6.399  16.360 -0.3776 -0.9293 -0.2605
15828TIP3   OH268974   2.858   5.822   2.690  0.3911  0.1066  0.2824
15828TIP3    H168975   2.786   5.788   2.743  0.5897  1.0377  1.1760
15828TIP3    H268976   2.862   5.915   2.711  0.3032  0.5736 -1.5897
15829TIP3   OH268977   3.671   5.931  16.187  0.2446  0.2877 -0.2108
15829TIP3    H168978   3.635   5.862  16.242  1.3210 -0.0634  0.0647
15829TIP3    H268979   3.760   5.945  16.219  0.5943  0.6887 -1.2910
15830TIP3   OH268980   3.718   2.974   0.116  0.2481 -0.1185 -0.0855
15830TIP3    H168981   3.720   2.966   0.211  2.0082  0.0696 -0.0756
15830TIP3    H268982   3.631   3.008   0.097 -0.6535 -1.4876  1.3226
15831TIP3   OH268983   5.848   1.738   5.735 -0.1590 -0.2972 -0.0377
15831TIP3    H168984   5.906   1.789   5.677 -1.4379  1.2339 -0.0559
15831TIP3    H268985   5.906   1.675   5.778  1.3108  0.4033 -0.9016
15832TIP3   OH268986   6.052   4.387  13.442 -0.5081 -0.2626  0.1290
15832TIP3    H168987   5.960   4.360  13.431  0.0774 -1.9701 -1.0483
15832TIP3    H268988   6.078   4.348  13.525 -0.6838 -0.2282  0.2022
15833TIP3   OH268989   1.994   0.320   5.312 -0.0448 -0.2522 -0.2878
15833TIP3    H168990   1.953   0.234   5.314 -0.3151 -0.1346  2.5315
15833TIP3    H268991   2.088   0.303   5.310 -0.0862 -0.5297 -2.3360
15834TIP3   OH268992   1.007   6.320   4.580 -0.3392 -0.2079  0.0786
15834TIP3    H168993   0.957   6.316   4.661 -0.3285 -1.0701  0.0547
15834TIP3    H268994   1.092   6.281   4.602 -1.4151 -3.5450 -1.0763
15835TIP3   OH268995   0.554   0.241   3.782 -0.3648 -0.1760 -0.7092
15835TIP3    H168996   0.609   0.176   3.737 -0.9907 -1.2018 -0.0390
15835TIP3    H268997   0.497   0.189   3.839 -1.5770  0.8972 -0.8898
15836TIP3   OH268998   4.535   0.120  14.048 -0.5233 -0.0798  0.1144
15836TIP3    H168999   4.500   0.100  14.135  1.6829  0.6719  1.2521
15836TIP3    H269000   4.625   0.090  14.051  0.1158  1.5264 -1.2876
15837TIP3   OH269001   1.514   1.920   1.342  0.8861  0.0318  0.3903
15837TIP3    H169002   1.556   1.965   1.415  0.0127  1.4842  0.0555
15837TIP3    H269003   1.507   1.987   1.274 -0.0667 -0.7472 -0.3065
15838TIP3   OH269004   1.652   0.791  16.373 -0.2294  0.5937 -0.1893
15838TIP3    H169005   1.668   0.884  16.388 -0.8353  0.5347  0.9754
15838TIP3    H269006   1.572   0.772  16.423  0.2590 -0.6904  0.1627
15839TIP3   OH269007   0.900   4.052  11.335 -0.3383  0.5221 -0.6683
15839TIP3    H169008   0.943   3.972  11.368  1.0227  0.7948 -1.6758
15839TIP3    H269009   0.891   4.037  11.241  1.4732  2.1771 -1.1746
15840TIP3   OH269010   2.568   6.009   1.799  0.6034 -0.4657  0.1433
15840TIP3    H169011   2.618   5.933   1.769 -0.1988 -0.0465 -2.4357
15840TIP3    H269012   2.485   5.972   1.829 -0.3625 -0.5689 -2.4623
15841TIP3   OH269013   1.007   2.472  15.574  0.4123  0.3937 -0.2215
15841TIP3    H169014   0.975   2.535  15.640  0.8781 -0.4065  0.7916
15841TIP3    H269015   0.951   2.395  15.585  1.4597 -0.3199  0.2989
15842TIP3   OH269016   6.127   6.141   3.742 -0.0518 -0.1180 -0.1478
15842TIP3    H169017   6.083   6.134   3.657  0.0877  0.4314 -0.2719
15842TIP3    H269018   6.187   6.215   3.731 -2.5786  2.4123  1.4886
15843TIP3   OH269019   3.572   6.326   2.090 -0.2359  0.2369  0.4276
15843TIP3    H169020   3.604   6.236   2.093 -2.4777 -0.6312  0.3028
15843TIP3    H269021   3.550   6.346   2.181 -0.0044  0.5778  0.4115
15844TIP3   OH269022   6.710   4.733   1.548 -0.2486  0.1277 -0.5047
15844TIP3    H169023   6.737   4.703   1.461  1.9510  1.2589 -0.2511
15844TIP3    H269024   6.640   4.796   1.531  0.2250  0.4064 -1.4433
15845TIP3   OH269025   3.255   4.210  16.627  0.0319 -0.5345 -0.2710
15845TIP3    H169026   3.166   4.182  16.649  0.1747 -1.0643 -0.3481
15845TIP3    H269027   3.297   4.130  16.595  0.2165 -0.0647 -1.2361
15846TIP3   OH269028   6.518   0.515  14.839  0.3256  0.6637  0.4663
15846TIP3    H169029   6.575   0.467  14.899 -0.4308 -1.5357 -0.4675
15846TIP3    H269030   6.484   0.588  14.891  0.3683 -0.6554  2.4460
15847TIP3   OH269031   6.290   1.884  14.862 -0.3538 -0.4922 -0.3109
15847TIP3    H169032   6.346   1.839  14.798  0.4557  0.0136  0.0236
15847TIP3    H269033   6.296   1.830  14.941  0.4246  0.0487  0.0151
15848TIP3   OH269034   4.380   4.984   2.057  0.1529  0.1283  0.1984
15848TIP3    H169035   4.472   5.012   2.051 -0.2253  1.1945 -2.1275
15848TIP3    H269036   4.371   4.920   1.987 -0.9833  0.4157  0.0724
15849TIP3   OH269037   5.360   3.544   5.575 -0.1778  0.5508 -0.0389
15849TIP3    H169038   5.448   3.522   5.544  0.0506 -0.0236  0.9514
15849TIP3    H269039   5.306   3.469   5.549 -0.2182  0.5720 -0.0162
15850TIP3   OH269040   5.219   3.804  12.858  1.0010  0.0292 -0.1598
15850TIP3    H169041   5.135   3.758  12.859  0.3431  1.1988  0.2168
15850TIP3    H269042   5.230   3.834  12.768  1.1926 -0.4308 -0.2918
15851TIP3   OH269043   1.201   4.316   5.634  0.2697 -0.0319 -0.3022
15851TIP3    H169044   1.230   4.287   5.721 -0.5619 -1.2724 -0.4103
15851TIP3    H269045   1.247   4.398   5.619  0.9151 -0.1276  1.0452
15852TIP3   OH269046   1.566   6.298  16.896  0.1279 -0.3402  0.0534
15852TIP3    H169047   1.557   6.377  16.950  1.2783 -0.5448  0.5782
15852TIP3    H269048   1.659   6.296  16.872  0.1751 -1.6721  0.2667
15853TIP3   OH269049   2.599   2.181   0.438  0.6128  0.6527 -0.0752
15853TIP3    H169050   2.576   2.196   0.530 -0.1282  0.5989 -0.2473
15853TIP3    H269051   2.675   2.237   0.423 -0.0783  1.6914  0.2074
15854TIP3   OH269052   0.970   5.788   1.363 -0.0583  0.3559 -0.0028
15854TIP3    H169053   1.055   5.760   1.329 -1.0658 -0.8932 -1.6877
15854TIP3    H269054   0.987   5.815   1.453  2.3061  1.2632 -0.6567
15855TIP3   OH269055   0.056   0.160   5.280  0.3758  0.6235 -0.6896
15855TIP3    H169056   0.105   0.078   5.273 -1.1641 -0.2274 -2.0937
15855TIP3    H269057  -0.028   0.142   5.239 -0.2178  2.7615 -0.5469
15856TIP3   OH269058   6.792   1.329   3.279  0.1090 -0.1060  0.5171
15856TIP3    H169059   6.757   1.397   3.337  0.8787  0.4615  0.3370
15856TIP3    H269060   6.850   1.377   3.219  0.4693 -0.8893  0.2283
15857TIP3   OH269061   3.614   0.906   4.850  0.7646 -0.2088  0.0105
15857TIP3    H169062   3.677   0.910   4.778 -0.9435  0.7110 -1.5454
15857TIP3    H269063   3.591   0.814   4.857  0.8902 -0.3077 -0.7333
15858TIP3   OH269064   1.997   0.957  17.001 -0.6950  0.4102 -0.4742
15858TIP3    H169065   2.077   1.008  16.985 -0.6071  0.6319  0.5789
15858TIP3    H269066   2.021   0.868  16.978 -0.0060  0.4090  0.2047
15859TIP3   OH269067   4.241   3.404  11.199 -0.2204 -0.1151 -0.2495
15859TIP3    H169068   4.270   3.493  11.218 -1.5556  0.5802 -1.3522
15859TIP3    H269069   4.219   3.405  11.105 -2.8901 -0.8208  0.2954
15860TIP3   OH269070   4.817   2.199   5.341  0.1009  0.0259  0.0871
15860TIP3    H169071   4.790   2.141   5.413 -0.3945 -0.3612 -0.3997
15860TIP3    H269072   4.906   2.224   5.363 -0.4926  1.0031  1.5400
15861TIP3   OH269073   5.603   5.069  16.523  0.0587  0.3271  0.1199
15861TIP3    H169074   5.691   5.074  16.487  1.1973  0.5370  2.6776
15861TIP3    H269075   5.590   4.976  16.542  1.1405  0.6337  2.7450
15862TIP3   OH269076   0.612   6.397  10.888 -0.6268 -0.8389 -0.0604
15862TIP3    H169077   0.610   6.411  10.793 -0.7157  0.1498  0.0806
15862TIP3    H269078   0.520   6.391  10.913 -0.5947 -2.0419 -0.1516
15863TIP3   OH269079   1.893   4.619   6.318  0.0076 -0.4881 -0.2399
15863TIP3    H169080   1.825   4.557   6.343  0.4503  0.1072  2.9013
15863TIP3    H269081   1.970   4.591   6.367  1.3866  0.2236 -1.9010
15864TIP3   OH269082   1.444   0.620  16.150 -0.1831  0.7063  0.5050
15864TIP3    H169083   1.484   0.684  16.208  0.7152  1.3593 -0.8007
15864TIP3    H269084   1.364   0.662  16.119 -0.6284  0.3837  1.1788
15865TIP3   OH269085   0.254   4.242  13.505 -0.2329 -0.2733 -0.1094
15865TIP3    H169086   0.265   4.237  13.600  0.9209 -1.4383 -0.2756
15865TIP3    H269087   0.279   4.332  13.484 -0.6648  0.0493  0.6966
15866TIP3   OH269088   4.769   2.469  17.074  0.7395  0.1242  0.0901
15866TIP3    H169089   4.757   2.377  17.099  0.1695 -0.0438 -0.7783
15866TIP3    H269090   4.686   2.511  17.098  1.2727  0.5887  1.2009
15867TIP3   OH269091   0.582   3.969   1.048  0.9677  0.3584  0.1674
15867TIP3    H169092   0.634   3.888   1.056  0.7159  0.1539 -0.2606
15867TIP3    H269093   0.492   3.939   1.041  0.9264  0.6497 -0.6280
15868TIP3   OH269094   1.782   3.017   4.242  0.6780  0.4384 -0.0392
15868TIP3    H169095   1.824   3.045   4.324 -1.2001 -0.4546  1.3017
15868TIP3    H269096   1.807   2.925   4.233  0.0428  0.2501  0.0970
15869TIP3   OH269097   0.493   2.615   4.905  0.0816  0.2635  0.0777
15869TIP3    H169098   0.506   2.585   4.995 -0.3237  0.8440  0.3395
15869TIP3    H269099   0.495   2.535   4.852 -0.8241 -0.2078  0.7320
15870TIP3   OH269100   6.085   1.270  15.779 -0.2529 -0.2536 -0.1451
15870TIP3    H169101   6.147   1.199  15.796  0.2061  0.4803  1.4031
15870TIP3    H269102   6.046   1.248  15.694  0.2835 -2.0550  0.0378
15871TIP3   OH269103   5.421   4.010   5.524  0.9955 -0.0339  0.2374
15871TIP3    H169104   5.362   3.934   5.521  0.5167  0.2990  0.9496
15871TIP3    H269105   5.417   4.047   5.435 -0.0003  0.0716  0.3103
15872TIP3   OH269106   0.400   3.319  15.684 -0.2759  0.0148 -0.3922
15872TIP3    H169107   0.409   3.383  15.754 -1.1485  0.0808 -0.3318
15872TIP3    H269108   0.394   3.234  15.729 -0.2727  0.0031 -0.4141
15873TIP3   OH269109   0.554   3.485  14.993 -0.4396 -0.2754 -0.4599
15873TIP3    H169110   0.633   3.505  15.043 -1.0183 -2.8226  1.7098
15873TIP3    H269111   0.486   3.537  15.036 -0.3799 -0.0419 -0.6502
15874TIP3   OH269112   2.997   2.540  11.560 -0.5397 -0.2720  0.9935
15874TIP3    H169113   3.078   2.588  11.572 -0.3863 -0.0719 -0.6865
15874TIP3    H269114   3.024   2.450  11.546 -0.5077 -0.0222 -0.6971
15875TIP3   OH269115   2.331   1.954   0.945 -0.2218  0.6299 -0.0411
15875TIP3    H169116   2.373   1.907   1.016 -3.0447 -1.1386  0.6329
15875TIP3    H269117   2.384   1.933   0.868  0.5160 -0.9106  0.8341
15876TIP3   OH269118   3.776   5.993  12.208 -0.8314 -0.1817 -0.2613
15876TIP3    H169119   3.744   6.052  12.276  0.8995  0.0510  0.4206
15876TIP3    H269120   3.740   5.908  12.231  0.8183 -0.3866  1.8093
15877TIP3   OH269121   3.266   4.782  11.411 -0.5903  0.2514  0.1985
15877TIP3    H169122   3.201   4.768  11.480 -1.6306 -0.7797 -0.9487
15877TIP3    H269123   3.288   4.875  11.418 -0.8914  0.2354  1.7048
15878TIP3   OH269124   6.819   5.141  14.431  0.4855  0.4356  0.3601
15878TIP3    H169125   6.755   5.169  14.496 -0.1768  1.0741 -0.5486
15878TIP3    H269126   6.894   5.199  14.445 -0.0506  1.2620 -0.1004
15879TIP3   OH269127   0.421   5.858  15.799 -0.0512 -0.1646 -0.3084
15879TIP3    H169128   0.400   5.950  15.787 -1.0064 -0.3114  0.1078
15879TIP3    H269129   0.512   5.857  15.828 -0.7794  0.8482  2.2650
15880TIP3   OH269130   1.883   4.596   3.565  0.4558 -0.2932 -0.2378
15880TIP3    H169131   1.913   4.543   3.640 -1.7501  0.2272  1.0964
15880TIP3    H269132   1.945   4.669   3.562  2.5046 -1.9569 -1.0167
15881TIP3   OH269133   5.772   2.411  11.975  0.1918  0.0239  0.1593
15881TIP3    H169134   5.700   2.440  11.918 -0.1396  0.9880  1.0491
15881TIP3    H269135   5.851   2.423  11.921 -0.3526 -2.1495 -1.2571
15882TIP3   OH269136   1.871   6.022   3.101  0.3161 -0.7011  0.4525
15882TIP3    H169137   1.928   6.084   3.145  0.2232  0.2207 -0.6896
15882TIP3    H269138   1.837   5.966   3.172  0.8217  0.1961  1.4242
15883TIP3   OH269139   5.555   1.653   1.564 -0.2613 -0.0677 -0.1435
15883TIP3    H169140   5.585   1.716   1.499  0.8006 -1.5088 -1.0970
15883TIP3    H269141   5.465   1.634   1.539  0.1691 -0.6936 -1.3017
15884TIP3   OH269142   6.783   0.102   0.514 -0.6091 -0.1782 -0.0705
15884TIP3    H169143   6.810   0.164   0.446  0.3647 -0.0588  0.4158
15884TIP3    H269144   6.856   0.041   0.520 -0.4225  0.1643  1.2891
15885TIP3   OH269145   2.908   4.891   5.813  0.8307 -0.6206  0.4927
15885TIP3    H169146   2.854   4.880   5.892  0.1885 -0.3316  0.1045
15885TIP3    H269147   2.909   4.986   5.799 -0.3395 -0.7618 -0.7066
15886TIP3   OH269148   0.367   4.339  11.763  0.7794 -0.2810 -0.3688
15886TIP3    H169149   0.357   4.324  11.669  1.1417 -0.7267 -0.3399
15886TIP3    H269150   0.461   4.327  11.779  0.8563  0.6173 -0.0896
15887TIP3   OH269151   3.261   5.487  11.809 -0.7540  0.6148 -0.1927
15887TIP3    H169152   3.253   5.405  11.859  3.2008  1.0407  1.5577
15887TIP3    H269153   3.303   5.461  11.727  0.2780  0.7884  0.2616
15888TIP3   OH269154   2.953   6.727  10.902 -0.4941  0.3979 -0.0264
15888TIP3    H169155   3.044   6.738  10.875 -0.0730  1.2803  1.6372
15888TIP3    H269156   2.902   6.763  10.829  0.5194  1.0045 -0.4591
15889TIP3   OH269157   0.915   1.920   1.313 -0.2907  0.1457  0.6190
15889TIP3    H169158   0.964   1.996   1.281  1.6289 -1.4178 -0.3568
15889TIP3    H269159   0.921   1.928   1.409  1.6073  0.2131  0.5365
15890TIP3   OH269160   2.295   2.178   0.810 -0.0314  0.0140  0.1182
15890TIP3    H169161   2.213   2.219   0.837  0.6475  1.1557  0.5325
15890TIP3    H269162   2.308   2.107   0.873 -0.8102 -0.3219 -0.0898
15891TIP3   OH269163   5.870   0.162  14.971 -0.0344 -0.2951 -0.5314
15891TIP3    H169164   5.919   0.099  15.025  0.0009  0.3676  0.2251
15891TIP3    H269165   5.935   0.228  14.947 -0.0912 -0.4945 -1.2574
15892TIP3   OH269166   2.632   3.952   5.397  0.4612  0.1871  1.1335
15892TIP3    H169167   2.635   3.870   5.447  0.3750  0.2710  1.2804
15892TIP3    H269168   2.560   4.001   5.437 -1.0348 -0.6235 -0.4460
15893TIP3   OH269169   0.059   3.754  13.913  0.3854 -0.1768 -0.0146
15893TIP3    H169170   0.074   3.753  14.008  1.0781 -1.7720 -0.1017
15893TIP3    H269171  -0.031   3.724  13.903  0.7374 -1.3229  0.1103
15894TIP3   OH269172   0.629   3.090   2.743  0.3113  0.1520 -0.5742
15894TIP3    H169173   0.660   3.180   2.727 -2.5698  1.1955 -0.9129
15894TIP3    H269174   0.534   3.095   2.730 -0.3000 -2.3866  1.9615
15895TIP3   OH269175   3.976   0.022  14.359  0.1298  0.2990 -0.2577
15895TIP3    H169176   3.962   0.011  14.264 -0.3607 -0.7596 -0.0813
15895TIP3    H269177   4.071   0.028  14.368  0.2830 -0.9921 -0.7102
15896TIP3   OH269178   2.749   5.602  16.896  0.3437  0.7577 -0.2956
15896TIP3    H169179   2.713   5.515  16.876 -2.4627  1.7479  0.0072
15896TIP3    H269180   2.705   5.660  16.834 -0.2647  2.3787  1.5580
15897TIP3   OH269181   4.787   1.695  15.893  0.0711 -0.0043 -0.3820
15897TIP3    H169182   4.868   1.733  15.858 -0.8583  2.2492 -0.2701
15897TIP3    H269183   4.784   1.608  15.855  1.8918  0.3309 -1.4573
15898TIP3   OH269184   2.644   6.166   2.025  0.2494  0.1136  0.1922
15898TIP3    H169185   2.626   6.111   1.948 -0.4498  1.1515 -0.4066
15898TIP3    H269186   2.660   6.253   1.989  2.1853  0.1740  1.0551
15899TIP3   OH269187   1.902   2.163   3.423  0.1043 -0.0621 -0.1082
15899TIP3    H169188   1.823   2.110   3.416  0.0303  0.0346 -0.0083
15899TIP3    H269189   1.973   2.103   3.399  0.1814 -0.6658  1.4850
15900TIP3   OH269190   6.099   6.797   0.047 -0.8131 -0.1322 -0.1575
15900TIP3    H169191   6.018   6.767   0.006 -0.1762 -0.2163 -1.3914
15900TIP3    H269192   6.077   6.806   0.140 -1.9199 -1.2455 -0.2847
15901TIP3   OH269193   6.511   3.822  13.244 -0.0262  0.7379  0.4175
15901TIP3    H169194   6.487   3.740  13.286  2.0071  0.1975  0.6475
15901TIP3    H269195   6.436   3.844  13.189 -1.4787 -0.1472  1.9544
15902TIP3   OH269196   3.796   0.115   3.451  0.2151 -0.2500 -0.4893
15902TIP3    H169197   3.866   0.074   3.503 -0.6661 -1.0859  0.0586
15902TIP3    H269198   3.842   0.181   3.398  1.3980 -0.6681 -0.0272
15903TIP3   OH269199   4.693   3.328  11.802 -0.0491 -0.4262 -0.3172
15903TIP3    H169200   4.636   3.338  11.879  2.8182  4.0814  1.7000
15903TIP3    H269201   4.658   3.391  11.739  0.8179  0.0403 -0.3434
15904TIP3   OH269202   0.288   2.802   3.875  0.5604 -0.0061  0.4427
15904TIP3    H169203   0.264   2.785   3.784 -1.0295  0.9251  0.6471
15904TIP3    H269204   0.295   2.715   3.914  0.4605 -0.3924 -0.3747
15905TIP3   OH269205   2.279   4.602  14.872  0.1834  1.1639 -0.3643
15905TIP3    H169206   2.230   4.684  14.875  0.5327  1.3900 -0.8045
15905TIP3    H269207   2.367   4.627  14.842  0.9852  0.9642  1.6224
15906TIP3   OH269208   1.059   4.408   4.933 -0.5172  0.1593 -0.4539
15906TIP3    H169209   1.080   4.315   4.938  1.4747  0.4809 -2.0298
15906TIP3    H269210   1.009   4.417   4.852  1.2566  0.7687 -1.5115
15907TIP3   OH269211   0.278   1.245   4.506 -0.2482  0.6054  0.1930
15907TIP3    H169212   0.272   1.330   4.463 -0.3885  0.5782  0.1577
15907TIP3    H269213   0.190   1.230   4.540  0.5946  2.2279  3.5509
15908TIP3   OH269214   2.425   5.686   0.695 -0.4316 -0.2623 -0.3068
15908TIP3    H169215   2.342   5.731   0.710 -0.0947  0.0203  0.7885
15908TIP3    H269216   2.417   5.605   0.745 -0.2936 -0.5376 -0.7279
15909TIP3   OH269217   5.875   1.854  16.097 -0.3827  0.0284  0.1187
15909TIP3    H169218   5.817   1.778  16.105  1.3092 -1.8257 -3.0136
15909TIP3    H269219   5.961   1.822  16.124 -0.3069  2.1247  2.6949
15910TIP3   OH269220   1.619   5.694   3.910 -0.2780 -0.2441  0.2883
15910TIP3    H169221   1.695   5.636   3.905 -1.0878 -1.3197  0.2299
15910TIP3    H269222   1.596   5.711   3.819  0.0465  0.3216  0.3014
15911TIP3   OH269223   0.697   3.823  11.236  0.2435  0.3486  0.1575
15911TIP3    H169224   0.776   3.837  11.183  0.2735  2.1689  0.6259
15911TIP3    H269225   0.726   3.766  11.308  1.1842  1.0889  0.3887
15912TIP3   OH269226   0.685   3.565   3.958  0.0064 -0.2323  0.2897
15912TIP3    H169227   0.693   3.516   3.876 -1.8120 -1.2684  0.6832
15912TIP3    H269228   0.769   3.553   4.002  1.7340  1.8634 -2.1681
15913TIP3   OH269229   1.596   5.838   5.689 -0.2468 -0.9638  0.3447
15913TIP3    H169230   1.536   5.836   5.764  0.9483  1.1278  1.4382
15913TIP3    H269231   1.676   5.797   5.721 -0.3466 -1.7899 -0.4295
15914TIP3   OH269232   5.657   4.014  16.152  0.3790 -0.0074  0.1938
15914TIP3    H169233   5.720   3.951  16.188  0.2822  0.1031  0.5625
15914TIP3    H269234   5.648   4.080  16.221  0.3119  0.2905 -0.1019
15915TIP3   OH269235   6.548   1.950  15.756  0.0261  0.1922 -0.1440
15915TIP3    H169236   6.546   2.044  15.734  2.3799  1.0672  2.7105
15915TIP3    H269237   6.492   1.943  15.833  0.1631 -0.6616 -0.1171
15916TIP3   OH269238   0.576   5.698  11.159  0.4996 -0.3130 -0.5294
15916TIP3    H169239   0.547   5.673  11.247 -0.6331  2.1729 -0.1137
15916TIP3    H269240   0.671   5.709  11.168  0.3488  0.3213  0.5362
15917TIP3   OH269241   2.825   5.845   4.080 -0.0442  0.2343 -0.2201
15917TIP3    H169242   2.880   5.807   4.148  0.9073 -1.4837 -1.8615
15917TIP3    H269243   2.868   5.927   4.057 -0.1476  0.6254  0.9027
15918TIP3   OH269244   5.185   0.500   2.025  0.1492 -0.1195 -0.1248
15918TIP3    H169245   5.172   0.461   1.938  0.8916  1.5484 -1.0355
15918TIP3    H269246   5.279   0.500   2.038  0.0076 -1.0944  1.0755
15919TIP3   OH269247   2.971   3.067   5.312  0.7017 -0.2977  0.0406
15919TIP3    H169248   2.979   2.975   5.286 -0.5931 -1.1550  2.2865
15919TIP3    H269249   3.025   3.074   5.391  0.2546  0.6704  0.2818
15920TIP3   OH269250   1.502   0.524  14.799 -0.5594 -0.2884  0.9284
15920TIP3    H169251   1.592   0.536  14.766 -1.3927  0.3772 -1.2739
15920TIP3    H269252   1.513   0.508  14.893  2.0047 -2.0519  0.4529
15921TIP3   OH269253   4.540   0.822   0.365  0.2230  0.1898 -0.2250
15921TIP3    H169254   4.515   0.797   0.276 -1.8487  1.7734 -0.1555
15921TIP3    H269255   4.464   0.868   0.400  1.6520  1.2383  1.7157
15922TIP3   OH269256   0.182   0.056   2.103 -0.3643 -0.4940  0.0300
15922TIP3    H169257   0.110  -0.006   2.118 -0.3028 -0.1763  1.9158
15922TIP3    H269258   0.237   0.048   2.181  1.2536 -0.1805 -1.0411
15923TIP3   OH269259   2.125   1.955   4.423  0.4931 -0.2263 -0.5318
15923TIP3    H169260   2.099   1.981   4.511  1.0820  0.7094 -0.6156
15923TIP3    H269261   2.189   1.885   4.436 -1.6220 -2.2587 -0.3200
15924TIP3   OH269262   1.279   5.908   3.341 -0.2678  0.0879 -0.3763
15924TIP3    H169263   1.326   5.858   3.275 -0.6650 -1.3411  0.3778
15924TIP3    H269264   1.257   5.844   3.409  1.0695  1.6974  1.6916
15925TIP3   OH269265   4.862   3.514  15.102  0.5051  0.6254  0.2464
15925TIP3    H169266   4.769   3.489  15.106  0.8495 -0.6049  0.9529
15925TIP3    H269267   4.901   3.451  15.042  1.0951  0.4162  0.8422
15926TIP3   OH269268   4.595   2.952  15.157 -0.7203 -0.0481 -0.0642
15926TIP3    H169269   4.623   3.009  15.229 -1.2604 -1.6310  1.4655
15926TIP3    H269270   4.618   3.001  15.078  1.1695  1.1571  1.1373
15927TIP3   OH269271   3.347   6.324  11.715 -0.1341 -0.5861 -0.1875
15927TIP3    H169272   3.384   6.239  11.738 -1.5443 -1.3337 -0.5380
15927TIP3    H269273   3.285   6.344  11.785 -0.7008 -0.4409 -0.7129
15928TIP3   OH269274   5.656   5.121  13.499  0.0226 -0.0777  0.3392
15928TIP3    H169275   5.652   5.205  13.544  0.9897  0.8668 -1.2426
15928TIP3    H269276   5.601   5.134  13.421 -0.8457 -1.3474  0.7162
15929TIP3   OH269277   0.669   4.682  15.211 -0.0256  0.1238 -0.5537
15929TIP3    H169278   0.622   4.743  15.268  0.6610 -0.8688  1.1404
15929TIP3    H269279   0.746   4.655  15.262  0.7239 -0.6678 -2.0322
15930TIP3   OH269280   1.503   6.698  15.859 -0.1226 -0.5770  1.1107
15930TIP3    H169281   1.522   6.786  15.891 -2.1148  0.2085  0.3510
15930TIP3    H269282   1.417   6.706  15.818 -1.0130 -3.1865  2.2150
15931TIP3   OH269283   1.365   3.668  11.768  0.1351 -0.1616 -0.4071
15931TIP3    H169284   1.401   3.756  11.768  0.4323 -0.2801 -0.7028
15931TIP3    H269285   1.422   3.619  11.709 -0.4530 -0.3753 -0.8063
15932TIP3   OH269286   0.563   6.051   1.868 -0.4718  0.4668  0.3893
15932TIP3    H169287   0.595   6.026   1.781  2.0446 -3.2243  2.1076
15932TIP3    H269288   0.622   6.121   1.896  1.3168 -0.9999  0.5101
15933TIP3   OH269289   5.569   0.156  13.730 -0.5953 -0.0821 -0.0944
15933TIP3    H169290   5.617   0.230  13.693 -0.5837 -0.7935 -1.5504
15933TIP3    H269291   5.505   0.197  13.789  0.3693  0.9881  0.2612
15934TIP3   OH269292   4.570   3.760  14.096 -0.4329  0.2577  0.0778
15934TIP3    H169293   4.654   3.721  14.072  0.4722  1.2272  1.4853
15934TIP3    H269294   4.589   3.853  14.107 -1.4918  0.3721  1.2065
15935TIP3   OH269295   2.929   5.174  15.762  0.1094 -0.3546 -0.0360
15935TIP3    H169296   2.871   5.203  15.692 -0.8655 -2.2185 -0.0511
15935TIP3    H269297   2.983   5.251  15.782 -1.4687  1.0335 -0.9117
15936TIP3   OH269298   0.235   3.223   5.830  0.1997  0.1081  0.6821
15936TIP3    H169299   0.151   3.227   5.877 -1.0210  1.5338 -1.4466
15936TIP3    H269300   0.286   3.296   5.865 -0.8198  1.3514 -0.3333
15937TIP3   OH269301   0.327   0.676  12.767 -0.5457  0.8901  0.3077
15937TIP3    H169302   0.346   0.682  12.861  0.5753  0.3901  0.1308
15937TIP3    H269303   0.305   0.765  12.741 -0.8954  1.0262  1.0455
15938TIP3   OH269304   6.253   1.159  15.561 -0.2777  0.5876 -0.6788
15938TIP3    H169305   6.160   1.147  15.546 -0.0999 -0.6004 -0.8995
15938TIP3    H269306   6.284   1.074  15.592  0.3611  1.4910  1.4000
15939TIP3   OH269307   6.275   4.215  12.052  0.0785 -0.3640  0.0847
15939TIP3    H169308   6.194   4.227  12.101  1.2248 -2.1011  2.5864
15939TIP3    H269309   6.323   4.297  12.065  0.6533 -1.0114  2.6188
15940TIP3   OH269310   2.201   3.252   1.354  0.0008 -0.7122 -0.2327
15940TIP3    H169311   2.279   3.239   1.409  0.0118 -1.0103 -0.3165
15940TIP3    H269312   2.129   3.262   1.415  0.4426  2.2172 -0.0329
15941TIP3   OH269313   3.012   1.014  13.689  0.2833 -1.0871  0.0625
15941TIP3    H169314   2.982   0.949  13.752  0.7661 -1.6254 -0.2570
15941TIP3    H269315   2.969   1.095  13.716  0.9984 -1.1554  1.4977
15942TIP3   OH269316   5.746   0.142   1.958 -0.5781  0.1823  0.6314
15942TIP3    H169317   5.842   0.139   1.962 -0.5959  0.4670  1.6062
15942TIP3    H269318   5.719   0.050   1.962 -0.3646  0.1441  1.6408
15943TIP3   OH269319   1.630   5.991   0.134 -0.2625  0.4506 -0.0834
15943TIP3    H169320   1.712   5.951   0.104  0.1471  0.9883  0.2730
15943TIP3    H269321   1.561   5.946   0.086  0.1496 -0.9470  0.5902
15944TIP3   OH269322   4.468   3.756   5.066 -0.1928 -0.1537  0.2620
15944TIP3    H169323   4.505   3.794   5.146  0.3566 -2.9053  1.4216
15944TIP3    H269324   4.401   3.695   5.097 -1.7888  0.5840 -1.5588
15945TIP3   OH269325   0.276   4.097  16.908 -0.2590  0.5346 -0.0430
15945TIP3    H169326   0.367   4.122  16.891  0.5617 -1.1799  1.4504
15945TIP3    H269327   0.224   4.159  16.857  1.7195  1.8997 -0.5225
15946TIP3   OH269328   0.331   4.901  11.507  0.6193 -0.8686  0.0606
15946TIP3    H169329   0.286   4.928  11.587 -0.7871 -1.1797 -0.5974
15946TIP3    H269330   0.299   4.961  11.440  2.4900 -0.0064 -0.1356
15947TIP3   OH269331   3.886   3.893   1.621  0.1200 -0.4933 -0.4355
15947TIP3    H169332   3.796   3.923   1.631  0.4180  0.3718 -0.2168
15947TIP3    H269333   3.935   3.972   1.598  0.9108 -0.8477 -0.0123
15948TIP3   OH269334   1.151   5.057  16.292 -0.5076  0.1074 -0.5031
15948TIP3    H169335   1.152   4.989  16.225 -0.8879 -0.8507  0.4374
15948TIP3    H269336   1.155   5.139  16.243 -1.1997 -0.5570 -1.7205
15949TIP3   OH269337   2.351   6.477  12.446 -0.0750 -0.2807  0.4906
15949TIP3    H169338   2.309   6.555  12.483 -0.1076 -0.4134  0.7368
15949TIP3    H269339   2.432   6.467  12.497  2.3320  2.2282 -2.4320
15950TIP3   OH269340   2.765   3.459   1.032  0.0166  0.0102 -0.6674
15950TIP3    H169341   2.676   3.431   1.052  0.6045 -1.0649  0.6300
15950TIP3    H269342   2.806   3.383   0.991  0.5327  0.2777 -0.6612
15951TIP3   OH269343   4.498   6.670   5.141 -0.0998 -0.0970 -0.2542
15951TIP3    H169344   4.586   6.688   5.174  0.1338 -1.4868 -0.0377
15951TIP3    H269345   4.513   6.623   5.059 -0.6377 -0.5116 -0.1212
15952TIP3   OH269346   3.468   3.982   1.384  0.2466 -0.3528 -0.3431
15952TIP3    H169347   3.504   3.895   1.365 -1.4408 -1.1656 -0.0299
15952TIP3    H269348   3.379   3.965   1.414  0.6276  1.3185  2.0515
15953TIP3   OH269349   0.782   4.308   6.095  0.0345 -0.0417 -0.4367
15953TIP3    H169350   0.701   4.352   6.067 -0.2180 -0.9296 -1.1343
15953TIP3    H269351   0.762   4.277   6.183 -0.5791 -0.7014 -0.7944
15954TIP3   OH269352   4.477   0.204  15.961 -0.1685 -0.0840  0.2300
15954TIP3    H169353   4.473   0.234  16.052 -0.0323  0.2526  0.1284
15954TIP3    H269354   4.555   0.247  15.926 -0.0885 -0.3982  0.0193
15955TIP3   OH269355   2.118   2.524   3.967 -0.3304 -0.0591  0.8788
15955TIP3    H169356   2.079   2.596   4.016  0.6563 -0.6894  2.6806
15955TIP3    H269357   2.108   2.448   4.024 -0.0013 -1.0463 -0.3311
15956TIP3   OH269358   2.778   3.340   0.528 -0.0757 -0.1342  0.1024
15956TIP3    H169359   2.726   3.348   0.608 -1.6189 -1.2465 -0.7339
15956TIP3    H269360   2.773   3.248   0.505  0.9106  0.0431 -0.9226
15957TIP3   OH269361   6.685   0.015   0.176  0.0543  0.0854 -0.1543
15957TIP3    H169362   6.734  -0.065   0.153 -1.0873 -0.5129 -0.5610
15957TIP3    H269363   6.667   0.057   0.092 -0.4562  0.1000 -0.0390
15958TIP3   OH269364   5.450   2.218   1.557  0.2195 -0.2617  0.0059
15958TIP3    H169365   5.494   2.179   1.481  1.0452  1.5987 -0.5135
15958TIP3    H269366   5.429   2.143   1.613  1.1000 -1.5151 -1.2765
15959TIP3   OH269367   6.404   2.655   3.086  0.2605  0.2511 -0.0783
15959TIP3    H169368   6.490   2.663   3.127  0.0150  0.3968  0.4203
15959TIP3    H269369   6.343   2.647   3.160 -0.0324 -1.1184 -0.4357
15960TIP3   OH269370   4.624   1.163  14.609 -0.0845  0.3925  0.2943
15960TIP3    H169371   4.667   1.106  14.673 -0.6093  0.7004  0.9333
15960TIP3    H269372   4.597   1.104  14.539  0.7928  0.1000  0.1984
15961TIP3   OH269373   3.154   5.331  11.360 -0.3249  0.3872  0.1423
15961TIP3    H169374   3.149   5.278  11.439  1.7589 -1.5282 -0.9149
15961TIP3    H269375   3.075   5.386  11.363 -0.3836  0.2845  3.4174
15962TIP3   OH269376   2.477   1.746  11.350  0.3850  0.2509 -0.1832
15962TIP3    H169377   2.387   1.758  11.320  0.7055  0.9030 -0.9295
15962TIP3    H269378   2.531   1.771  11.274  1.1845 -0.6451  0.0773
15963TIP3   OH269379   2.905   2.771  11.968 -0.1022 -0.5566  0.4932
15963TIP3    H169380   2.974   2.708  11.988  1.9140  1.3393 -0.0272
15963TIP3    H269381   2.949   2.838  11.914 -2.1322  1.1817  0.8710
15964TIP3   OH269382   5.639   3.173  10.514 -0.1438 -0.0885 -0.3661
15964TIP3    H169383   5.733   3.164  10.532  0.1855  0.8143 -1.4511
15964TIP3    H269384   5.619   3.100  10.455 -0.1817 -0.4157  0.0482
15965TIP3   OH269385   5.686   6.808   5.848 -0.6400  0.6403 -0.0662
15965TIP3    H169386   5.657   6.758   5.771 -2.9520  2.8009 -0.7028
15965TIP3    H269387   5.675   6.747   5.921 -2.5786 -0.1195 -0.9118
15966TIP3   OH269388   5.051   2.887   2.662 -0.3874 -0.5324  0.0164
15966TIP3    H169389   4.985   2.906   2.729 -0.6414 -0.6419 -0.1975
15966TIP3    H269390   5.085   2.973   2.637 -1.2700 -0.3714 -0.6843
15967TIP3   OH269391   6.689   4.422  11.745  0.1923  0.0656  0.1729
15967TIP3    H169392   6.729   4.337  11.764 -2.0503 -0.8083  1.3754
15967TIP3    H269393   6.699   4.432  11.650 -1.4122 -2.6743 -0.4005
15968TIP3   OH269394   6.178   4.222   2.940  0.0540 -0.3484 -0.7578
15968TIP3    H169395   6.229   4.230   2.859  0.1826 -1.5673 -0.8196
15968TIP3    H269396   6.093   4.261   2.919  0.6925  1.0467 -0.8817
15969TIP3   OH269397   2.311   5.022   4.462 -0.1397  0.6481  0.6568
15969TIP3    H169398   2.244   5.069   4.513  0.0649 -0.5058  2.0751
15969TIP3    H269399   2.270   4.939   4.440  0.8365 -0.1556  1.7113
15970TIP3   OH269400   1.649   2.943  12.997  0.5311 -0.7966  0.4506
15970TIP3    H169401   1.608   3.027  13.018  1.5365  0.2795 -1.5115
15970TIP3    H269402   1.577   2.886  12.972 -0.0595 -0.0758  0.4850
15971TIP3   OH269403   6.431   0.321   0.024 -0.1466  0.1923 -0.9356
15971TIP3    H169404   6.421   0.406  -0.019 -2.7393  1.3496  1.6010
15971TIP3    H269405   6.503   0.334   0.085 -0.7266  0.7362 -0.3421
15972TIP3   OH269406   3.608   5.227   1.839  0.1490 -0.2708 -0.2108
15972TIP3    H169407   3.640   5.230   1.929  1.1323  0.5147 -0.5653
15972TIP3    H269408   3.551   5.304   1.830  1.5859  0.7645 -0.7874
15973TIP3   OH269409   0.762   2.509  16.794  0.0281 -0.1442 -0.0973
15973TIP3    H169410   0.706   2.484  16.721 -0.7504 -0.3545  0.5487
15973TIP3    H269411   0.716   2.476  16.872  0.5398  0.5698  0.5290
15974TIP3   OH269412   4.526   6.667  11.563  0.0114 -0.0805 -0.1811
15974TIP3    H169413   4.451   6.621  11.601  0.6326 -0.8365  0.1716
15974TIP3    H269414   4.543   6.739  11.624 -0.4182  0.0867 -0.2577
15975TIP3   OH269415   4.920   3.951   5.105  0.2445 -0.1930 -0.1123
15975TIP3    H169416   4.881   3.865   5.089  0.9934 -0.5228 -0.2372
15975TIP3    H269417   5.012   3.940   5.078  0.3379  0.6530 -0.1530
15976TIP3   OH269418   1.715   2.744  16.841  0.3044 -0.1936  0.4851
15976TIP3    H169419   1.644   2.747  16.778 -1.0686 -2.4501  1.8140
15976TIP3    H269420   1.745   2.835  16.848 -1.1480  0.4877 -1.5056
15977TIP3   OH269421   0.276   6.431   4.654 -0.2793  0.8972 -0.2380
15977TIP3    H169422   0.366   6.461   4.662 -0.1560  0.1774  1.3577
15977TIP3    H269423   0.267   6.361   4.718 -1.3413 -0.6431 -1.9515
15978TIP3   OH269424   2.142   1.118  12.071  0.3582  0.2332  0.5611
15978TIP3    H169425   2.056   1.147  12.042 -0.0799 -0.6463  0.9556
15978TIP3    H269426   2.149   1.148  12.161  0.1708 -0.2923  0.7561
15979TIP3   OH269427   4.542   2.134   0.968  0.0781  0.8789 -0.0558
15979TIP3    H169428   4.627   2.178   0.965  1.3427 -1.3067  1.2956
15979TIP3    H269429   4.497   2.164   0.889  1.8915  2.4816 -0.5604
15980TIP3   OH269430   6.583   4.889   2.908 -0.9520  0.5913 -0.2345
15980TIP3    H169431   6.632   4.848   2.979 -1.9245 -0.8277 -0.3436
15980TIP3    H269432   6.622   4.855   2.828 -0.2219  1.7535 -0.3923
15981TIP3   OH269433   2.945   6.287  11.791  0.0679  0.2480  0.3104
15981TIP3    H169434   2.855   6.307  11.815 -0.7691 -1.0466 -1.5514
15981TIP3    H269435   2.939   6.247  11.705  2.3259 -0.9611  0.6386
15982TIP3   OH269436   1.449   4.825   2.226 -0.5159 -0.8846  0.1447
15982TIP3    H169437   1.434   4.798   2.135  0.0181 -1.5300  0.2353
15982TIP3    H269438   1.384   4.893   2.242  0.8377  0.9142 -1.4631
15983TIP3   OH269439   0.579   3.834  14.823 -0.1881  0.4318 -0.0177
15983TIP3    H169440   0.524   3.806  14.750 -1.9225  2.1928  0.5386
15983TIP3    H269441   0.623   3.754  14.852 -1.8681 -0.8953 -0.9756
15984TIP3   OH269442   2.511   2.617  13.687 -0.3429  0.0624 -0.2545
15984TIP3    H169443   2.463   2.698  13.669 -1.4740 -0.8600 -1.6723
15984TIP3    H269444   2.549   2.630  13.774 -0.8545  1.9309 -0.2670
15985TIP3   OH269445   4.255   2.152   4.483  0.4035  0.0814  0.2871
15985TIP3    H169446   4.245   2.163   4.578  1.9006 -0.9724  0.5998
15985TIP3    H269447   4.177   2.194   4.446 -1.1551 -1.0563  2.0599
15986TIP3   OH269448   1.783   1.985   5.054  0.1725 -0.2783  0.4269
15986TIP3    H169449   1.736   2.065   5.030  1.1589 -0.2415 -1.5792
15986TIP3    H269450   1.757   1.921   4.988 -0.1065 -1.4587  1.6339
15987TIP3   OH269451   4.524   1.285   1.543  0.2670 -0.4032 -0.4766
15987TIP3    H169452   4.449   1.339   1.520  1.1753  0.6507 -1.0332
15987TIP3    H269453   4.516   1.207   1.488 -1.0934 -0.9033  0.3884
15988TIP3   OH269454   2.048   5.825   4.359  0.5790  0.5347 -0.2161
15988TIP3    H169455   2.122   5.818   4.300  0.3883 -0.8917 -0.3242
15988TIP3    H269456   2.083   5.865   4.439  1.9382 -1.7905  0.4454
15989TIP3   OH269457   0.770   3.957   3.993 -0.2438  0.1063  0.1480
15989TIP3    H169458   0.844   4.016   4.010  0.7554 -1.2995  0.8498
15989TIP3    H269459   0.693   4.008   4.020  0.5841  1.0938  0.7442
15990TIP3   OH269460   2.114   5.363  12.423 -0.0267  0.1750 -0.0085
15990TIP3    H169461   2.189   5.308  12.402 -0.7787 -0.7065 -0.4526
15990TIP3    H269462   2.130   5.446  12.377 -0.1023 -0.5931 -1.4578
15991TIP3   OH269463   0.955   0.914  15.765 -0.0414  0.2827  0.0791
15991TIP3    H169464   0.921   0.869  15.842 -1.5872  0.9476 -0.1763
15991TIP3    H269465   0.960   1.006  15.791  2.6268  0.1411  0.4363
15992TIP3   OH269466   6.285   5.888  11.862  0.8413 -0.3128 -0.5948
15992TIP3    H169467   6.291   5.800  11.898 -0.5150 -0.2040 -0.0281
15992TIP3    H269468   6.192   5.899  11.842  0.9375  1.0910 -0.3894
15993TIP3   OH269469   1.490   2.077   5.810 -0.2708 -0.9352  0.6785
15993TIP3    H169470   1.535   2.104   5.890 -1.1182 -0.8055  1.1215
15993TIP3    H269471   1.409   2.036   5.840 -2.0489  1.7213 -0.1465
15994TIP3   OH269472   5.109   1.500   0.720  0.2228 -0.4235  0.0558
15994TIP3    H169473   5.075   1.532   0.636  1.9031 -1.2859 -1.0112
15994TIP3    H269474   5.194   1.543   0.729 -0.3724  0.4366  1.8438
15995TIP3   OH269475   4.435   4.652  15.888  0.0206  0.0533  0.3885
15995TIP3    H169476   4.351   4.688  15.917  0.5312  2.9694 -1.3543
15995TIP3    H269477   4.495   4.726  15.891  1.9311 -1.3433 -0.8181
15996TIP3   OH269478   4.075   5.468  12.334 -0.0305 -0.3056 -0.4652
15996TIP3    H169479   3.989   5.507  12.317  0.0265 -0.1014 -0.2839
15996TIP3    H269480   4.138   5.535  12.308  0.0895 -0.6696 -1.1443
15997TIP3   OH269481   4.863   0.342   4.401 -0.4028  0.2144 -0.0739
15997TIP3    H169482   4.945   0.293   4.404  0.1851  1.1542 -0.3680
15997TIP3    H269483   4.802   0.285   4.355 -0.0930 -0.7418  0.6683
15998TIP3   OH269484   4.900   0.720   0.178  0.1231 -0.3051  0.2264
15998TIP3    H169485   4.829   0.722   0.115 -0.0247 -0.1203  0.3978
15998TIP3    H269486   4.904   0.808   0.214  1.0606 -0.0521 -0.4635
15999TIP3   OH269487   4.029   2.390   2.937  0.0277  0.2690  0.6190
15999TIP3    H169488   3.983   2.331   2.876 -0.6866  1.4755 -0.0640
15999TIP3    H269489   4.001   2.477   2.910  2.5572  1.0663  0.3495
16000TIP3   OH269490   2.240   5.461   4.771  0.5559 -0.2865  0.0660
16000TIP3    H169491   2.194   5.545   4.779  0.1431 -0.5399  0.4386
16000TIP3    H269492   2.321   5.473   4.821  1.0015  0.2273 -0.7553
16001TIP3   OH269493   1.845   1.409   3.804 -0.2908 -0.0021 -0.0488
16001TIP3    H169494   1.806   1.488   3.766 -0.1345 -0.8049 -2.0301
16001TIP3    H269495   1.775   1.369   3.855 -0.4026  1.3254  0.8876
16002TIP3   OH269496   1.931   5.018  15.573  0.2257 -0.4047 -0.0622
16002TIP3    H169497   1.974   5.065  15.502  2.1129 -1.6133  0.2043
16002TIP3    H269498   1.852   4.981  15.534  0.6523 -0.1148 -1.2192
16003TIP3   OH269499   5.249   0.708   6.496 -0.0508  0.2303  0.3645
16003TIP3    H169500   5.182   0.660   6.544 -1.5988  0.6827 -1.2201
16003TIP3    H269501   5.225   0.800   6.508  0.4849  0.4150  0.0386
16004TIP3   OH269502   3.361   0.013   0.871 -0.3773 -0.5307  0.0524
16004TIP3    H169503   3.388  -0.019   0.785 -1.8688 -0.4577 -0.4672
16004TIP3    H269504   3.306   0.089   0.853 -2.5694 -1.8107  0.9036
16005TIP3   OH269505   4.677   6.603   6.268  0.0679 -0.2527  0.0429
16005TIP3    H169506   4.725   6.583   6.348  0.7984  0.4856 -0.1895
16005TIP3    H269507   4.738   6.580   6.197 -0.5567 -0.8710 -0.3144
16006TIP3   OH269508   1.979   4.187  12.474 -0.1344 -0.2777  0.1288
16006TIP3    H169509   2.046   4.211  12.538  0.6369  2.2711 -1.4617
16006TIP3    H269510   1.950   4.271  12.437 -2.3180 -1.4828 -1.1107
16007TIP3   OH269511   6.495   2.917   4.031 -0.2372 -0.0868  0.3762
16007TIP3    H169512   6.559   2.979   3.996 -0.3927 -0.2033 -0.1273
16007TIP3    H269513   6.491   2.936   4.124 -0.0303  0.4327  0.2808
16008TIP3   OH269514   5.293   0.986  12.989  0.8636 -0.2227  0.2823
16008TIP3    H169515   5.200   1.002  13.002  0.8632  0.1124 -0.0962
16008TIP3    H269516   5.334   1.072  13.003  1.0612 -0.2624 -0.0466
16009TIP3   OH269517   3.988   0.389   4.122 -0.1407 -0.0728 -0.4849
16009TIP3    H169518   3.978   0.374   4.216  2.9760  0.3383  0.0215
16009TIP3    H269519   3.927   0.461   4.103 -1.3877 -0.6715  1.0124
16010TIP3   OH269520   3.033   2.262   0.657  0.3664  0.4561  0.3414
16010TIP3    H169521   3.049   2.317   0.733  0.8491  1.0173 -0.1526
16010TIP3    H269522   2.989   2.321   0.594  1.5691  0.5023 -0.4801
16011TIP3   OH269523   0.584   3.462  11.136  0.0469  0.1067 -0.2856
16011TIP3    H169524   0.621   3.466  11.224  0.1550 -0.1625 -0.3181
16011TIP3    H269525   0.638   3.523  11.085  0.5143 -0.3543 -0.3534
16012TIP3   OH269526   1.197   1.141  12.790 -0.1024 -0.1286  0.3815
16012TIP3    H169527   1.250   1.103  12.720 -0.0838  0.2625  0.1772
16012TIP3    H269528   1.262   1.180  12.850 -0.1599  0.7371 -0.0951
16013TIP3   OH269529   3.802   3.500   0.491  0.1819 -0.3594  0.2345
16013TIP3    H169530   3.845   3.460   0.567 -1.6141  2.6943  3.1183
16013TIP3    H269531   3.874   3.536   0.439  1.4603 -2.6649  0.2639
16014TIP3   OH269532   5.506   2.070   2.620 -0.2020 -0.0704  0.0995
16014TIP3    H169533   5.515   1.974   2.623 -0.8750 -0.1197  1.4361
16014TIP3    H269534   5.570   2.101   2.684  0.3561  0.4117 -0.6885
16015TIP3   OH269535   2.526   4.949   5.823 -0.3274  0.0211 -0.4430
16015TIP3    H169536   2.470   5.010   5.870 -1.0930 -1.1785  0.2398
16015TIP3    H269537   2.551   4.996   5.743  0.3382  1.7844  0.7370
16016TIP3   OH269538   3.519   3.331  15.443  0.3119 -0.1629 -0.7451
16016TIP3    H169539   3.446   3.289  15.398  0.5910 -0.7842 -0.6203
16016TIP3    H269540   3.590   3.267  15.439  0.0963 -0.6042  1.3270
16017TIP3   OH269541   3.601   6.006  10.999 -0.1955 -0.1572 -0.2460
16017TIP3    H169542   3.640   5.961  11.074  1.5508 -0.0055 -1.0016
16017TIP3    H269543   3.568   6.088  11.034  0.3186 -0.2282  0.4184
16018TIP3   OH269544   5.421   1.835   3.039 -0.1599  0.2520  0.3064
16018TIP3    H169545   5.381   1.901   2.982  1.1223  0.4089 -0.4496
16018TIP3    H269546   5.440   1.882   3.120 -0.8929  0.3385  0.4341
16019TIP3   OH269547   1.291   0.436   3.216 -0.7967  0.4210  0.5479
16019TIP3    H169548   1.371   0.418   3.266  0.2968  0.5665 -1.0852
16019TIP3    H269549   1.225   0.378   3.255  0.6067 -1.1760  0.6680
16020TIP3   OH269550   5.395   5.489   3.009  0.3244 -0.1600  0.2361
16020TIP3    H169551   5.352   5.466   2.927  1.2712 -2.3262  0.2707
16020TIP3    H269552   5.488   5.495   2.986  0.4186  0.8355  0.8388
16021TIP3   OH269553   1.175   0.882   5.648  0.5059 -0.0088  0.1585
16021TIP3    H169554   1.131   0.892   5.564 -2.3046 -0.7389  1.4254
16021TIP3    H269555   1.220   0.798   5.642  0.1158 -0.1733 -0.5405
16022TIP3   OH269556   4.407   2.537  16.446 -0.0942  0.0823  0.6071
16022TIP3    H169557   4.490   2.563  16.486  0.4048 -0.6147  0.0442
16022TIP3    H269558   4.421   2.548  16.352 -0.4890 -0.4800  0.4806
16023TIP3   OH269559   1.531   4.401  16.012  0.8452 -0.1878 -0.2117
16023TIP3    H169560   1.533   4.485  16.057 -0.2573 -0.9272  1.3257
16023TIP3    H269561   1.506   4.338  16.080  2.1950 -1.8578 -1.1673
16024TIP3   OH269562   2.678   0.100   4.573  0.4991  0.2033  1.1157
16024TIP3    H169563   2.724   0.018   4.558 -1.2164 -0.8377  1.2804
16024TIP3    H269564   2.691   0.118   4.666  0.4437 -0.1697  1.1976
16025TIP3   OH269565   5.448   4.858  14.861  0.0578 -0.0459  0.8546
16025TIP3    H169566   5.509   4.929  14.843  0.6220 -0.2139  1.9795
16025TIP3    H269567   5.408   4.881  14.945 -0.9121 -0.2976  0.4839
16026TIP3   OH269568   2.071   2.846   5.738 -0.5612  0.6923  0.2227
16026TIP3    H169569   2.136   2.904   5.778 -1.0432  0.2278  1.7395
16026TIP3    H269570   2.109   2.758   5.746 -1.3707  0.4181  1.1209
16027TIP3   OH269571   3.149   1.492   5.073  0.2157 -0.7620 -0.3176
16027TIP3    H169572   3.110   1.454   4.995 -0.0711 -0.8815 -0.1177
16027TIP3    H269573   3.210   1.426   5.106 -0.1514 -0.9817 -0.0701
16028TIP3   OH269574   2.291   1.328  14.927 -0.0133 -0.4479 -0.5246
16028TIP3    H169575   2.262   1.239  14.907  1.3849 -0.7940 -1.1078
16028TIP3    H269576   2.239   1.383  14.868 -0.4833 -0.9207 -0.5625
16029TIP3   OH269577   6.514   3.167  11.457  0.3715  0.3829  0.4288
16029TIP3    H169578   6.556   3.081  11.454 -0.9343 -0.2480 -1.4346
16029TIP3    H269579   6.461   3.165  11.537 -0.0449 -0.7774  0.1426
16030TIP3   OH269580   3.760   1.870   3.998 -0.0001 -0.3093 -0.5882
16030TIP3    H169581   3.837   1.822   4.026 -0.5064 -0.2703  1.0184
16030TIP3    H269582   3.782   1.962   4.013 -0.4543 -0.3179  0.1992
16031TIP3   OH269583   3.861   5.572  12.135 -1.2701 -0.0593 -0.6551
16031TIP3    H169584   3.957   5.575  12.128 -1.1350 -0.3602  0.7085
16031TIP3    H269585   3.830   5.577  12.045 -0.0184  1.4512 -1.0395
16032TIP3   OH269586   0.920   2.122   1.051 -0.8562  0.6300  0.6823
16032TIP3    H169587   0.834   2.157   1.072 -1.1917 -0.2128  0.7017
16032TIP3    H269588   0.904   2.037   1.011  0.0133 -0.0271  1.6850
16033TIP3   OH269589   3.417   4.260   1.431 -0.5467  0.0714 -0.0236
16033TIP3    H169590   3.453   4.178   1.398 -0.9178  0.1272 -0.5842
16033TIP3    H269591   3.322   4.249   1.425 -0.6017  0.9460 -1.1445
16034TIP3   OH269592   3.678   5.554  15.257  0.2089  0.0557 -0.5863
16034TIP3    H169593   3.745   5.607  15.215  1.0921 -0.5371  0.0325
16034TIP3    H269594   3.708   5.463  15.244 -0.9438 -0.2752 -1.0815
16035TIP3   OH269595   5.890   5.029  11.842 -0.7381  0.8380 -0.1162
16035TIP3    H169596   5.847   5.097  11.790  0.9887  0.5007 -2.1132
16035TIP3    H269597   5.819   4.990  11.893 -2.4497  1.5597 -1.8127
16036TIP3   OH269598   4.016   1.461  16.792 -0.5134 -0.6523 -0.2696
16036TIP3    H169599   3.993   1.480  16.700  0.4429 -0.1166 -0.4047
16036TIP3    H269600   4.100   1.416  16.787 -0.0252  0.1782  0.3968
16037TIP3   OH269601   5.287   4.610   5.306  0.0745 -0.4076  0.3423
16037TIP3    H169602   5.197   4.610   5.273 -0.1614 -0.2887  0.9709
16037TIP3    H269603   5.314   4.702   5.302  0.5851 -0.5917 -0.9281
16038TIP3   OH269604   0.036   3.313   0.727 -0.2941 -0.0160 -0.4012
16038TIP3    H169605   0.038   3.404   0.757 -0.1990 -0.4853  1.1122
16038TIP3    H269606  -0.033   3.272   0.780 -1.3462 -0.5108 -2.0816
16039TIP3   OH269607   4.615   3.374  15.547  0.5082  0.1572 -0.2071
16039TIP3    H169608   4.638   3.459  15.509  0.8744  0.6723  1.1153
16039TIP3    H269609   4.684   3.357  15.612  0.2370 -0.9808 -0.1999
16040TIP3   OH269610   4.810   3.177   0.505  0.2442 -0.4859  0.6311
16040TIP3    H169611   4.767   3.261   0.490  1.1945 -0.1087 -0.0601
16040TIP3    H269612   4.871   3.193   0.576 -1.0115 -1.1295  1.8985
16041TIP3   OH269613   5.876   2.657  13.259 -0.2513 -0.2525 -0.7190
16041TIP3    H169614   5.796   2.691  13.299  0.3133 -0.2379  0.4672
16041TIP3    H269615   5.933   2.733  13.251 -0.4527 -0.2036 -1.8584
16042TIP3   OH269616   6.182   0.272   3.783  0.1686  0.0197  0.2436
16042TIP3    H169617   6.211   0.205   3.720 -0.4593 -0.3002  0.2911
16042TIP3    H269618   6.236   0.349   3.763 -1.2397  0.5144 -1.8699
16043TIP3   OH269619   2.272   0.525   4.618 -0.0897 -0.5399  0.2335
16043TIP3    H169620   2.288   0.575   4.538 -1.1512 -0.4405  0.0565
16043TIP3    H269621   2.196   0.568   4.657 -0.4745 -1.4705  0.5334
16044TIP3   OH269622   5.749   6.294   1.044  0.2511  0.1915  0.0440
16044TIP3    H169623   5.745   6.270   1.137  3.3046  0.4497  0.3520
16044TIP3    H269624   5.675   6.248   1.004 -0.5246 -0.7867  2.4156
16045TIP3   OH269625   0.310   3.552   4.404  0.2353  0.1811  0.2835
16045TIP3    H169626   0.314   3.458   4.384 -0.6867  0.4593 -1.3725
16045TIP3    H269627   0.386   3.567   4.461  1.0048 -1.3720 -0.2642
16046TIP3   OH269628   5.700   1.995   2.418 -0.0780 -0.4952 -0.5053
16046TIP3    H169629   5.649   1.962   2.343 -1.1957 -0.6671  0.3057
16046TIP3    H269630   5.669   2.085   2.430 -0.9519 -0.9282  0.6195
16047TIP3   OH269631   3.063   2.431  14.901  0.1536  0.2718  0.2183
16047TIP3    H169632   3.005   2.501  14.932 -1.1272 -0.5008 -0.3384
16047TIP3    H269633   3.142   2.476  14.872 -0.5809  1.4707  0.0044
16048TIP3   OH269634   2.585   2.034   2.757  0.9360 -0.0377 -0.0830
16048TIP3    H169635   2.589   2.006   2.849  0.0060 -0.9041 -0.2857
16048TIP3    H269636   2.520   1.977   2.717  0.9853  0.6365 -1.1868
16049TIP3   OH269637   3.032   0.572   0.291 -0.3382  0.0650 -0.2248
16049TIP3    H169638   3.011   0.607   0.205 -3.3589  0.9912  0.7450
16049TIP3    H269639   3.059   0.482   0.275 -2.1113 -0.2044 -2.0873
16050TIP3   OH269640   3.787   3.703   2.191 -0.2827 -0.4124  0.3904
16050TIP3    H169641   3.714   3.764   2.175  0.6029  0.0787 -2.1742
16050TIP3    H269642   3.746   3.617   2.193 -1.0539 -0.0609  0.0715
16051TIP3   OH269643   6.028   6.240   5.206 -0.6786 -0.2006  0.4304
16051TIP3    H169644   6.053   6.167   5.149  0.1140  0.5892 -0.2679
16051TIP3    H269645   5.933   6.247   5.196 -0.4043  1.0324 -2.2710
16052TIP3   OH269646   4.420   6.352   1.542 -0.5296  0.3567  1.0877
16052TIP3    H169647   4.483   6.281   1.527  0.2062  1.5086 -2.2338
16052TIP3    H269648   4.474   6.425   1.574 -1.1397 -0.1772  3.5532
16053TIP3   OH269649   6.010   4.907   4.222 -0.3720 -0.6164 -0.3563
16053TIP3    H169650   6.026   4.935   4.312 -1.1299 -0.9811 -0.0988
16053TIP3    H269651   5.969   4.820   4.231 -1.2071 -0.3078 -1.0168
16054TIP3   OH269652   5.619   3.134  13.236  0.5351 -0.2473 -0.3759
16054TIP3    H169653   5.562   3.187  13.180  0.2881 -0.7883 -0.6522
16054TIP3    H269654   5.704   3.135  13.191  0.5515 -0.0210 -0.3395
16055TIP3   OH269655   2.320   6.568  11.091  0.0706 -0.4746  0.2984
16055TIP3    H169656   2.322   6.559  10.996 -0.4560  0.7899  0.1558
16055TIP3    H269657   2.333   6.478  11.123 -0.6391 -1.0588 -0.9625
16056TIP3   OH269658   3.251   1.517   0.849 -0.0224  1.0327 -0.2344
16056TIP3    H169659   3.160   1.501   0.825  0.4619 -1.5107 -0.6096
16056TIP3    H269660   3.253   1.505   0.944 -0.1025  1.2513 -0.2044
16057TIP3   OH269661   6.558   2.177  12.873 -0.6270 -0.3790 -0.4183
16057TIP3    H169662   6.598   2.107  12.821 -0.1477  1.3792 -2.5219
16057TIP3    H269663   6.506   2.227  12.811 -0.7712  1.2857  0.9751
16058TIP3   OH269664   2.367   0.474  16.084 -0.7770  0.6114 -0.3075
16058TIP3    H169665   2.457   0.446  16.067 -0.2584  1.5431  0.7696
16058TIP3    H269666   2.342   0.524  16.006 -0.1207  0.9238 -0.3202
16059TIP3   OH269667   2.239   2.710   3.794  0.0575 -0.1968  0.0365
16059TIP3    H169668   2.153   2.747   3.773 -0.1585  2.1634  4.0083
16059TIP3    H269669   2.221   2.640   3.856  0.9481  0.5161  1.1405
16060TIP3   OH269670   2.450   0.985  14.826  0.1527  0.1652 -0.0826
16060TIP3    H169671   2.487   1.053  14.883  0.0528  0.9088 -0.8893
16060TIP3    H269672   2.526   0.947  14.782  0.3208 -1.0379  1.2040
16061TIP3   OH269673   1.479   4.262   1.188 -0.2397 -0.7303  0.3436
16061TIP3    H169674   1.533   4.183   1.198  0.7273 -0.3254 -1.4051
16061TIP3    H269675   1.490   4.287   1.097  1.1070  2.6110  1.2849
16062TIP3   OH269676   2.823   3.468  13.572 -0.0345  0.3724  0.6883
16062TIP3    H169677   2.909   3.511  13.571  0.0168  0.2925  1.2781
16062TIP3    H269678   2.790   3.482  13.660  0.4070 -1.6276  1.2343
16063TIP3   OH269679   4.455   0.281  16.563 -0.3725  0.0124 -0.5634
16063TIP3    H169680   4.439   0.373  16.543  0.1452  0.5141  1.0992
16063TIP3    H269681   4.384   0.257  16.623  0.4641 -0.1422  0.3863
16064TIP3   OH269682   5.408   4.192   5.291 -0.8949 -0.2625 -0.3821
16064TIP3    H169683   5.422   4.260   5.226 -0.7604 -0.8847 -1.0103
16064TIP3    H269684   5.320   4.158   5.274 -0.6551 -0.7933 -0.5905
16065TIP3   OH269685   3.139   1.292   0.452  0.5645 -0.2899  0.3356
16065TIP3    H169686   3.067   1.272   0.511  0.7836 -0.1101  0.6640
16065TIP3    H269687   3.167   1.380   0.477  0.8802 -0.3479  0.1925
16066TIP3   OH269688   3.185   1.099   3.806 -0.1797 -0.2209  0.6502
16066TIP3    H169689   3.161   1.170   3.747  1.0545  1.1628  1.7368
16066TIP3    H269690   3.112   1.037   3.800 -1.7884  1.6119  0.4435
16067TIP3   OH269691   0.434   4.448  15.609  0.0837 -0.3503  0.1920
16067TIP3    H169692   0.433   4.454  15.513 -0.4221 -2.2534  0.0407
16067TIP3    H269693   0.522   4.477  15.633  0.0052  0.7921 -0.7704
16068TIP3   OH269694   3.395   0.814  14.486 -0.4034 -0.4099 -0.1465
16068TIP3    H169695   3.354   0.730  14.506 -1.2361  0.2477  1.0462
16068TIP3    H269696   3.321   0.872  14.464 -0.0472  0.5218  0.9945
16069TIP3   OH269697   6.554   0.717  15.187 -0.1843 -0.0311  0.2394
16069TIP3    H169698   6.645   0.747  15.187 -0.2511  0.2066  1.1497
16069TIP3    H269699   6.531   0.713  15.280 -0.2549 -2.6906  0.1809
16070TIP3   OH269700   0.277   0.609  13.485  0.3411  0.1550  0.7148
16070TIP3    H169701   0.220   0.645  13.417 -0.7067 -0.6999  1.1218
16070TIP3    H269702   0.365   0.615  13.447 -0.2798 -0.9805 -1.0319
16071TIP3   OH269703   1.525   4.397   1.609 -0.3507 -0.0142 -0.1563
16071TIP3    H169704   1.617   4.391   1.584 -0.0572  0.5399  0.7451
16071TIP3    H269705   1.499   4.485   1.582 -1.0882 -0.7070 -1.8598
16072TIP3   OH269706   2.196   5.710  13.362  0.0208 -0.0666  0.3017
16072TIP3    H169707   2.174   5.733  13.452 -2.3798  0.4637 -0.3546
16072TIP3    H269708   2.191   5.792  13.314 -0.4926 -0.6095 -0.6074
16073TIP3   OH269709   2.957   4.099  15.394  0.2858 -0.2337 -0.1493
16073TIP3    H169710   2.954   4.004  15.394  0.0904 -0.2277 -0.2405
16073TIP3    H269711   2.873   4.126  15.431  0.5969 -0.1062  0.4777
16074TIP3   OH269712   6.818   6.045   4.818 -0.3999 -0.4884 -0.4514
16074TIP3    H169713   6.893   6.023   4.761  0.2254  0.2042  0.0797
16074TIP3    H269714   6.746   6.059   4.757 -0.0075 -0.8090 -1.0058
16075TIP3   OH269715   3.132   4.454  15.332 -0.0907  0.1255 -0.5894
16075TIP3    H169716   3.132   4.550  15.335  2.9928  0.2245  0.5491
16075TIP3    H269717   3.118   4.428  15.424  2.9894 -0.2686 -0.1181
16076TIP3   OH269718   6.112   0.876  10.992  0.4917 -0.2665  0.4211
16076TIP3    H169719   6.088   0.791  10.955  0.2962  0.5932 -1.5902
16076TIP3    H269720   6.049   0.890  11.063  0.9742 -2.0827  1.2529
16077TIP3   OH269721   5.152   3.608   3.548 -0.3458  0.1976 -0.2439
16077TIP3    H169722   5.083   3.640   3.606 -1.3934 -0.6193 -1.0015
16077TIP3    H269723   5.133   3.649   3.463 -1.3128 -1.8144 -1.0565
16078TIP3   OH269724   3.635   3.612  11.989 -0.3644 -0.5228  0.0619
16078TIP3    H169725   3.668   3.638  12.075  2.1590 -0.7090 -0.7832
16078TIP3    H269726   3.707   3.564  11.948 -0.7047  1.2320 -2.9320
16079TIP3   OH269727   5.696   6.630  16.909 -0.7099 -0.2154  0.3162
16079TIP3    H169728   5.641   6.594  16.840 -0.9523  1.0699 -0.1831
16079TIP3    H269729   5.635   6.673  16.969 -0.2857  1.4523 -0.3791
16080TIP3   OH269730   1.029   5.840  14.556 -0.0180  0.0139  0.1623
16080TIP3    H169731   1.099   5.892  14.597 -0.0514  0.3521 -0.2076
16080TIP3    H269732   1.070   5.802  14.478 -0.3775  0.5799 -0.3002
16081TIP3   OH269733   0.656   0.340   0.960 -0.8470 -0.1128  0.0014
16081TIP3    H169734   0.599   0.356   0.885  0.3801  0.6333 -0.8132
16081TIP3    H269735   0.706   0.421   0.970  2.0080 -1.5588 -1.0916
16082TIP3   OH269736   1.007   4.099   0.275 -0.4054 -0.0728  0.4932
16082TIP3    H169737   1.022   4.137   0.189  1.5188  0.5789  1.0751
16082TIP3    H269738   0.932   4.147   0.310  0.1077  1.1119 -0.0000
16083TIP3   OH269739   1.333   5.487   2.969  0.1804 -0.7471  0.1795
16083TIP3    H169740   1.385   5.453   3.043  0.8206 -2.8075 -1.1323
16083TIP3    H269741   1.333   5.416   2.905 -1.5994  0.4236 -1.2236
16084TIP3   OH269742   5.090   5.637  16.027 -0.1718  0.0786 -0.1744
16084TIP3    H169743   5.012   5.594  16.062  0.2308 -0.6723 -0.1729
16084TIP3    H269744   5.123   5.689  16.100 -0.4544  0.0884 -0.0538
16085TIP3   OH269745   1.162   5.601   4.966  0.2102  0.3528  0.1843
16085TIP3    H169746   1.248   5.643   4.960  0.9099 -0.9363  0.7882
16085TIP3    H269747   1.120   5.645   5.040  0.2893  1.0766 -0.1889
16086TIP3   OH269748   6.122   2.989   1.715 -0.3834 -0.0043 -0.3604
16086TIP3    H169749   6.212   2.998   1.685 -0.1118 -0.3670  0.3073
16086TIP3    H269750   6.073   3.055   1.666  0.5382  1.3296  0.4412
16087TIP3   OH269751   5.556   0.608  14.483  0.3719  0.1611 -0.4062
16087TIP3    H169752   5.519   0.552  14.552 -0.1472 -3.2561 -3.1644
16087TIP3    H269753   5.648   0.618  14.508 -0.0300  0.0090  1.3034
16088TIP3   OH269754   0.657   3.073  11.370 -0.0312  0.4523 -0.1389
16088TIP3    H169755   0.598   3.045  11.300  1.4402 -3.6577  0.0508
16088TIP3    H269756   0.599   3.108  11.437 -1.9706 -0.6150 -1.1836
16089TIP3   OH269757   6.723   6.026   0.976 -0.1872 -0.5313 -0.2540
16089TIP3    H169758   6.765   6.109   0.955 -0.9606  0.4392  1.8247
16089TIP3    H269759   6.744   5.969   0.902  1.2506  1.1765 -1.2206
16090TIP3   OH269760   3.028   3.989   3.122  0.7518 -0.2523  0.3358
16090TIP3    H169761   3.015   3.934   3.199  1.2331 -0.8989 -0.0303
16090TIP3    H269762   2.945   4.035   3.111  0.0958 -1.4121  0.2633
16091TIP3   OH269763   0.509   2.379   1.224 -0.1683 -0.9864  0.8234
16091TIP3    H169764   0.442   2.446   1.214 -0.6439 -1.5080  0.4907
16091TIP3    H269765   0.534   2.383   1.317 -0.0105 -0.1816  0.7506
16092TIP3   OH269766   5.039   4.884  16.421 -0.0621  0.3931 -0.0335
16092TIP3    H169767   5.052   4.805  16.474 -2.0991 -2.4109 -3.2918
16092TIP3    H269768   5.118   4.891  16.368 -0.1543  0.0975 -0.2136
16093TIP3   OH269769   1.773   5.744  14.871 -0.3827  0.0560  0.2273
16093TIP3    H169770   1.753   5.653  14.896  1.1715 -0.7981 -1.4608
16093TIP3    H269771   1.693   5.792  14.894 -1.5146 -1.8451  0.5478
16094TIP3   OH269772   3.996   5.652  11.534 -0.5647 -0.2221  0.5533
16094TIP3    H169773   3.987   5.566  11.575  0.0948  0.1416  1.4930
16094TIP3    H269774   3.926   5.655  11.469  0.9520 -2.4769 -1.3185
16095TIP3   OH269775   0.321   1.863   2.011 -0.5072 -0.3141  0.5998
16095TIP3    H169776   0.351   1.935   2.066 -1.4082  1.1469 -0.7292
16095TIP3    H269777   0.238   1.894   1.974 -0.1494 -1.3726 -1.2465
16096TIP3   OH269778   4.402   2.909  14.066 -0.4546  0.2075 -0.0154
16096TIP3    H169779   4.458   2.895  13.989  0.8185  1.6333  0.5914
16096TIP3    H269780   4.317   2.875  14.040  0.6254 -1.9137 -1.0394
16097TIP3   OH269781   2.040   6.567   2.029  0.3766 -0.3474 -0.6835
16097TIP3    H169782   1.957   6.612   2.015  0.7390 -0.0866 -2.1097
16097TIP3    H269783   2.051   6.511   1.952  0.6662 -1.7601  0.3349
16098TIP3   OH269784   5.436   6.795  14.466 -0.0330 -0.4587 -0.1639
16098TIP3    H169785   5.392   6.721  14.507 -1.6558 -0.0774 -1.1153
16098TIP3    H269786   5.431   6.865  14.532 -1.4701 -0.2344 -0.4755
16099TIP3   OH269787   3.076   0.604  15.694 -0.6034  0.6654  0.3408
16099TIP3    H169788   3.170   0.588  15.701 -0.9581 -1.6860  0.5961
16099TIP3    H269789   3.049   0.554  15.617 -1.1262  4.4576 -2.2659
16100TIP3   OH269790   0.052   5.768  11.032  0.0810  0.2619  0.0637
16100TIP3    H169791  -0.011   5.697  11.021  0.5176  0.0846 -1.5498
16100TIP3    H269792   0.107   5.740  11.106 -0.3123 -0.6381  0.0311
16101TIP3   OH269793   1.158   6.754   4.978  0.1127  0.2465 -0.1168
16101TIP3    H169794   1.121   6.686   5.034 -0.6458  0.6188 -0.1392
16101TIP3    H269795   1.197   6.817   5.040  1.1084 -0.3695 -0.1135
16102TIP3   OH269796   0.998   6.590   3.124 -0.0971  0.1292 -0.0676
16102TIP3    H169797   0.968   6.659   3.064 -0.0314 -0.1621 -0.4405
16102TIP3    H269798   0.927   6.526   3.123 -0.0828  0.1089  0.1498
16103TIP3   OH269799   2.142   5.442  14.877 -0.0216  0.2952  0.1416
16103TIP3    H169800   2.048   5.445  14.864 -0.2899 -1.6743  1.1625
16103TIP3    H269801   2.177   5.515  14.826 -1.9287 -0.0421 -1.7680
16104TIP3   OH269802   5.962   6.483  13.425 -0.0016  0.0129 -0.1744
16104TIP3    H169803   5.901   6.554  13.406 -1.1049 -0.7831  0.2673
16104TIP3    H269804   5.997   6.458  13.339  1.3666  1.8796 -0.2133
16105TIP3   OH269805   0.455   5.331  16.313 -0.3220  0.3641  0.0496
16105TIP3    H169806   0.469   5.243  16.278 -1.2645  0.1951  0.0647
16105TIP3    H269807   0.462   5.389  16.237  0.6406  0.3188  0.0955
16106TIP3   OH269808   3.911   1.919   1.514 -0.2686  0.0983 -0.2133
16106TIP3    H169809   3.893   1.911   1.420 -1.3121  1.2460 -0.1505
16106TIP3    H269810   3.844   1.866   1.556  0.1327 -0.3297 -0.1128
16107TIP3   OH269811   6.299   0.977  14.511 -0.7642  0.0377 -0.8856
16107TIP3    H169812   6.235   1.018  14.569 -1.5609 -1.1313 -0.9062
16107TIP3    H269813   6.314   0.890  14.549  2.4864  1.0064  0.3840
16108TIP3   OH269814   5.119   0.402  12.556  0.2778 -0.3754  0.0922
16108TIP3    H169815   5.156   0.373  12.639  0.5696  0.4924  0.2741
16108TIP3    H269816   5.195   0.410  12.497  0.4645  1.5739  0.5136
16109TIP3   OH269817   2.537   5.327  13.533 -0.5292  0.0465  0.3188
16109TIP3    H169818   2.476   5.367  13.595 -0.6045  0.6169 -0.1183
16109TIP3    H269819   2.568   5.400  13.479  0.7572 -0.1681  0.7165
16110TIP3   OH269820   2.906   6.339   2.088 -0.2821  0.2211 -0.1251
16110TIP3    H169821   3.000   6.343   2.104 -0.5924  0.3794  1.8430
16110TIP3    H269822   2.896   6.371   1.998  1.5273  0.2152 -0.3643
16111TIP3   OH269823   2.233   1.630  15.797  0.4578 -0.0703 -0.0657
16111TIP3    H169824   2.185   1.547  15.798  1.0520 -0.4274 -0.3296
16111TIP3    H269825   2.245   1.653  15.889  0.5809 -0.4506  0.0143
16112TIP3   OH269826   1.476   3.813  17.005 -0.5520  0.8711  0.1414
16112TIP3    H169827   1.459   3.784  17.095  1.2226  1.1392  0.6092
16112TIP3    H269828   1.568   3.789  16.989 -0.5052  1.8325 -1.1971
16113TIP3   OH269829   1.789   4.472  11.170 -0.3610 -0.2848 -0.4548
16113TIP3    H169830   1.747   4.557  11.158  0.5050  0.0337 -1.4252
16113TIP3    H269831   1.790   4.433  11.082 -0.4735 -1.1639 -0.0743
16114TIP3   OH269832   6.189   2.783   2.913  0.3074  0.1554  0.5198
16114TIP3    H169833   6.241   2.853   2.874  0.8688 -0.9530 -0.7980
16114TIP3    H269834   6.253   2.721   2.947 -0.1305 -0.8557 -0.4323
16115TIP3   OH269835   4.157   0.667  12.338  0.2945 -0.3974 -0.0859
16115TIP3    H169836   4.199   0.621  12.265  1.3018  0.3612 -0.0118
16115TIP3    H269837   4.182   0.759  12.325  1.5751 -0.4113  1.8953
16116TIP3   OH269838   5.457   3.932   5.783  0.8434  0.0368  0.0432
16116TIP3    H169839   5.474   3.984   5.704  1.9535  1.3768  1.1114
16116TIP3    H269840   5.543   3.896   5.807  1.6186  3.2813  3.0414
16117TIP3   OH269841   5.343   1.282  13.451  0.4342  0.1371 -0.0884
16117TIP3    H169842   5.432   1.303  13.478  0.3673  0.5190 -0.1639
16117TIP3    H269843   5.287   1.315  13.521  0.3213  0.3384 -0.2697
16118TIP3   OH269844   5.383   4.560  12.136  0.0313  0.6209  0.3323
16118TIP3    H169845   5.343   4.473  12.138  1.0381  0.1429  1.2472
16118TIP3    H269846   5.388   4.582  12.043 -2.9781  1.0539  0.1749
16119TIP3   OH269847   6.645   1.313   0.870 -0.0731 -0.4755  0.0504
16119TIP3    H169848   6.593   1.359   0.804  0.6839 -0.1829 -0.3526
16119TIP3    H269849   6.581   1.286   0.936 -1.3354 -3.0939 -2.0323
16120TIP3   OH269850   5.424   2.821  11.872 -0.0923  0.3102  0.0072
16120TIP3    H169851   5.472   2.903  11.879 -0.4596  0.5433 -0.2196
16120TIP3    H269852   5.459   2.779  11.793 -0.9101  0.9036 -0.6800
16121TIP3   OH269853   4.603   1.441   2.880 -0.2523  0.0450  0.5408
16121TIP3    H169854   4.578   1.416   2.969  1.8102  1.8772  1.7657
16121TIP3    H269855   4.699   1.432   2.879 -0.1783  0.5497 -1.3368
16122TIP3   OH269856   3.771   6.704  13.659  0.2969 -0.1172 -0.0680
16122TIP3    H169857   3.702   6.664  13.712 -0.5420 -0.6165 -1.4733
16122TIP3    H269858   3.809   6.631  13.610 -0.4780  0.5740 -1.8097
16123TIP3   OH269859   5.348   1.049  14.123  0.2722 -0.4625 -0.2444
16123TIP3    H169860   5.312   1.084  14.205 -0.4541  2.0645 -1.5496
16123TIP3    H269861   5.423   1.105  14.104  1.3336 -1.9478 -0.6288
16124TIP3   OH269862   1.632   4.759  13.457  0.0558 -0.1468  1.2018
16124TIP3    H169863   1.710   4.729  13.503 -1.8834 -1.9330  3.5379
16124TIP3    H269864   1.636   4.855  13.463  0.5880 -0.2779  3.9287
16125TIP3   OH269865   4.959   6.528   3.242  0.3479 -0.0521  0.2622
16125TIP3    H169866   4.916   6.469   3.180  0.9073 -0.1734 -0.0213
16125TIP3    H269867   4.952   6.615   3.203  0.3121 -0.0656  0.2393
16126TIP3   OH269868   3.652   4.453   5.523  0.0464  0.2462 -0.6761
16126TIP3    H169869   3.647   4.388   5.453 -0.5008 -0.1705 -0.2589
16126TIP3    H269870   3.582   4.515   5.504 -2.0768 -1.4654  1.0585
16127TIP3   OH269871   2.647   4.903   0.928  0.1293  0.2793 -0.2582
16127TIP3    H169872   2.636   4.994   0.899 -0.6668  0.4712  0.5956
16127TIP3    H269873   2.721   4.907   0.989  1.0777  0.0714 -1.3636
16128TIP3   OH269874   0.375   4.850  16.585 -0.3048  0.1408  0.4526
16128TIP3    H169875   0.406   4.928  16.539 -0.4069 -1.3441 -2.3538
16128TIP3    H269876   0.435   4.841  16.659 -0.7250  3.2106  1.3476
16129TIP3   OH269877   3.341   4.808  12.622 -0.4049 -0.5073  0.5531
16129TIP3    H169878   3.394   4.755  12.564 -1.2811 -1.1108  0.2792
16129TIP3    H269879   3.403   4.846  12.684  0.2820 -1.5720  0.5405
16130TIP3   OH269880   4.681   4.845  10.704 -0.0841  0.2828  0.0116
16130TIP3    H169881   4.733   4.767  10.684 -0.7338 -0.2202  0.2428
16130TIP3    H269882   4.625   4.857  10.628 -0.0301  0.4926  0.0043
16131TIP3   OH269883   0.838   2.059   3.532 -0.1554  0.3736  0.0992
16131TIP3    H169884   0.923   2.047   3.575  0.5332 -0.5922 -1.4190
16131TIP3    H269885   0.783   1.989   3.566  0.4799 -0.5698 -0.7436
16132TIP3   OH269886   5.972   3.552   6.465 -0.6267 -0.0112  0.1876
16132TIP3    H169887   6.055   3.589   6.494 -0.0506  0.6680 -2.0779
16132TIP3    H269888   5.973   3.562   6.369 -2.1799 -2.3661 -0.1807
16133TIP3   OH269889   6.215   6.356  12.274 -0.2694  0.5750  0.5547
16133TIP3    H169890   6.199   6.363  12.180 -1.3321 -2.0518  0.4747
16133TIP3    H269891   6.277   6.284  12.283 -2.0735 -0.8971  1.9673
16134TIP3   OH269892   0.914   6.461  13.028 -0.0511 -0.6102  0.5557
16134TIP3    H169893   0.994   6.412  13.013  0.3742  0.1948  0.1134
16134TIP3    H269894   0.941   6.536  13.082 -0.0771  0.8274 -1.3476
16135TIP3   OH269895   2.593   3.974   0.867 -0.3032  0.6363  0.2423
16135TIP3    H169896   2.573   3.881   0.878  2.0677  0.1351  0.7991
16135TIP3    H269897   2.600   3.986   0.772  2.5831 -0.5952  0.1966
16136TIP3   OH269898   3.738   0.935  13.552  0.7068 -0.2815 -0.0367
16136TIP3    H169899   3.805   0.877  13.588  0.8935  0.4565  0.8405
16136TIP3    H269900   3.667   0.876  13.525  1.6489 -1.0587 -0.8756
16137TIP3   OH269901   3.715   2.459   4.658  0.1483 -0.4104  0.1478
16137TIP3    H169902   3.798   2.462   4.706  1.5799 -1.6669 -2.0809
16137TIP3    H269903   3.733   2.504   4.576 -1.7193  0.1887  0.0159
16138TIP3   OH269904   5.383   5.640   0.537  0.5476 -0.6203 -0.7511
16138TIP3    H169905   5.337   5.557   0.526 -1.1455  0.2886 -1.0284
16138TIP3    H269906   5.369   5.686   0.453  1.7819 -0.2103 -0.7470
16139TIP3   OH269907   0.137   5.046  16.084 -0.1828  0.1633  0.2830
16139TIP3    H169908   0.212   5.068  16.028  0.0987  0.5289  0.7957
16139TIP3    H269909   0.177   5.009  16.163 -0.5177  0.9209  0.8089
16140TIP3   OH269910   3.116   5.305   1.694 -0.1206  0.1364  0.4179
16140TIP3    H169911   3.172   5.272   1.763  0.9216 -0.1450 -0.5334
16140TIP3    H269912   3.119   5.400   1.703  0.5676  0.1262  0.3446
16141TIP3   OH269913   0.277   6.346  14.048  0.6130  0.4877  0.3708
16141TIP3    H169914   0.305   6.359  13.957 -2.5831 -2.4379 -1.2873
16141TIP3    H269915   0.303   6.256  14.068 -1.2290  0.1062  1.2389
16142TIP3   OH269916   6.147   3.448  16.925 -0.8835  0.4203 -0.2600
16142TIP3    H169917   6.211   3.383  16.954 -0.9024  0.4350 -0.1862
16142TIP3    H269918   6.171   3.465  16.834  0.1674  1.5516  0.2104
16143TIP3   OH269919   4.595   0.759  13.703 -0.6092  0.6555  0.2723
16143TIP3    H169920   4.521   0.723  13.752 -0.4126  2.2635  1.8511
16143TIP3    H269921   4.562   0.772  13.614 -0.9218 -2.5533 -0.1992
16144TIP3   OH269922   4.318   2.566   4.760  0.5915  0.3615  0.5632
16144TIP3    H169923   4.270   2.543   4.680  0.9631  1.4631  0.0032
16144TIP3    H269924   4.288   2.502   4.825  1.4804 -1.5931 -0.8528
16145TIP3   OH269925   1.945   5.250   0.906 -0.3706  0.3662  0.1476
16145TIP3    H169926   1.880   5.218   0.843 -0.7273 -0.0319  0.7104
16145TIP3    H269927   2.018   5.188   0.898 -1.5612 -1.4303  2.1299
16146TIP3   OH269928   1.993   2.761   5.203 -0.6140  0.3272 -0.9483
16146TIP3    H169929   2.084   2.763   5.173 -0.3630  0.3802 -0.2044
16146TIP3    H269930   1.943   2.740   5.125  0.2662 -2.2812 -0.9231
16147TIP3   OH269931   4.260   2.450   3.092  0.1342  0.7836 -0.7528
16147TIP3    H169932   4.180   2.429   3.044 -0.3158 -0.0369  0.3163
16147TIP3    H269933   4.327   2.462   3.024 -0.6044  0.1898 -1.6013
16148TIP3   OH269934   3.856   2.733  11.459 -0.4245  0.4197  0.5602
16148TIP3    H169935   3.901   2.662  11.413  1.1853  1.4565  0.4574
16148TIP3    H269936   3.795   2.688  11.518 -0.6319 -0.9913 -0.6636
16149TIP3   OH269937   6.503   0.318   4.017  0.3951 -0.7689 -0.4866
16149TIP3    H169938   6.503   0.378   3.942 -2.6623  0.1609  0.1167
16149TIP3    H269939   6.584   0.339   4.064 -0.4309  2.8607 -0.3899
16150TIP3   OH269940   0.199   2.016   2.550  0.1342  0.6029  0.0984
16150TIP3    H169941   0.243   1.937   2.581 -0.0138  0.7592  0.7210
16150TIP3    H269942   0.268   2.082   2.545 -0.1994  1.1788  2.2269
16151TIP3   OH269943   5.793   4.652  15.576 -0.3032 -0.1415 -0.2632
16151TIP3    H169944   5.822   4.646  15.485  0.2446  0.8051 -0.1604
16151TIP3    H269945   5.862   4.701  15.621 -0.6535 -0.4345  0.6302
16152TIP3   OH269946   4.253   5.954   3.543  0.1550 -0.0992  0.0993
16152TIP3    H169947   4.234   5.914   3.459 -0.7328  1.5139 -0.5083
16152TIP3    H269948   4.192   5.913   3.604 -0.9001  0.4395 -0.5570
16153TIP3   OH269949   1.612   5.527   5.149 -0.4136  0.0791  0.1341
16153TIP3    H169950   1.690   5.478   5.173 -0.5788 -0.1022  0.3023
16153TIP3    H269951   1.610   5.524   5.053  0.0333  0.4722  0.1121
16154TIP3   OH269952   1.689   3.364   4.402 -0.0173  0.2061  0.2808
16154TIP3    H169953   1.725   3.382   4.489 -0.6284 -0.8309  0.7756
16154TIP3    H269954   1.616   3.303   4.419 -1.5335  1.6472 -0.7532
16155TIP3   OH269955   3.665   0.545  14.352 -0.0534  0.5178  0.0788
16155TIP3    H169956   3.637   0.495  14.428  0.9795  2.3558  1.7561
16155TIP3    H269957   3.584   0.571  14.309 -0.6323 -1.3776 -0.0853
16156TIP3   OH269958   1.350   3.141   1.423 -0.2965 -0.3993  0.0722
16156TIP3    H169959   1.297   3.219   1.436 -1.6167 -1.2609  0.1438
16156TIP3    H269960   1.420   3.149   1.488 -0.8315  0.3728  0.5781
16157TIP3   OH269961   3.347   4.763   0.823  0.3355 -0.5340 -0.1288
16157TIP3    H169962   3.356   4.745   0.729  0.0867 -1.6465  0.0514
16157TIP3    H269963   3.253   4.771   0.837  0.3311 -1.0555  0.1484
16158TIP3   OH269964   5.837   2.927  12.581  0.1423  0.3487  0.4573
16158TIP3    H169965   5.849   2.833  12.592 -1.4033  0.1488  0.6776
16158TIP3    H269966   5.815   2.959  12.669  0.4337  0.8843  0.3422
16159TIP3   OH269967   2.028   5.382  11.652  0.4000  0.2171  0.9442
16159TIP3    H169968   2.073   5.371  11.736  0.4632  1.0817  1.0321
16159TIP3    H269969   2.094   5.359  11.586 -0.4115 -3.1036  1.1394
16160TIP3   OH269970   3.744   6.552   0.797  0.3694 -0.3055 -0.2387
16160TIP3    H169971   3.793   6.473   0.773 -0.0484 -0.8431  0.6058
16160TIP3    H269972   3.652   6.526   0.787  0.2078 -0.2748  1.0586
16161TIP3   OH269973   2.395   0.624   3.718 -0.0583 -0.0199  0.2366
16161TIP3    H169974   2.314   0.600   3.763  0.5934 -2.5914  0.1897
16161TIP3    H269975   2.453   0.655   3.787 -0.3866 -0.1890  0.5897
16162TIP3   OH269976   0.882   5.279  16.068  0.5827  0.3061 -0.2557
16162TIP3    H169977   0.934   5.246  15.994 -3.3631  1.8170 -4.1526
16162TIP3    H269978   0.873   5.373  16.051 -0.8625  0.6382  1.9404
16163TIP3   OH269979   1.979   2.359  14.958  0.0848 -0.0578  0.7255
16163TIP3    H169980   1.915   2.342  14.889  0.3667  0.2412  0.3849
16163TIP3    H269981   1.927   2.364  15.039 -0.4944  1.3211  0.3069
16164TIP3   OH269982   2.548   6.720   0.136 -0.1057 -0.2890  0.4451
16164TIP3    H169983   2.585   6.725   0.048 -0.9509  1.3872  0.1478
16164TIP3    H269984   2.623   6.726   0.194  0.3220  0.3463 -0.1629
16165TIP3   OH269985   1.811   4.047  11.366  0.5840  0.0980 -0.1056
16165TIP3    H169986   1.866   4.125  11.360  1.0247 -0.2802 -1.2387
16165TIP3    H269987   1.854   3.983  11.310 -0.5815 -0.4755 -0.3671
16166TIP3   OH269988   4.767   0.308   5.608  0.1108  0.1063  0.1190
16166TIP3    H169989   4.801   0.249   5.676  2.0804  1.3214  0.2536
16166TIP3    H269990   4.763   0.394   5.649  1.3115  0.8670 -1.2390
16167TIP3   OH269991   5.583   1.242  12.378  0.2904 -0.4243 -0.3022
16167TIP3    H169992   5.608   1.259  12.469 -1.9462  0.7288  0.1725
16167TIP3    H269993   5.501   1.193  12.384 -0.9788  1.3967 -1.6230
16168TIP3   OH269994   5.420   3.723   3.465 -0.3562  0.1614 -0.1174
16168TIP3    H169995   5.338   3.719   3.417  0.0542  0.6189 -0.8880
16168TIP3    H269996   5.488   3.713   3.397  0.2338  0.7705  0.3614
16169TIP3   OH269997   6.327   1.337  12.987 -0.2426 -0.1845 -0.1908
16169TIP3    H169998   6.366   1.291  12.913  0.7273  1.7519 -0.9618
16169TIP3    H269999   6.275   1.406  12.947 -1.0521 -0.1177  0.9286
16170TIP3   OH270000   2.380   6.204   4.725 -0.4424  0.4661 -1.0158
16170TIP3    H170001   2.453   6.142   4.723 -0.8322  0.0381 -2.2747
16170TIP3    H270002   2.330   6.179   4.803 -0.4462 -0.6347 -1.3552
16171TIP3   OH270003   2.502   2.675   2.839 -0.3560  0.1876 -0.0337
16171TIP3    H170004   2.542   2.592   2.810 -1.7838 -0.4919 -0.1629
16171TIP3    H270005   2.480   2.660   2.931  1.3076  1.2218  0.5730
16172TIP3   OH270006   5.539   3.416  15.613 -0.1428  0.1148 -0.2066
16172TIP3    H170007   5.475   3.421  15.542 -0.4924  2.3260  0.1864
16172TIP3    H270008   5.614   3.467  15.582  1.0347 -1.5046 -0.1952
16173TIP3   OH270009   4.595   1.891  17.075 -0.0055 -0.0986 -0.0784
16173TIP3    H170010   4.607   1.814  17.129  0.8410  0.4437  0.5300
16173TIP3    H270011   4.566   1.856  16.990 -0.2699 -1.0286  0.3837
16174TIP3   OH270012   1.666   3.776   2.412 -0.1486  0.0773 -0.2797
16174TIP3    H170013   1.709   3.758   2.329  0.1459  0.4380 -0.2045
16174TIP3    H270014   1.733   3.818   2.466 -1.0190  2.1074 -0.6888
16175TIP3   OH270015   0.270   6.793  15.495  0.0805  0.1781  0.0032
16175TIP3    H170016   0.239   6.814  15.583 -0.5140 -1.2052  0.1376
16175TIP3    H270017   0.298   6.702  15.499  0.9360  0.3697 -1.0127
16176TIP3   OH270018   3.396   4.467  17.127 -0.0846  0.6077 -0.7821
16176TIP3    H170019   3.379   4.404  17.057 -0.1055  2.0222 -2.1081
16176TIP3    H270020   3.334   4.538  17.110  0.6113  1.4465  0.0691
16177TIP3   OH270021   6.229   6.415  16.117 -0.4144  0.0927  0.6070
16177TIP3    H170022   6.152   6.472  16.122  0.6851  1.5816  0.9718
16177TIP3    H270023   6.300   6.472  16.088  0.8873 -0.9242  1.6606
16178TIP3   OH270024   0.901   4.092   1.321  0.1240  0.7221  0.9039
16178TIP3    H170025   0.994   4.094   1.344 -0.2570 -1.0526  2.8915
16178TIP3    H270026   0.863   4.166   1.369  0.2058  0.2587  1.6938
16179TIP3   OH270027   2.228   5.278  10.282  0.5651 -0.4267  0.2566
16179TIP3    H170028   2.254   5.188  10.303  0.5009 -0.7473 -0.9250
16179TIP3    H270029   2.142   5.268  10.241  0.0468  0.2951  1.1400
16180TIP3   OH270030   4.679   2.214  11.975  0.2971 -0.9537  0.3882
16180TIP3    H170031   4.689   2.287  11.915  0.7478 -1.0561  0.3352
16180TIP3    H270032   4.595   2.174  11.951 -0.6602  0.3907  1.3500
16181TIP3   OH270033   3.824   2.752   5.264  0.3716  0.2978 -0.1051
16181TIP3    H170034   3.778   2.668   5.267  0.8308 -0.1142 -2.4365
16181TIP3    H270035   3.844   2.772   5.355 -1.8561 -0.9199  0.7302
16182TIP3   OH270036   2.014   3.951   0.521 -0.0986  0.3587  0.1238
16182TIP3    H170037   1.990   4.008   0.594  0.1609  2.3284 -1.2127
16182TIP3    H270038   2.005   4.008   0.444  3.7125 -0.2582 -0.9935
16183TIP3   OH270039   1.089   4.626  11.342  0.3865 -0.2731  0.3949
16183TIP3    H170040   1.084   4.538  11.305  0.4952 -0.2157  0.2421
16183TIP3    H270041   1.181   4.649  11.336 -0.0489  1.0413 -2.3658
16184TIP3   OH270042   1.313   5.261  13.015  0.1556  0.4387 -0.0588
16184TIP3    H170043   1.252   5.261  13.089  0.3184  1.4562  0.0950
16184TIP3    H270044   1.265   5.221  12.943  0.3943 -1.7115  0.9000
16185TIP3   OH270045   5.951   2.542   3.937  0.3649  0.6739 -0.3095
16185TIP3    H170046   6.046   2.556   3.936  0.4456  0.2675  0.4791
16185TIP3    H270047   5.917   2.599   3.868  1.3384 -0.3921 -1.7280
16186TIP3   OH270048   6.278   0.845   1.074  0.0948 -0.3184  0.0084
16186TIP3    H170049   6.211   0.902   1.110  1.4787  1.8175 -0.5867
16186TIP3    H270050   6.312   0.796   1.149  0.2421  1.1661  0.9488
16187TIP3   OH270051   1.247   5.773   2.932 -0.3049  0.1134 -0.1029
16187TIP3    H170052   1.227   5.683   2.910  1.6710 -0.7647  1.3495
16187TIP3    H270053   1.285   5.810   2.852 -0.7482 -0.4552 -0.5785
16188TIP3   OH270054   2.629   2.640  16.323  0.2769 -0.1806 -0.2076
16188TIP3    H170055   2.643   2.731  16.296 -1.5175  0.2031  0.0636
16188TIP3    H270056   2.620   2.592  16.240 -0.1329  0.1162 -0.3339
16189TIP3   OH270057   1.611   3.082   1.532 -0.2481 -0.2326 -0.2575
16189TIP3    H170058   1.615   3.021   1.606  0.0166 -1.3463 -1.1734
16189TIP3    H270059   1.634   3.167   1.570  1.1923 -1.0093  0.6986
16190TIP3   OH270060   3.421   0.618  14.234 -0.4193  0.0399 -0.6467
16190TIP3    H170061   3.440   0.613  14.141 -0.8391  2.1255 -0.8972
16190TIP3    H270062   3.347   0.679  14.240 -0.2075  0.1730  1.0684
16191TIP3   OH270063   5.759   6.005  15.564  0.0083 -0.1678  0.6042
16191TIP3    H170064   5.777   6.070  15.496 -0.4992 -1.4112 -0.7590
16191TIP3    H270065   5.680   5.960  15.534 -0.3053 -0.6730  2.0942
16192TIP3   OH270066   6.089   5.381  16.670 -0.0226  0.4023  0.2939
16192TIP3    H170067   6.068   5.465  16.629  1.4130  0.3707 -0.5588
16192TIP3    H270068   6.161   5.346  16.618 -0.8560 -1.5809  0.3651
16193TIP3   OH270069   6.455   5.276  14.024 -0.4018  0.1842  0.6912
16193TIP3    H170070   6.523   5.332  14.062 -0.4387  0.1220  0.8507
16193TIP3    H270071   6.430   5.320  13.942 -0.2711  0.2812  0.7034
16194TIP3   OH270072   5.919   0.546   0.969  0.5200 -0.1774 -0.4043
16194TIP3    H170073   5.901   0.573   1.059  2.3393 -1.4529  0.4034
16194TIP3    H270074   5.833   0.526   0.932 -0.2947  0.7235  0.9176
16195TIP3   OH270075   6.344   2.672   6.340  0.3094  0.1112 -0.3801
16195TIP3    H170076   6.342   2.612   6.415 -0.5079 -0.7615 -1.0799
16195TIP3    H270077   6.436   2.698   6.333  0.8075 -1.5201 -0.3899
16196TIP3   OH270078   3.628   6.153   1.372 -0.3542  0.1405  0.0788
16196TIP3    H170079   3.567   6.192   1.309  0.2739  0.1501 -0.5300
16196TIP3    H270080   3.583   6.075   1.404 -0.4016 -0.2532 -0.9019
16197TIP3   OH270081   4.372   2.393   2.135 -0.0538 -0.1667  0.0877
16197TIP3    H170082   4.389   2.339   2.213  2.1782  0.0171 -0.2148
16197TIP3    H270083   4.407   2.341   2.062 -0.6620  0.3740 -0.6067
16198TIP3   OH270084   1.851   5.723  15.168  0.2680  0.1875 -0.4143
16198TIP3    H170085   1.846   5.818  15.151 -0.2668  0.2839  0.2781
16198TIP3    H270086   1.846   5.684  15.081  0.4281  0.7916 -0.7062
16199TIP3   OH270087   0.072   5.489   2.009 -0.6159  0.5026 -0.3330
16199TIP3    H170088   0.091   5.534   1.926  1.0595 -0.3809 -0.4785
16199TIP3    H270089   0.006   5.424   1.988 -1.1700  1.1680 -0.6767
16200TIP3   OH270090   2.730   5.798   6.152 -0.7150 -0.3048  0.4298
16200TIP3    H170091   2.701   5.709   6.168  0.5203 -1.2615 -2.1670
16200TIP3    H270092   2.809   5.808   6.205 -0.7649 -0.8088  0.5965
16201TIP3   OH270093   3.831   5.793  16.598 -0.1206 -0.2345  0.3845
16201TIP3    H170094   3.873   5.725  16.651 -0.6102 -0.7815  0.0887
16201TIP3    H270095   3.742   5.761  16.585 -0.0656 -0.0154 -0.5980
16202TIP3   OH270096   4.603   1.948  15.001  0.9818 -0.6043  0.6412
16202TIP3    H170097   4.688   1.945  14.957  1.5046  2.6493  1.1536
16202TIP3    H270098   4.624   1.970  15.092 -0.3560 -0.9969  1.0677
16203TIP3   OH270099   1.339   3.230  15.786  0.1774 -0.1167  0.0974
16203TIP3    H170100   1.357   3.303  15.845 -0.3593 -1.2511  1.7102
16203TIP3    H270101   1.280   3.268  15.720  0.1740  0.9963  0.7078
16204TIP3   OH270102   4.682   2.088   2.569  0.1844 -0.8297 -0.6660
16204TIP3    H170103   4.673   2.139   2.649 -0.9851 -0.0354 -1.2846
16204TIP3    H270104   4.710   2.001   2.599  2.7141  0.2481  0.3717
16205TIP3   OH270105   6.010   6.210   1.287 -0.1093  0.3101 -0.0938
16205TIP3    H170106   5.984   6.298   1.312 -0.5179  0.6099 -1.5069
16205TIP3    H270107   6.104   6.216   1.269  0.1364  0.1471  1.0461
16206TIP3   OH270108   2.167   0.671  16.318  0.5566 -0.5443 -0.0108
16206TIP3    H170109   2.212   0.744  16.274  2.9283 -1.5648  0.6085
16206TIP3    H270110   2.097   0.713  16.368  3.1721  1.6844  2.1020
16207TIP3   OH270111   4.347   2.090  12.303 -0.5886  0.0414  0.9248
16207TIP3    H170112   4.300   2.129  12.377 -1.4922 -1.2366  1.0589
16207TIP3    H270113   4.316   2.137  12.227 -2.0472 -0.7000  1.0274
16208TIP3   OH270114   2.519   4.488   2.974 -0.6326  0.2859 -0.0843
16208TIP3    H170115   2.498   4.418   2.912  0.5080  0.9903 -1.3129
16208TIP3    H270116   2.436   4.506   3.018 -1.7830  0.5633 -2.2414
16209TIP3   OH270117   5.121   1.383   5.088 -0.4288 -0.2666  0.6515
16209TIP3    H170118   5.105   1.441   5.013 -0.4079 -1.3113 -0.1764
16209TIP3    H270119   5.156   1.441   5.156  1.5008  0.3799 -0.8112
16210TIP3   OH270120   4.629   3.256  14.728 -0.2497  0.3191 -0.7592
16210TIP3    H170121   4.579   3.240  14.649  1.4702  1.5631 -2.1804
16210TIP3    H270122   4.598   3.341  14.760 -1.7026 -0.6623  0.5805
16211TIP3   OH270123   2.471   1.503  15.770  0.4723  0.9876 -0.3336
16211TIP3    H170124   2.452   1.410  15.782  0.3926  0.9220 -0.9384
16211TIP3    H270125   2.392   1.548  15.801  0.4288  0.8469 -0.2382
16212TIP3   OH270126   0.318   2.522  10.711  0.2971 -0.1500  0.1193
16212TIP3    H170127   0.238   2.540  10.662  0.9881  0.3660 -0.8480
16212TIP3    H270128   0.376   2.478  10.649  0.3773 -1.5457  1.1294
16213TIP3   OH270129   2.341   6.235   1.781  0.8161  0.2504  0.6531
16213TIP3    H170130   2.405   6.306   1.775  1.7732 -0.6041  0.3993
16213TIP3    H270131   2.311   6.222   1.691 -0.5826  1.3808  0.9149
16214TIP3   OH270132   5.815   0.496  11.479  0.0412  0.2739 -0.0916
16214TIP3    H170133   5.883   0.558  11.507  0.0384  0.7955 -1.1891
16214TIP3    H270134   5.735   0.547  11.477 -0.8674 -0.8186  3.1975
16215TIP3   OH270135   4.233   0.174   4.411 -0.3580 -0.2573  0.3214
16215TIP3    H170136   4.205   0.083   4.405 -1.5210  0.1685 -1.7963
16215TIP3    H270137   4.189   0.207   4.490 -2.5344 -0.7437 -0.6094
16216TIP3   OH270138   3.044   2.383  11.030  0.2140  0.0208  0.3516
16216TIP3    H170139   3.022   2.300  11.071  0.9133 -0.0384  0.6229
16216TIP3    H270140   3.137   2.377  11.012 -0.0588  0.0887 -1.1666
16217TIP3   OH270141   0.782   1.010  17.052 -0.1801 -0.0409 -0.0829
16217TIP3    H170142   0.864   1.017  17.003  0.2492  0.4445  0.6796
16217TIP3    H270143   0.784   1.084  17.113  0.2133 -1.6412  1.9930
16218TIP3   OH270144   5.374   4.475   0.720 -0.4792  0.0871  0.4903
16218TIP3    H170145   5.418   4.550   0.681 -1.9030 -0.0267 -1.5193
16218TIP3    H270146   5.415   4.465   0.806 -0.7389  3.6097  1.1784
16219TIP3   OH270147   2.622   2.726  11.948 -0.5189 -0.1849 -0.3981
16219TIP3    H170148   2.621   2.632  11.927 -2.5049 -0.0576 -1.0831
16219TIP3    H270149   2.710   2.755  11.923  0.2075 -1.8948  0.0450
16220TIP3   OH270150   3.312   1.195   5.899  0.1089 -0.5428  0.2533
16220TIP3    H170151   3.343   1.120   5.948 -0.4022 -1.1010 -0.2598
16220TIP3    H270152   3.236   1.227   5.949 -0.7224 -1.4188 -0.4207
16221TIP3   OH270153   2.410   2.890   3.658  0.7253  0.5211 -0.3473
16221TIP3    H170154   2.354   2.825   3.700 -0.1081  1.3797 -0.0945
16221TIP3    H270155   2.444   2.943   3.730  1.0543  0.6357 -0.5824
16222TIP3   OH270156   5.546   2.779  16.925 -0.6192 -0.7098 -0.1257
16222TIP3    H170157   5.557   2.726  17.004 -0.5971  1.0238  1.1006
16222TIP3    H270158   5.634   2.808  16.902 -0.8712  1.0378  0.9015
16223TIP3   OH270159   4.868   4.293   2.514  0.1020 -0.0492 -0.3974
16223TIP3    H170160   4.843   4.226   2.450  3.1227 -1.2508 -0.4603
16223TIP3    H270161   4.878   4.246   2.596  0.8192  0.5867 -0.1086
16224TIP3   OH270162   3.525   1.744   2.393  0.4701  0.1244  0.5142
16224TIP3    H170163   3.461   1.679   2.423  1.0331 -0.5452  0.3022
16224TIP3    H270164   3.607   1.695   2.386  1.2216  1.1646  1.6259
16225TIP3   OH270165   1.211   0.620  12.720 -0.4134  0.9742 -0.1252
16225TIP3    H170166   1.194   0.559  12.649  1.1419  1.1348 -0.6744
16225TIP3    H270167   1.201   0.568  12.800 -0.2800  0.2967 -0.5411
16226TIP3   OH270168   1.808   3.998  12.576  0.0295  0.1461  0.0482
16226TIP3    H170169   1.859   4.075  12.551 -1.9073  2.1261  1.7130
16226TIP3    H270170   1.737   3.995  12.512 -0.5735  0.5199  0.6825
16227TIP3   OH270171   6.407   4.308  10.563 -0.0819  0.0060 -0.1324
16227TIP3    H170172   6.440   4.244  10.500  1.4697  0.5127  0.1217
16227TIP3    H270173   6.437   4.393  10.530 -1.7151  0.5782 -0.2147
16228TIP3   OH270174   6.168   3.982   5.829 -0.2468 -0.0037  0.1220
16228TIP3    H170175   6.176   3.961   5.922  0.3806  1.2733  0.3676
16228TIP3    H270176   6.208   4.068   5.820  0.7633 -0.5991 -1.5299
16229TIP3   OH270177   5.556   6.497  17.235  0.2896 -0.1919  0.2821
16229TIP3    H170178   5.564   6.587  17.204  1.5487  0.0491  1.2152
16229TIP3    H270179   5.586   6.500  17.325  0.3544 -1.5571  0.3291
16230TIP3   OH270180   0.417   5.521   3.638  0.1956  0.4135  0.4082
16230TIP3    H170181   0.378   5.607   3.617 -0.0042  0.3718  0.6028
16230TIP3    H270182   0.460   5.535   3.723 -0.0573  0.2538  0.5633
16231TIP3   OH270183   2.812   3.125  12.232 -0.5176 -0.5312  0.0178
16231TIP3    H170184   2.871   3.168  12.169 -0.9916 -0.1454 -0.1686
16231TIP3    H270185   2.810   3.185  12.306 -1.1873 -0.2226 -0.2461
16232TIP3   OH270186   4.501   3.464  14.113 -0.5412  0.1349 -0.2848
16232TIP3    H170187   4.561   3.488  14.183 -1.3652  2.0391 -0.1654
16232TIP3    H270188   4.416   3.453  14.156 -1.0480  1.2739 -0.9496
16233TIP3   OH270189   3.743   4.591   2.132  0.4406 -0.1667  0.3637
16233TIP3    H170190   3.794   4.595   2.214 -1.1232 -1.4204  1.4489
16233TIP3    H270191   3.775   4.513   2.088  1.2675  0.4967 -0.2589
16234TIP3   OH270192   3.425   1.731   0.698  0.4634  0.2911  0.1469
16234TIP3    H170193   3.450   1.639   0.698  0.4593  0.2487  2.3313
16234TIP3    H270194   3.505   1.778   0.674  0.8950 -0.1957  0.6092
16235TIP3   OH270195   0.124   1.602   0.112  0.3899 -0.2240 -0.1185
16235TIP3    H170196   0.036   1.627   0.141  0.0770 -0.9758 -0.4126
16235TIP3    H270197   0.163   1.560   0.189 -0.3033 -1.8650 -0.6079
16236TIP3   OH270198   4.545   3.939  14.652  0.3985  0.3200  0.2148
16236TIP3    H170199   4.528   3.995  14.728  0.5695  0.0749  0.4344
16236TIP3    H270200   4.479   3.870  14.658  0.2713  0.4248  0.0165
16237TIP3   OH270201   3.585   3.600  11.490 -0.5915  0.5730 -0.1879
16237TIP3    H170202   3.574   3.692  11.465  0.9199  0.9873  0.5223
16237TIP3    H270203   3.671   3.576  11.455 -0.5707 -0.2759  0.4220
16238TIP3   OH270204   6.793   1.367   6.011  0.0933 -0.6002 -0.1283
16238TIP3    H170205   6.820   1.396   5.924 -0.8847  1.5909  0.2260
16238TIP3    H270206   6.842   1.286   6.025  1.4957 -0.1790 -2.0622
16239TIP3   OH270207   4.577   3.431   0.709 -0.2607  0.5258 -0.0593
16239TIP3    H170208   4.511   3.381   0.757 -1.0780  1.1325 -0.5113
16239TIP3    H270209   4.533   3.456   0.627  0.4983  1.0290 -0.3289
16240TIP3   OH270210   1.161   5.227   2.446 -0.1769 -0.1311  0.1645
16240TIP3    H170211   1.179   5.305   2.393 -1.9030  0.9999  1.1232
16240TIP3    H270212   1.208   5.243   2.528 -0.2223 -0.2762  0.2181
16241TIP3   OH270213   2.854   2.694   1.514  0.1810 -0.6454 -0.4211
16241TIP3    H170214   2.912   2.721   1.442 -0.7352 -0.1871 -1.0105
16241TIP3    H270215   2.861   2.599   1.516  0.7226 -0.6150 -0.6880
16242TIP3   OH270216   5.795   6.794   2.639  0.2420 -0.7286 -0.5253
16242TIP3    H170217   5.783   6.699   2.628  0.7756 -1.2633  2.5975
16242TIP3    H270218   5.742   6.816   2.715  0.3950  1.4560 -1.0080
16243TIP3   OH270219   4.344   3.728  13.666 -0.4447  0.4612  0.1801
16243TIP3    H170220   4.397   3.693  13.738 -0.5313 -0.3904 -0.1553
16243TIP3    H270221   4.257   3.737  13.704 -0.4304  0.2664  0.2654
16244TIP3   OH270222   5.534   1.960   2.211  0.3202  0.4257  0.0637
16244TIP3    H170223   5.503   1.989   2.125  0.1956  0.9277  0.2728
16244TIP3    H270224   5.516   1.866   2.213 -0.3962  0.5492 -0.1598
16245TIP3   OH270225   1.706   4.666  16.984  0.6167 -0.0067  0.2927
16245TIP3    H170226   1.674   4.587  17.029  0.5688 -0.9224 -1.2633
16245TIP3    H270227   1.703   4.734  17.050 -0.4474 -1.0559  1.3819
16246TIP3   OH270228   5.498   4.116  15.187 -0.2764 -0.2754  0.0900
16246TIP3    H170229   5.544   4.080  15.262 -1.0568  0.2557  0.8369
16246TIP3    H270230   5.479   4.040  15.132  0.9319 -0.5794  0.0559
16247TIP3   OH270231   6.069   2.364  11.878  0.5082  0.2238  0.0771
16247TIP3    H170232   6.122   2.434  11.916 -0.2153  0.7671  0.1103
16247TIP3    H270233   6.030   2.404  11.800  0.2640 -0.2122 -0.0272
16248TIP3   OH270234   5.254   2.609   1.101 -0.2365 -0.2423 -0.3806
16248TIP3    H170235   5.232   2.568   1.018 -0.8461 -1.0421  0.1596
16248TIP3    H270236   5.270   2.536   1.161  0.3687  0.3213  0.1599
16249TIP3   OH270237   1.125   1.088   1.493  0.0449 -0.3888 -0.7488
16249TIP3    H170238   1.128   1.184   1.487  0.9024 -0.2360  1.1388
16249TIP3    H270239   1.032   1.066   1.489 -0.4607  0.8517  1.7531
16250TIP3   OH270240   0.663   3.604   2.073  0.2800  0.0758  0.1510
16250TIP3    H170241   0.693   3.546   2.143  0.4179  1.8483  1.6350
16250TIP3    H270242   0.569   3.586   2.065 -0.4412  1.9053  2.9907
16251TIP3   OH270243   3.247   3.653   1.567  0.0581  0.0565  0.9210
16251TIP3    H170244   3.194   3.731   1.549 -0.8254 -0.9016 -0.9437
16251TIP3    H270245   3.287   3.670   1.652 -0.0780  2.5406  0.5482
16252TIP3   OH270246   0.198   1.438   2.635  0.3830  0.2005 -0.5996
16252TIP3    H170247   0.248   1.408   2.560 -1.4640 -3.5360 -0.5760
16252TIP3    H270248   0.107   1.443   2.604 -0.1244  0.6371  0.8522
16253TIP3   OH270249   1.973   2.317  11.954  0.1628 -0.3948 -0.5299
16253TIP3    H170250   1.896   2.266  11.928  0.0134  0.6640 -2.3855
16253TIP3    H270251   2.023   2.328  11.873  0.8074  1.3186  0.0523
16254TIP3   OH270252   5.976   5.058  12.814 -0.0892  0.1894 -0.5957
16254TIP3    H170253   6.005   5.148  12.797  0.9484 -0.3424 -1.8056
16254TIP3    H270254   5.885   5.056  12.787 -0.9945  1.5607  2.0272
16255TIP3   OH270255   6.664   4.486   1.682 -0.4334  0.1781 -0.0815
16255TIP3    H170256   6.685   4.573   1.647  0.3787  0.3097  0.7009
16255TIP3    H270257   6.580   4.463   1.641 -0.5004  1.1921 -0.5384
16256TIP3   OH270258   4.800   4.953  13.980 -0.0763  0.3730 -0.0023
16256TIP3    H170259   4.709   4.973  13.956  0.1729 -0.0613 -1.3734
16256TIP3    H270260   4.850   5.028  13.948  0.0951  0.4501  0.4425
16257TIP3   OH270261   1.046   1.301  15.806  0.0520 -0.4916 -0.1553
16257TIP3    H170262   0.995   1.354  15.745 -0.2741  0.6498  1.0598
16257TIP3    H270263   1.123   1.275  15.756  0.5203  1.6236 -0.6482
16258TIP3   OH270264   0.963   2.861  13.635  0.3928 -0.1112 -0.4061
16258TIP3    H170265   1.014   2.807  13.574 -1.2682 -0.1050 -1.8981
16258TIP3    H270266   0.974   2.950  13.602  0.0629 -0.0142 -0.2536
16259TIP3   OH270267   1.704   4.499  11.491  0.2265 -0.2110  0.2161
16259TIP3    H170268   1.625   4.448  11.471  1.9811 -2.5552 -1.2807
16259TIP3    H270269   1.733   4.533  11.406  1.7448 -0.8743  0.4389
16260TIP3   OH270270   2.061   5.083   1.111  0.6133 -0.3442 -0.0569
16260TIP3    H170271   2.048   5.010   1.050  1.3286 -0.1643 -0.4342
16260TIP3    H270272   2.154   5.103   1.105  0.4570  0.4912  0.1795
16261TIP3   OH270273   1.284   0.582   5.722  0.3113  0.1337 -0.5541
16261TIP3    H170274   1.189   0.581   5.709  0.3366  2.3583 -1.4079
16261TIP3    H270275   1.297   0.549   5.810 -1.3665  0.8635  0.0022
16262TIP3   OH270276   6.232   3.159   0.874 -0.0856 -0.3394  0.7028
16262TIP3    H170277   6.139   3.183   0.875  0.0052  0.0475  0.3136
16262TIP3    H270278   6.265   3.195   0.791  0.3062 -0.8729  0.6206
16263TIP3   OH270279   4.375   1.113  12.268 -0.1074  0.6122  0.1701
16263TIP3    H170280   4.300   1.171  12.258  1.3697  2.8286  0.9750
16263TIP3    H270281   4.374   1.088  12.361  0.2808  0.9126  0.2619
16264TIP3   OH270282   0.714   1.693  10.914  0.0950 -0.7321 -0.4646
16264TIP3    H170283   0.691   1.600  10.910  0.5767 -0.8147 -1.5184
16264TIP3    H270284   0.755   1.711  10.830  2.1552 -0.1184  0.6295
16265TIP3   OH270285   5.201   2.542  15.865 -0.1489  0.3218 -0.4853
16265TIP3    H170286   5.291   2.545  15.833  0.1085  1.0110  0.2762
16265TIP3    H270287   5.151   2.507  15.791  0.1702  3.3826 -2.3355
16266TIP3   OH270288   3.503   4.550  11.606  0.4600  0.2400  0.2452
16266TIP3    H170289   3.563   4.618  11.573  1.2988 -1.1063 -1.1578
16266TIP3    H270290   3.533   4.470  11.563 -1.9087 -0.6301  0.0921
16267TIP3   OH270291   1.890   1.044  14.834  0.5030  0.0839  0.3651
16267TIP3    H170292   1.882   1.041  14.930  0.2242  0.6323  0.3668
16267TIP3    H270293   1.814   0.994  14.803 -0.8772  2.0365  0.4239
16268TIP3   OH270294   6.348   6.232  17.158 -0.4786  0.0549  0.8790
16268TIP3    H170295   6.299   6.153  17.134  3.1578 -1.4865 -2.5229
16268TIP3    H270296   6.301   6.303  17.115 -2.2418 -0.5448  1.6696
16269TIP3   OH270297   4.861   0.655  14.766  0.0307 -0.5406  0.5462
16269TIP3    H170298   4.799   0.661  14.838 -2.7039  0.2451 -1.6716
16269TIP3    H270299   4.835   0.725  14.706  1.3550 -1.8880 -1.7736
16270TIP3   OH270300   3.492   6.418   0.186 -0.5427  0.1152  0.0788
16270TIP3    H170301   3.470   6.458   0.102 -0.6217 -0.9990 -0.4557
16270TIP3    H270302   3.408   6.406   0.231 -0.8733 -2.0025 -0.9740
16271TIP3   OH270303   5.792   5.659  12.562 -0.0222  0.4657 -0.1675
16271TIP3    H170304   5.744   5.583  12.594 -0.4228  0.7164 -0.1645
16271TIP3    H270305   5.791   5.721  12.635  1.4134 -0.0112  0.2956
16272TIP3   OH270306   0.476   2.022   2.651  0.2250  0.2643 -0.2709
16272TIP3    H170307   0.412   1.951   2.658  0.0155  0.4103 -0.6651
16272TIP3    H270308   0.431   2.099   2.686 -0.4335  0.7465 -2.0505
16273TIP3   OH270309   5.258   4.658  14.602 -0.1376 -0.1906 -0.7216
16273TIP3    H170310   5.244   4.751  14.619 -2.1831 -0.6528  0.5203
16273TIP3    H270311   5.281   4.621  14.688 -0.6085 -1.0173 -0.9367
16274TIP3   OH270312   2.721   4.780  13.353 -0.0147 -0.7948 -0.0312
16274TIP3    H170313   2.811   4.811  13.344 -0.1718 -0.2768  0.1452
16274TIP3    H270314   2.669   4.842  13.303 -0.2670 -1.1271 -0.1789
16275TIP3   OH270315   4.531   5.493   3.815 -0.2294 -0.1577  0.9296
16275TIP3    H170316   4.468   5.523   3.749 -0.4553  0.1454  1.2847
16275TIP3    H270317   4.577   5.420   3.772 -0.7380 -0.3042  0.6261
16276TIP3   OH270318   3.191   3.215  12.228  0.2652  0.2486 -0.4110
16276TIP3    H170319   3.168   3.130  12.191  0.9810  0.5907 -1.7054
16276TIP3    H270320   3.212   3.197  12.319  0.3376 -0.9487 -0.6530
16277TIP3   OH270321   4.900   6.329   2.730  0.0068  0.0482 -0.0484
16277TIP3    H170322   4.819   6.374   2.754 -1.1777 -1.8334 -0.3252
16277TIP3    H270323   4.967   6.397   2.732 -1.3860  1.4564  1.1898
16278TIP3   OH270324   0.765   3.522  10.928 -0.9147 -0.2048 -0.0617
16278TIP3    H170325   0.766   3.524  10.833 -1.1719 -0.4220 -0.0689
16278TIP3    H270326   0.813   3.601  10.954 -0.9044 -0.1096 -0.3694
16279TIP3   OH270327   6.315   3.416  12.944  0.1101 -0.4832 -0.1012
16279TIP3    H170328   6.259   3.473  12.996 -1.1082 -1.2961 -0.4832
16279TIP3    H270329   6.335   3.468  12.866  0.0947 -0.1022  0.1443
16280TIP3   OH270330   5.615   1.478   2.712  0.2562  0.6545  1.0833
16280TIP3    H170331   5.594   1.564   2.674 -1.1302  1.2399  3.0151
16280TIP3    H270332   5.710   1.482   2.729  0.4033  1.3747  0.1663
16281TIP3   OH270333   3.498   0.723  13.109  0.6607  0.2056 -0.5967
16281TIP3    H170334   3.545   0.641  13.095 -0.9529 -0.9184  0.2170
16281TIP3    H270335   3.559   0.791  13.081  2.4940 -1.1936 -0.1871
16282TIP3   OH270336   5.407   2.155   2.370  0.3964  0.2872 -0.3828
16282TIP3    H170337   5.447   2.081   2.324  0.1906 -0.0286 -0.0610
16282TIP3    H270338   5.402   2.127   2.462 -0.9855  0.1337 -0.4855
16283TIP3   OH270339   2.671   4.126   3.629  0.4387 -0.2199  0.2548
16283TIP3    H170340   2.714   4.167   3.554  0.2923 -0.5385 -0.0091
16283TIP3    H270341   2.699   4.035   3.626  2.1294  0.2006  1.8400
16284TIP3   OH270342   5.526   0.542   5.305 -0.0113  0.6253 -0.0199
16284TIP3    H170343   5.523   0.471   5.370  0.9699  0.9364  0.3805
16284TIP3    H270344   5.434   0.563   5.290 -0.2648  0.8610  1.6337
16285TIP3   OH270345   1.861   2.430   4.662 -0.2182  0.4416  0.2429
16285TIP3    H170346   1.930   2.472   4.713 -1.0232  0.4067  1.3975
16285TIP3    H270347   1.793   2.497   4.654  0.0704  0.6002 -1.2002
16286TIP3   OH270348   6.049   0.689  14.458 -0.1730 -0.1496 -0.0136
16286TIP3    H170349   6.118   0.622  14.457  0.4448  0.4529 -1.2613
16286TIP3    H270350   6.082   0.757  14.399 -1.0619  0.9738  0.7506
16287TIP3   OH270351   6.462   2.867  12.512  0.5797  0.8363  0.0593
16287TIP3    H170352   6.498   2.785  12.546  0.3489  0.3499 -0.8177
16287TIP3    H270353   6.369   2.864  12.532  0.1325 -0.1726 -1.8599
16288TIP3   OH270354   5.379   2.340   2.881  0.0335 -0.6483  0.3258
16288TIP3    H170355   5.316   2.386   2.936  0.1997  3.2879 -2.3255
16288TIP3    H270356   5.325   2.294   2.816 -0.2044  0.8046 -0.5457
16289TIP3   OH270357   3.760   1.876   1.228  0.0742  0.2078  0.1997
16289TIP3    H170358   3.745   1.955   1.280  1.1613  0.7422 -0.2781
16289TIP3    H270359   3.783   1.809   1.292 -1.1712  0.1670  0.6392
16290TIP3   OH270360   4.451   3.146   3.157  0.2353  0.4949 -0.1096
16290TIP3    H170361   4.377   3.096   3.122  1.5435 -0.6661 -1.3247
16290TIP3    H270362   4.426   3.237   3.143 -1.1329  0.1564 -0.1054
16291TIP3   OH270363   2.897   1.532  16.007 -0.4047 -0.6753  0.2836
16291TIP3    H170364   2.864   1.515  15.919  1.3649 -2.4019 -0.1100
16291TIP3    H270365   2.942   1.616  15.999  1.1789 -1.5672 -0.9654
16292TIP3   OH270366   3.793   3.146  15.712 -0.6055 -0.1424  0.3396
16292TIP3    H170367   3.764   3.166  15.623 -2.4897  1.0341  1.1407
16292TIP3    H270368   3.783   3.052  15.720  0.6831 -0.4306 -1.0179
16293TIP3   OH270369   6.291   6.493  15.301  0.7577  0.3799 -0.2369
16293TIP3    H170370   6.237   6.425  15.259 -0.5778  1.1876  0.0966
16293TIP3    H270371   6.234   6.570  15.302  1.4579  0.9067  1.3131
16294TIP3   OH270372   4.232   6.276  12.383  0.1810 -0.0794 -0.3404
16294TIP3    H170373   4.317   6.231  12.383 -0.0095 -0.4404 -0.5606
16294TIP3    H270374   4.168   6.206  12.392  0.0046  0.3745  4.3540
16295TIP3   OH270375   2.024   5.466  15.218 -0.5138 -0.0778  0.4514
16295TIP3    H170376   2.068   5.549  15.234 -3.6287  2.0691 -1.1932
16295TIP3    H270377   1.984   5.443  15.301  0.3795  0.0018  0.9182
16296TIP3   OH270378   2.762   5.159  13.811 -0.6131 -0.2378 -0.0142
16296TIP3    H170379   2.716   5.085  13.851 -0.6013  0.4200  1.2493
16296TIP3    H270380   2.854   5.145  13.833 -0.8462  1.3805  2.3897
16297TIP3   OH270381   0.260   0.055  11.995  0.1238  0.4871  0.1296
16297TIP3    H170382   0.262  -0.030  11.952 -0.7002  0.9731 -0.9025
16297TIP3    H270383   0.292   0.038  12.084 -0.0930 -0.9034 -0.0429
16298TIP3   OH270384   2.383   1.218  15.798 -0.5716  0.6269 -0.0682
16298TIP3    H170385   2.301   1.172  15.816  1.6794 -2.9505  2.6726
16298TIP3    H270386   2.406   1.192  15.709 -0.8951 -1.1514  0.3253
16299TIP3   OH270387   2.077   1.808   1.298  0.0914  0.1817  0.0130
16299TIP3    H170388   2.072   1.713   1.291 -2.9168  0.2063  0.5463
16299TIP3    H270389   2.025   1.840   1.224  0.9401  1.4560 -0.0795
16300TIP3   OH270390   5.110   5.433  14.051  0.7293 -0.4723  0.1420
16300TIP3    H170391   5.127   5.353  14.100 -1.1279 -0.5044  0.7983
16300TIP3    H270392   5.140   5.503  14.110  0.2530 -0.5902  0.5270
16301TIP3   OH270393   6.698   6.650  14.031  0.7223 -0.0727 -0.3955
16301TIP3    H170394   6.759   6.720  14.009  0.4374  0.2089 -0.3094
16301TIP3    H270395   6.748   6.590  14.085  0.0051  2.0105  2.8897
16302TIP3   OH270396   5.843   6.320   2.460 -0.1714  0.2935 -0.1767
16302TIP3    H170397   5.923   6.365   2.434 -0.2697  0.2454 -0.5712
16302TIP3    H270398   5.839   6.244   2.402 -0.3903  0.1808 -0.0141
16303TIP3   OH270399   2.273   4.084  16.372 -0.0470 -0.2216  0.1219
16303TIP3    H170400   2.266   4.147  16.300  1.7751 -2.0038 -1.7765
16303TIP3    H270401   2.367   4.069  16.381 -0.3587 -1.4503  1.6121
16304TIP3   OH270402   1.455   3.585  10.565 -0.0680 -0.1717  0.2166
16304TIP3    H170403   1.409   3.665  10.541 -0.8076 -0.7290 -0.2818
16304TIP3    H270404   1.406   3.515  10.522  0.3747 -0.9284  0.9034
16305TIP3   OH270405   3.443   5.702   1.221 -0.1772 -0.0290  0.5491
16305TIP3    H170406   3.477   5.764   1.157  0.3234 -1.8405 -1.0369
16305TIP3    H270407   3.507   5.631   1.221 -2.3330 -2.1075 -0.2507
16306TIP3   OH270408   3.617   4.865   4.823 -0.4323 -0.4100  0.1482
16306TIP3    H170409   3.645   4.885   4.912  0.7948 -1.2251 -0.0303
16306TIP3    H270410   3.557   4.936   4.800 -0.4652  0.0227  1.4730
16307TIP3   OH270411   3.355   2.322  13.426 -0.0098 -0.0379  0.2949
16307TIP3    H170412   3.401   2.350  13.505  1.6693 -3.3288  0.6763
16307TIP3    H270413   3.266   2.355  13.437  0.2756  0.0215  3.3892
16308TIP3   OH270414   3.518   4.756   0.062 -1.0651 -0.3644 -0.2042
16308TIP3    H170415   3.515   4.849   0.037 -0.1426 -0.7727 -2.0339
16308TIP3    H270416   3.599   4.747   0.111 -0.0350 -0.5606 -1.8618
16309TIP3   OH270417   2.685   1.602  13.588 -0.0390 -0.5935 -0.1200
16309TIP3    H170418   2.733   1.603  13.671  0.0286  0.3603 -0.1603
16309TIP3    H270419   2.593   1.594  13.613  0.0157 -0.7752  0.0244
16310TIP3   OH270420   1.849   4.679   2.944  0.7015 -0.1958  0.7340
16310TIP3    H170421   1.817   4.742   2.879  2.2799 -0.4217 -0.3311
16310TIP3    H270422   1.844   4.726   3.027  0.9285  0.9951  0.0999
16311TIP3   OH270423   5.602   1.761  13.317  0.2987 -0.2096  0.4595
16311TIP3    H170424   5.574   1.674  13.290  1.8270 -0.6417  0.1625
16311TIP3    H270425   5.546   1.783  13.392 -0.4231 -1.2312  0.2285
16312TIP3   OH270426   2.691   1.134   2.445 -0.1428  0.8436  0.2448
16312TIP3    H170427   2.651   1.210   2.402 -0.6850  0.5512  0.2230
16312TIP3    H270428   2.680   1.062   2.382  1.1826  0.9423 -0.1246
16313TIP3   OH270429   5.050   0.005   5.511 -0.1849  0.3510 -0.3960
16313TIP3    H170430   5.110  -0.069   5.499 -0.3277  0.3718 -1.3481
16313TIP3    H270431   5.088   0.076   5.460 -0.7724  0.4971 -0.6516
16314TIP3   OH270432   6.001   4.798  13.141  0.5532 -0.0984  0.4859
16314TIP3    H170433   6.012   4.883  13.184 -1.2903  0.3040  0.2418
16314TIP3    H270434   5.964   4.741  13.209  1.6141 -0.6990  0.5990
16315TIP3   OH270435   4.107   3.708  13.790  0.8378 -0.2272  1.1014
16315TIP3    H170436   4.178   3.714  13.854  1.4373  0.6802  0.3906
16315TIP3    H270437   4.054   3.634  13.819  2.2550 -1.1357  1.4889
16316TIP3   OH270438   2.784   0.174   4.862 -0.0738 -0.1746  0.3217
16316TIP3    H170439   2.821   0.262   4.861 -0.2412 -0.0977 -0.4874
16316TIP3    H270440   2.815   0.134   4.943  2.2805 -0.3249 -0.5803
16317TIP3   OH270441   1.347   3.810   0.872  0.0229  0.0697 -0.1266
16317TIP3    H170442   1.283   3.758   0.920 -1.1771  0.0498 -1.6701
16317TIP3    H270443   1.350   3.770   0.785  2.3881 -0.1184 -0.0443
16318TIP3   OH270444   4.685   1.428   0.013 -0.7688  0.2187  0.0476
16318TIP3    H170445   4.651   1.353  -0.037 -1.2403 -0.8820  1.9419
16318TIP3    H270446   4.610   1.486   0.023 -1.1348 -0.3684  0.8807
16319TIP3   OH270447   1.558   3.545   5.582 -0.5715 -0.0686 -0.0171
16319TIP3    H170448   1.593   3.492   5.655  0.1836  1.0130  0.4310
16319TIP3    H270449   1.533   3.628   5.623  0.1835  0.6800 -1.0339
16320TIP3   OH270450   0.786   1.960  16.430  0.0871 -0.5161 -0.3670
16320TIP3    H170451   0.802   1.941  16.523 -1.9852 -0.4735  0.0332
16320TIP3    H270452   0.871   1.947  16.388  1.6289  1.5812  1.8374
16321TIP3   OH270453   4.033   4.174  16.916  0.0001 -0.0457 -0.1972
16321TIP3    H170454   3.959   4.200  16.972 -0.7258 -1.6639 -0.3421
16321TIP3    H270455   4.035   4.079  16.922  1.8093 -0.0658 -0.5834
16322TIP3   OH270456   5.881   3.290   0.490 -0.0225  0.3334 -0.8862
16322TIP3    H170457   5.802   3.243   0.464  0.5055  0.1760 -2.2534
16322TIP3    H270458   5.886   3.364   0.430 -1.6868  3.1772  2.1367
16323TIP3   OH270459   0.818   3.949  15.041  0.6360 -0.3972  0.0067
16323TIP3    H170460   0.807   4.003  15.119 -0.1247 -0.4524 -0.0559
16323TIP3    H270461   0.797   3.860  15.071 -0.7034 -0.2644 -0.4987
16324TIP3   OH270462   1.714   1.565   3.063  0.1710 -0.1399  0.0927
16324TIP3    H170463   1.622   1.549   3.084  0.1491  1.3328  1.2114
16324TIP3    H270464   1.712   1.632   2.995  0.4182 -0.1732  0.0511
16325TIP3   OH270465   3.641   6.785  13.209  0.4108 -0.1638 -0.1044
16325TIP3    H170466   3.619   6.783  13.302 -0.9860  0.0741 -0.4126
16325TIP3    H270467   3.593   6.711  13.171 -1.1313  1.2506 -1.0510
16326TIP3   OH270468   4.448   6.586   2.589 -0.3255  0.1456  0.1668
16326TIP3    H170469   4.453   6.633   2.672 -0.1462 -0.3492  0.4416
16326TIP3    H270470   4.527   6.610   2.542  0.8092 -1.4484  1.1599
16327TIP3   OH270471   2.274   6.370  15.635  0.2021  0.0307 -0.5530
16327TIP3    H170472   2.283   6.437  15.703 -1.5176  0.0408 -0.3062
16327TIP3    H270473   2.346   6.308  15.654 -0.4129 -0.1433  1.4997
16328TIP3   OH270474   4.321   1.042  14.676  0.2581  0.2856  0.3505
16328TIP3    H170475   4.416   1.036  14.692 -0.0554 -0.2143  2.2696
16328TIP3    H270476   4.283   0.975  14.732 -1.1495 -0.8419 -1.8344
16329TIP3   OH270477   2.437   2.846  15.197  0.0876  0.4651  0.5545
16329TIP3    H170478   2.373   2.851  15.126  0.4258 -0.6731  0.1588
16329TIP3    H270479   2.386   2.859  15.277 -0.1298  3.0158  0.0844
16330TIP3   OH270480   1.889   6.457  15.383  0.0306 -0.0722 -0.6899
16330TIP3    H170481   1.955   6.464  15.452  0.0305  1.0041 -0.7941
16330TIP3    H270482   1.933   6.412  15.311  0.8454  1.1546 -0.9814
16331TIP3   OH270483   5.775   3.925   2.308 -0.0501 -0.2161  0.1131
16331TIP3    H170484   5.784   3.911   2.402  0.1318  2.9996  0.6776
16331TIP3    H270485   5.683   3.905   2.290 -0.6276  1.1164  1.4211
16332TIP3   OH270486   1.833   5.076   6.270 -0.4397 -0.3265  0.2567
16332TIP3    H170487   1.835   5.169   6.290 -2.8136 -0.0903 -0.2767
16332TIP3    H270488   1.756   5.043   6.317  1.1321 -2.3580  1.6174
16333TIP3   OH270489   6.397   3.118   6.826  0.4157  1.2811 -0.3228
16333TIP3    H170490   6.336   3.191   6.828  0.3522  1.2201 -0.0741
16333TIP3    H270491   6.453   3.137   6.750  0.3639  1.5568 -0.2950
16334TIP3   OH270492   5.276   4.934   3.426  0.6276  0.0302  0.5487
16334TIP3    H170493   5.297   4.987   3.504 -0.0661 -0.5446  1.1406
16334TIP3    H270494   5.195   4.889   3.449 -0.8227  1.5151 -1.3187
16335TIP3   OH270495   4.887   5.884   1.971 -0.1103 -0.0524 -0.1145
16335TIP3    H170496   4.942   5.939   1.915  0.1122 -1.1578 -1.0178
16335TIP3    H270497   4.949   5.826   2.015 -0.3949  0.0032  0.3705
16336TIP3   OH270498   0.615   6.666  11.278  0.1130 -0.2040 -0.1837
16336TIP3    H170499   0.675   6.677  11.352 -0.3934 -2.0827  0.5750
16336TIP3    H270500   0.664   6.614  11.214  0.0705  0.2013 -0.5452
16337TIP3   OH270501   2.643   2.456  11.869  0.2288 -0.3832 -0.2695
16337TIP3    H170502   2.724   2.418  11.902 -1.4042 -4.5113 -0.5306
16337TIP3    H270503   2.661   2.474  11.776  1.0756 -0.4095 -0.1209
16338TIP3   OH270504   5.376   2.852   0.985  0.1925  0.0071 -0.7606
16338TIP3    H170505   5.365   2.836   0.892  1.0536  0.1698 -0.9003
16338TIP3    H270506   5.343   2.773   1.027  0.4630 -0.3659 -1.2411
16339TIP3   OH270507   1.263   2.697   0.498 -1.0069  0.8519 -0.3029
16339TIP3    H170508   1.234   2.628   0.438  0.2590  0.4294 -0.4558
16339TIP3    H270509   1.355   2.678   0.514 -0.8329  2.0706  0.2707
16340TIP3   OH270510   3.196   6.104   0.120  0.3563 -0.0189 -0.7765
16340TIP3    H170511   3.125   6.066   0.069  1.6075 -1.0630 -1.8045
16340TIP3    H270512   3.276   6.080   0.073  1.3750  1.7608 -0.0708
16341TIP3   OH270513   5.087   6.427  12.255 -0.1690 -0.5303  0.2688
16341TIP3    H170514   5.168   6.460  12.215  1.0834 -3.8849 -0.3233
16341TIP3    H270515   5.032   6.400  12.181 -1.4766  0.8574  0.6962
16342TIP3   OH270516   3.760   2.408   3.150 -0.6665 -0.0893  0.0639
16342TIP3    H170517   3.736   2.318   3.174 -0.6903  0.6290  3.2690
16342TIP3    H270518   3.681   2.446   3.112 -1.7109 -0.5226  1.7083
16343TIP3   OH270519   2.442   3.342   5.836  0.0279  0.1689 -0.1469
16343TIP3    H170520   2.487   3.403   5.776 -0.6505  1.2377  0.4038
16343TIP3    H270521   2.441   3.259   5.789 -0.8243  1.0641 -1.8065
16344TIP3   OH270522   5.285   1.223   0.209  0.7203 -0.0284 -0.3229
16344TIP3    H170523   5.279   1.156   0.277  1.9566 -0.7435 -0.8702
16344TIP3    H270524   5.373   1.211   0.172  0.3202  0.7662 -1.5910
16345TIP3   OH270525   3.225   0.759  13.586 -0.2851 -0.6083  0.4300
16345TIP3    H170526   3.244   0.849  13.560  0.1199 -0.4022  1.3927
16345TIP3    H270527   3.289   0.707  13.536  1.7205 -0.0652  2.2637
16346TIP3   OH270528   6.158   4.776   2.681 -0.7999  0.4036 -0.0229
16346TIP3    H170529   6.091   4.814   2.737 -0.0305 -1.0594  2.0255
16346TIP3    H270530   6.186   4.848   2.624 -1.8885  1.8820  1.2290
16347TIP3   OH270531   2.055   0.282   1.151  0.1404  0.1395 -0.1682
16347TIP3    H170532   2.024   0.330   1.228  0.1747 -0.5650  0.2944
16347TIP3    H270533   2.139   0.245   1.178 -0.8236 -1.9206  0.2317
16348TIP3   OH270534   3.110   6.287  12.547  0.4104  0.2937 -0.0794
16348TIP3    H170535   3.171   6.360  12.555 -0.8247  1.2073  2.1512
16348TIP3    H270536   3.099   6.256  12.637 -0.9313 -1.0864 -0.6829
16349TIP3   OH270537   2.568   1.699  12.777 -0.5659 -0.2166  0.1108
16349TIP3    H170538   2.494   1.675  12.722 -1.7995  0.6568  1.3287
16349TIP3    H270539   2.559   1.644  12.854  0.1287 -0.1850  0.2182
16350TIP3   OH270540   5.456   2.267   4.937 -0.1924 -0.0783 -0.1126
16350TIP3    H170541   5.399   2.267   4.859  0.8065  0.8387 -0.8778
16350TIP3    H270542   5.458   2.358   4.965 -1.0324 -0.4970  1.3970
16351TIP3   OH270543   3.347   4.427   0.147 -0.6799  0.0823  0.3170
16351TIP3    H170544   3.369   4.474   0.066  0.5420  1.3273  1.3305
16351TIP3    H270545   3.430   4.394   0.180 -1.1300 -0.2318  1.1805
16352TIP3   OH270546   3.905   3.556  14.142  0.2630 -0.1523 -0.3056
16352TIP3    H170547   3.878   3.588  14.228  0.2431  0.7975 -0.6539
16352TIP3    H270548   3.844   3.484  14.123  0.6019 -0.7311  0.6926
16353TIP3   OH270549   6.726   0.713   0.084 -0.5280 -0.0355  0.3793
16353TIP3    H170550   6.805   0.669   0.118  0.5813  1.4078 -0.2209
16353TIP3    H270551   6.655   0.682   0.140  0.4988 -1.2394  1.0536
16354TIP3   OH270552   4.276   4.278   0.149 -0.3492  0.4264  0.1823
16354TIP3    H170553   4.273   4.259   0.243  1.3505 -1.6722 -0.1171
16354TIP3    H270554   4.233   4.203   0.108  1.7300 -0.2953 -0.8215
16355TIP3   OH270555   1.095   1.542  14.238 -0.3615  0.0369 -0.6209
16355TIP3    H170556   1.182   1.509  14.219 -1.0093 -0.9148 -2.1152
16355TIP3    H270557   1.092   1.629  14.198 -1.2473 -1.3913 -4.0472
16356TIP3   OH270558   3.781   1.596   4.972  0.3983 -0.1079 -0.3025
16356TIP3    H170559   3.798   1.518   5.026 -0.8514  0.4635  0.9915
16356TIP3    H270560   3.731   1.564   4.897  0.8470 -0.7041 -0.3513
16357TIP3   OH270561   2.511   5.801  15.820  0.1508  0.4885  0.3355
16357TIP3    H170562   2.472   5.879  15.858  3.1702  0.5049  3.9465
16357TIP3    H270563   2.463   5.728  15.859 -0.1603  0.4873 -0.0363
16358TIP3   OH270564   4.659   3.065   1.398 -0.4922 -0.3301 -0.3505
16358TIP3    H170565   4.653   2.973   1.424 -0.2961 -0.0591  0.6626
16358TIP3    H270566   4.751   3.088   1.411 -1.1069  0.9158  2.6456
16359TIP3   OH270567   4.031   3.590   2.157 -0.7229  0.1626  0.4669
16359TIP3    H170568   3.947   3.633   2.139 -0.0497  0.9685 -0.8782
16359TIP3    H270569   4.006   3.501   2.181 -1.9444  0.0260 -1.0777
16360TIP3   OH270570   4.844   5.926  14.050 -0.0537 -0.1780 -0.6986
16360TIP3    H170571   4.816   5.838  14.026 -0.3227 -0.2828 -0.0120
16360TIP3    H270572   4.889   5.959  13.972 -0.4846 -0.6921 -1.1694
16361TIP3   OH270573   4.241   4.042   4.663  0.0813  0.6007 -0.2538
16361TIP3    H170574   4.196   3.973   4.614 -1.0659  1.0382  0.1482
16361TIP3    H270575   4.265   4.000   4.746 -1.2247  0.8373  0.2739
16362TIP3   OH270576   6.724   3.443   5.232  0.3453  0.4249  0.6199
16362TIP3    H170577   6.730   3.448   5.136 -1.2556  1.1598  0.5329
16362TIP3    H270578   6.807   3.403   5.259 -0.3157 -2.6098 -1.2877
16363TIP3   OH270579   3.961   2.120  16.721  0.0906  0.7027 -0.6227
16363TIP3    H170580   4.007   2.203  16.710  0.7115  0.5365  0.5421
16363TIP3    H270581   3.872   2.145  16.746  0.1195  1.0122 -0.8246
16364TIP3   OH270582   3.629   2.265  10.598  1.0023  0.1786  0.0829
16364TIP3    H170583   3.685   2.188  10.585  1.6729  0.8747 -1.4267
16364TIP3    H270584   3.688   2.339  10.585  0.2220  0.9651  0.8830
16365TIP3   OH270585   1.568   1.935   2.800  0.4506  0.0188 -0.5936
16365TIP3    H170586   1.601   1.845   2.799  0.5584  0.0346  0.4641
16365TIP3    H270587   1.610   1.975   2.876 -0.6083  0.5843 -0.2934
16366TIP3   OH270588   2.205   4.800   0.349 -0.0578 -0.0310 -0.6263
16366TIP3    H170589   2.203   4.746   0.271  0.2922  1.4844 -1.7409
16366TIP3    H270590   2.287   4.775   0.393 -0.5547 -1.3175 -0.4011
16367TIP3   OH270591   6.572   1.278   4.192 -0.6664 -0.7214 -0.0455
16367TIP3    H170592   6.536   1.354   4.145  0.5502 -0.2665 -0.2857
16367TIP3    H270593   6.666   1.296   4.198 -0.6048 -1.3879  1.4477
16368TIP3   OH270594   3.443   3.927   2.479 -0.0287 -0.5572 -0.3392
16368TIP3    H170595   3.404   4.001   2.526  0.7358 -0.6332  0.4502
16368TIP3    H270596   3.536   3.949   2.471 -0.1912 -0.3688 -2.2052
16369TIP3   OH270597   4.363   2.851  13.007 -0.1916 -0.4752  0.3379
16369TIP3    H170598   4.412   2.772  12.985  0.9902  0.1451  0.6529
16369TIP3    H270599   4.367   2.904  12.927  1.2626  0.3523  0.9076
16370TIP3   OH270600   6.280   1.491   6.751  0.8884 -0.1212  0.3451
16370TIP3    H170601   6.199   1.522   6.791 -0.2233 -2.3784  0.0343
16370TIP3    H270602   6.271   1.514   6.659  0.8793  0.1506  0.4125
16371TIP3   OH270603   1.319   3.492   1.890  0.2878 -0.2495  0.5355
16371TIP3    H170604   1.407   3.461   1.868  1.4626 -0.8658  5.1126
16371TIP3    H270605   1.266   3.413   1.898 -0.9322  0.1224 -2.3441
16372TIP3   OH270606   3.044   2.756  13.868  1.2923  0.3139 -0.5680
16372TIP3    H170607   2.966   2.709  13.899  2.0232 -1.0634 -0.7492
16372TIP3    H270608   3.010   2.841  13.841  0.2610  0.7961  1.8816
16373TIP3   OH270609   0.274   5.892  16.111 -0.1465 -0.5220 -0.4435
16373TIP3    H170610   0.311   5.805  16.094 -0.0328 -0.8056  1.1056
16373TIP3    H270611   0.179   5.877  16.112 -0.1015 -1.0917  1.7901
16374TIP3   OH270612   5.061   0.436   0.494  0.0216  0.1892  0.7657
16374TIP3    H170613   4.978   0.394   0.470  0.1771 -0.2423  0.9749
16374TIP3    H270614   5.081   0.493   0.420 -1.3492  1.6339  1.4592
16375TIP3   OH270615   5.848   4.376   6.724 -0.5232  0.5153  0.2676
16375TIP3    H170616   5.902   4.452   6.704  0.5278  0.5167  2.7606
16375TIP3    H270617   5.891   4.304   6.678  0.6650  0.8133  0.8763
16376TIP3   OH270618   6.464   2.860  11.729 -0.4288 -0.0587 -0.0040
16376TIP3    H170619   6.511   2.892  11.652 -1.7918 -1.4303 -1.4775
16376TIP3    H270620   6.472   2.931  11.793  2.1060  0.4678 -0.7952
16377TIP3   OH270621   5.553   6.465   4.130 -0.6418 -0.4728  0.0300
16377TIP3    H170622   5.458   6.478   4.128 -0.6415 -0.5184 -0.3108
16377TIP3    H270623   5.573   6.419   4.048 -0.1103  1.0021 -0.7053
16378TIP3   OH270624   0.028   2.301  16.522 -0.4970  0.1192 -0.1930
16378TIP3    H170625  -0.044   2.320  16.462 -0.3951 -0.4840 -0.5193
16378TIP3    H270626   0.104   2.291  16.464 -0.8850 -3.1829 -0.2951
16379TIP3   OH270627   4.682   5.229  16.334 -0.2006  0.5124  0.0164
16379TIP3    H170628   4.638   5.192  16.410  0.6286 -0.9813 -0.1948
16379TIP3    H270629   4.768   5.255  16.367  0.0226  0.2049 -0.3151
16380TIP3   OH270630   2.153   1.453  11.189 -0.0543  0.4011  0.5648
16380TIP3    H170631   2.169   1.449  11.284 -0.2913  0.9768  0.6335
16380TIP3    H270632   2.174   1.365  11.157  0.7254  0.4095  1.0436
16381TIP3   OH270633   0.322   3.361   0.998  0.2140 -0.3908 -0.4943
16381TIP3    H170634   0.265   3.312   1.057  0.2663  2.1340  1.8524
16381TIP3    H270635   0.262   3.415   0.946  0.2928  0.5825  0.3806
16382TIP3   OH270636   4.633   2.573  16.576  0.0480  0.0709 -0.3028
16382TIP3    H170637   4.625   2.510  16.647  0.4493 -0.7055 -0.9208
16382TIP3    H270638   4.726   2.597  16.575  0.1718 -0.3876 -0.9274
16383TIP3   OH270639   1.963   3.687   0.427  0.2877 -0.3688 -0.2583
16383TIP3    H170640   1.969   3.780   0.448  2.0727 -0.4519 -0.2465
16383TIP3    H270641   2.035   3.647   0.474  0.4359 -1.5449 -1.4198
16384TIP3   OH270642   0.226   3.058  15.072  0.0963 -0.0433  0.1070
16384TIP3    H170643   0.258   3.081  14.985 -2.1721  1.3440 -0.4453
16384TIP3    H270644   0.180   2.975  15.059  0.4755 -0.2689  0.1818
16385TIP3   OH270645   5.973   2.998  13.707  0.1106 -0.3267 -0.1488
16385TIP3    H170646   6.048   3.024  13.654 -1.0900 -1.9420 -2.8323
16385TIP3    H270647   5.903   3.056  13.679 -0.4006 -0.8128  0.1100
16386TIP3   OH270648   1.047   0.580  15.812 -0.0110  0.8549 -0.3678
16386TIP3    H170649   1.048   0.640  15.886  0.8379 -1.0070  1.2259
16386TIP3    H270650   1.055   0.493  15.851 -1.9196 -0.4049 -2.5009
16387TIP3   OH270651   3.871   0.295  13.454 -0.6279  0.0371 -0.0946
16387TIP3    H170652   3.961   0.329  13.456  0.0473 -1.5387 -1.5985
16387TIP3    H270653   3.816   0.374  13.458  0.7338  0.9737  2.3076
16388TIP3   OH270654   1.612   5.759   1.764  0.0262  0.0199  0.2811
16388TIP3    H170655   1.656   5.709   1.695 -1.0598 -0.4378 -0.1032
16388TIP3    H270656   1.574   5.834   1.718 -0.8477 -0.3785  0.3368
16389TIP3   OH270657   5.975   6.546  11.245 -0.5890  0.1351  0.0744
16389TIP3    H170658   6.052   6.599  11.222 -0.0442 -0.2093  1.0667
16389TIP3    H270659   5.974   6.545  11.341 -1.9636  0.3141  0.0843
16390TIP3   OH270660   1.297   4.709   5.276 -0.2878  0.2754  0.4246
16390TIP3    H170661   1.266   4.717   5.367  0.2723 -1.2823  0.7813
16390TIP3    H270662   1.225   4.668   5.230 -1.0956  2.2470 -0.1899
16391TIP3   OH270663   5.330   5.511   2.025 -0.1475 -0.5406 -0.0690
16391TIP3    H170664   5.348   5.425   1.987  1.1735 -0.2247 -0.1963
16391TIP3    H270665   5.335   5.498   2.119  0.2045 -0.5687 -0.0923
16392TIP3   OH270666   0.564   6.265  12.908  0.5096  0.3738  0.4713
16392TIP3    H170667   0.470   6.244  12.912  0.6326 -0.2815  0.1693
16392TIP3    H270668   0.599   6.203  12.844  1.1446  0.6508  0.5415
16393TIP3   OH270669   1.583   1.782  12.706  0.2018 -0.7105  0.5497
16393TIP3    H170670   1.564   1.754  12.616  1.3536  0.8378 -0.2044
16393TIP3    H270671   1.496   1.795  12.745 -0.3138 -1.5638 -0.2538
16394TIP3   OH270672   4.195   4.957   2.251  0.0694 -0.4085  0.5715
16394TIP3    H170673   4.234   5.010   2.321 -0.4885  0.9998 -0.1558
16394TIP3    H270674   4.251   4.974   2.175 -1.1269  0.5532 -0.1247
16395TIP3   OH270675   0.025   2.444  12.599 -0.3983  0.3458 -0.0408
16395TIP3    H170676  -0.007   2.362  12.563 -0.3796  0.3734 -0.1194
16395TIP3    H270677   0.011   2.435  12.693  1.4094 -0.5367  0.1723
16396TIP3   OH270678   5.623   0.070   3.756 -0.3008 -0.6803 -0.3999
16396TIP3    H170679   5.559   0.040   3.691 -1.3410 -3.1049  1.5644
16396TIP3    H270680   5.578   0.058   3.840  1.3114  1.4734  0.8762
16397TIP3   OH270681   1.913   0.278   2.691 -0.5228  0.0853  0.0202
16397TIP3    H170682   1.890   0.292   2.783  0.8762  1.7457  0.1664
16397TIP3    H270683   1.929   0.366   2.657  2.5629 -0.6946 -0.8228
16398TIP3   OH270684   5.046   5.100   2.332  0.3735 -0.0437 -0.0493
16398TIP3    H170685   5.056   5.159   2.406  0.7049 -0.0019 -0.1286
16398TIP3    H270686   4.987   5.031   2.364 -0.6672  0.7526 -0.2111
16399TIP3   OH270687   2.633   3.650   1.693  0.4471  0.3546 -0.1971
16399TIP3    H170688   2.660   3.599   1.770 -0.3864 -0.7686 -0.6261
16399TIP3    H270689   2.699   3.629   1.626  0.1838 -0.0513 -0.3298
16400TIP3   OH270690   3.591   0.665   0.517  0.2797  0.0088 -0.6928
16400TIP3    H170691   3.551   0.656   0.431 -0.0253  0.2857 -0.5816
16400TIP3    H270692   3.628   0.753   0.518  0.1059  0.0817 -0.4690
16401TIP3   OH270693   1.902   6.432   1.406  0.2876 -0.6902  0.3547
16401TIP3    H170694   1.977   6.488   1.424  0.6099 -0.4950 -1.4574
16401TIP3    H270695   1.846   6.484   1.348 -1.1495 -0.9363  1.4430
16402TIP3   OH270696   6.157   5.489   5.473 -0.5683 -0.0354 -0.1995
16402TIP3    H170697   6.070   5.474   5.436 -0.7943  0.4898  0.1163
16402TIP3    H270698   6.141   5.535   5.555  0.0024 -0.0482 -0.0761
16403TIP3   OH270699   4.612   6.636   0.272  0.3506 -0.5763  0.3769
16403TIP3    H170700   4.577   6.721   0.245  0.2668 -1.2380 -1.7681
16403TIP3    H270701   4.540   6.575   0.260  0.8140 -1.1824  0.5912
16404TIP3   OH270702   2.897   6.217  14.468 -0.1684  0.2722 -0.0908
16404TIP3    H170703   2.924   6.157  14.399  1.0343 -0.8881  1.3083
16404TIP3    H270704   2.965   6.284  14.470  1.9631 -1.7113  2.2881
16405TIP3   OH270705   2.775   4.243  16.746  0.0798 -0.0072  0.2153
16405TIP3    H170706   2.731   4.169  16.788  0.5306 -0.3586  0.0841
16405TIP3    H270707   2.785   4.307  16.816 -2.4107  0.9330 -0.1931
16406TIP3   OH270708   4.346   0.160   0.900 -0.1395  0.9582  0.0239
16406TIP3    H170709   4.292   0.084   0.879  0.6901  0.3251  0.1549
16406TIP3    H270710   4.381   0.142   0.988  0.9802  0.9487 -0.4087
16407TIP3   OH270711   5.290   3.876  17.222  0.1612  0.5655  0.2804
16407TIP3    H170712   5.210   3.879  17.168 -0.5244  1.9309  1.3244
16407TIP3    H270713   5.359   3.856  17.159 -0.7605  1.0367 -0.9413
16408TIP3   OH270714   5.624   5.683   3.446  0.2898 -0.0824 -0.0588
16408TIP3    H170715   5.598   5.692   3.538  2.1387 -1.6581  0.6844
16408TIP3    H270716   5.563   5.619   3.410  0.6899 -0.8656  0.6126
16409TIP3   OH270717   0.299   2.174   5.853  0.0218 -0.7800  0.2163
16409TIP3    H170718   0.276   2.115   5.925  0.0542  0.6345  1.4320
16409TIP3    H270719   0.372   2.130   5.809 -0.5990 -2.1100  0.4647
16410TIP3   OH270720   1.312   1.020   1.314  0.5615  0.0526 -0.4509
16410TIP3    H170721   1.303   1.101   1.265 -1.6638  0.2472  0.1482
16410TIP3    H270722   1.260   1.033   1.394 -0.5721 -2.2066 -0.7178
16411TIP3   OH270723   4.548   4.763  16.136  0.3661 -0.0682 -0.1817
16411TIP3    H170724   4.617   4.819  16.172  1.1920 -0.8939 -0.4540
16411TIP3    H270725   4.591   4.679  16.119 -0.9542 -0.9631  0.6606
16412TIP3   OH270726   2.060   4.858   0.956  0.0161  0.1451  0.0592
16412TIP3    H170727   2.136   4.825   0.907 -0.1949 -0.7778  0.3400
16412TIP3    H270728   2.052   4.799   1.031 -0.6476  0.5718  0.3311
16413TIP3   OH270729   2.540   1.112   3.492 -0.2966  0.4352 -0.3233
16413TIP3    H170730   2.455   1.154   3.481 -0.5895 -0.1492 -0.3081
16413TIP3    H270731   2.547   1.096   3.586  0.0839  1.0003 -0.2497
16414TIP3   OH270732   6.045   0.869  11.296  0.2071  0.5452 -0.1905
16414TIP3    H170733   6.005   0.941  11.247 -2.9923 -1.1018 -0.2788
16414TIP3    H270734   6.040   0.897  11.388 -1.2610  0.3946 -0.1985
16415TIP3   OH270735   6.160   5.867   3.884 -0.3364  0.7681  0.6223
16415TIP3    H170736   6.186   5.926   3.813  2.8615  0.2782  1.2197
16415TIP3    H270737   6.165   5.780   3.846  0.2726  0.5793  1.1065
16416TIP3   OH270738   6.533   1.237  15.643 -0.1517  0.1839 -0.5691
16416TIP3    H170739   6.542   1.310  15.703 -0.8414 -1.5135  1.7442
16416TIP3    H270740   6.439   1.230  15.627 -0.0942 -0.2025 -0.7541
16417TIP3   OH270741   5.093   3.648   5.383 -0.4154  0.0470  0.2779
16417TIP3    H170742   5.151   3.704   5.434 -2.2741  1.4529  0.9719
16417TIP3    H270743   5.100   3.682   5.293 -2.4037  2.3128  0.8796
16418TIP3   OH270744   2.386   6.214   2.179 -0.1615 -0.0574  0.2172
16418TIP3    H170745   2.451   6.232   2.111 -0.3678 -2.4037 -0.6967
16418TIP3    H270746   2.402   6.123   2.204 -1.7937 -0.0506  1.4698
16419TIP3   OH270747   6.728   0.723   1.498 -0.4927 -0.4295  0.4970
16419TIP3    H170748   6.657   0.786   1.492 -0.6782 -0.6298  0.5711
16419TIP3    H270749   6.721   0.686   1.586  0.1921  0.1199  0.7916
16420TIP3   OH270750   2.701   4.767   5.975  0.6960 -0.4477  0.4026
16420TIP3    H170751   2.639   4.710   5.931  2.0912 -2.5348  1.0082
16420TIP3    H270752   2.647   4.839   6.009 -1.2087 -1.6295  0.0230
16421TIP3   OH270753   1.694   0.856   2.159 -0.0918  0.1575  0.1150
16421TIP3    H170754   1.627   0.824   2.099  0.1402  0.0561 -0.0923
16421TIP3    H270755   1.725   0.937   2.119  0.7725 -0.4263 -0.4354
16422TIP3   OH270756   4.374   3.676  11.927  0.4867 -0.1598 -0.4671
16422TIP3    H170757   4.424   3.715  11.998  0.2845  1.0652 -0.9851
16422TIP3    H270758   4.283   3.697  11.946  0.0197 -2.8895  0.7930
16423TIP3   OH270759   5.625   6.504  15.040  0.0503  0.9532 -0.0248
16423TIP3    H170760   5.640   6.591  15.003  0.0980  0.9563  0.0029
16423TIP3    H270761   5.579   6.457  14.970 -1.6634  1.5768  0.6199
16424TIP3   OH270762   0.390   1.037   5.141  0.6989  0.2808 -0.2356
16424TIP3    H170763   0.361   0.996   5.222  1.5325  1.9684  0.9837
16424TIP3    H270764   0.472   0.992   5.119  0.7154  0.1349  0.1186
16425TIP3   OH270765   1.660   3.112  10.943 -0.9285  0.1144 -0.3080
16425TIP3    H170766   1.704   3.194  10.967 -0.6633 -0.6595  2.1317
16425TIP3    H270767   1.568   3.136  10.933 -0.5257  1.1165 -2.0783
16426TIP3   OH270768   1.708   3.801  16.466  0.5974 -0.5291 -0.4950
16426TIP3    H170769   1.660   3.826  16.545  0.3395 -1.5310 -0.3272
16426TIP3    H270770   1.733   3.885  16.426  0.0418 -0.0086  0.2203
16427TIP3   OH270771   3.444   5.562  16.974  0.4678  0.0859  0.5512
16427TIP3    H170772   3.509   5.629  16.952  2.1985 -1.1131  1.7998
16427TIP3    H270773   3.487   5.507  17.040 -1.2468 -1.6888  0.2802
16428TIP3   OH270774   3.025   4.454  17.160  0.2946  0.1865  0.3661
16428TIP3    H170775   3.051   4.539  17.124  1.0229 -0.0851  0.2317
16428TIP3    H270776   3.050   4.458  17.252 -1.5560  0.8758  0.8825
16429TIP3   OH270777   5.842   1.955   0.307 -0.4198 -0.2794 -0.4978
16429TIP3    H170778   5.837   1.995   0.220  0.1638  0.2051 -0.3190
16429TIP3    H270779   5.815   1.864   0.294  0.8980 -0.5685 -1.4286
16430TIP3   OH270780   6.377   5.863  12.236 -0.5759 -0.8490  0.0798
16430TIP3    H170781   6.466   5.833  12.220  0.4545  2.2749 -0.8771
16430TIP3    H270782   6.326   5.832  12.161  0.0290 -1.4956 -0.0655
16431TIP3   OH270783   4.130   4.830   5.922  0.5746  0.2772  0.0339
16431TIP3    H170784   4.040   4.848   5.894  0.7796 -0.7051 -1.3758
16431TIP3    H270785   4.178   4.816   5.840  1.9190  0.3454  0.7800
16432TIP3   OH270786   3.175   6.409   1.731  0.0352 -0.1837  0.4839
16432TIP3    H170787   3.089   6.366   1.730  0.4954 -1.1246 -0.5481
16432TIP3    H270788   3.182   6.451   1.645  0.6700 -0.2276  0.5108
16433TIP3   OH270789   2.417   5.875  12.399 -0.0244  0.2042 -0.4005
16433TIP3    H170790   2.340   5.869  12.341  0.9335 -0.4072 -1.6475
16433TIP3    H270791   2.461   5.955  12.371 -0.0937  0.4682  0.2130
16434TIP3   OH270792   6.323   1.985   4.236 -0.2836 -0.0302  0.0148
16434TIP3    H170793   6.386   1.986   4.307  1.0175  1.1237 -1.0871
16434TIP3    H270794   6.374   2.009   4.158 -1.8445 -0.2578 -1.1321
16435TIP3   OH270795   3.347   1.003   6.106  0.6166 -0.7975 -0.1553
16435TIP3    H170796   3.400   0.935   6.148  0.3165 -1.2948 -0.5719
16435TIP3    H270797   3.260   0.965   6.100  0.8172 -1.0539 -1.9335
16436TIP3   OH270798   1.440   2.594   5.317  0.0036 -0.1269  0.2050
16436TIP3    H170799   1.420   2.500   5.315  2.2792 -0.7584  2.2274
16436TIP3    H270800   1.526   2.601   5.275  1.6417  0.3916  3.3369
16437TIP3   OH270801   4.857   0.993   1.596  0.1472 -0.0128  0.1064
16437TIP3    H170802   4.823   0.903   1.590  1.0568 -0.3264 -0.6473
16437TIP3    H270803   4.815   1.039   1.524 -0.1673  0.1185  0.3718
16438TIP3   OH270804   3.176   1.489  10.890 -0.3898 -0.4848 -0.5895
16438TIP3    H170805   3.103   1.461  10.945 -0.0334 -2.6512 -1.1248
16438TIP3    H270806   3.152   1.577  10.861 -0.4000  1.0343  3.3218
16439TIP3   OH270807   4.924   4.312  16.016  0.2884  0.8277 -0.2725
16439TIP3    H170808   4.955   4.386  15.965 -0.9871  2.0948  0.7104
16439TIP3    H270809   4.923   4.344  16.107 -0.8917 -0.1555  0.0998
16440TIP3   OH270810   6.498   1.702  16.963 -0.4859 -0.0663  0.0201
16440TIP3    H170811   6.549   1.683  17.042  0.4968 -0.2961 -0.6482
16440TIP3    H270812   6.434   1.768  16.991 -1.5558 -1.6355  1.5073
16441TIP3   OH270813   2.401   0.160  12.828 -0.2850 -0.8624 -0.1428
16441TIP3    H170814   2.442   0.090  12.778 -0.4065 -0.5932 -0.6280
16441TIP3    H270815   2.333   0.194  12.770  0.4772  0.3693 -0.3638
16442TIP3   OH270816   6.379   5.814   5.271  0.3415  0.4378 -0.1686
16442TIP3    H170817   6.291   5.810   5.307 -0.1801  0.5304 -1.3725
16442TIP3    H270818   6.435   5.775   5.338 -0.3381  2.0515  1.4043
16443TIP3   OH270819   4.798   0.286   3.468  0.0410  0.2789  0.7451
16443TIP3    H170820   4.740   0.350   3.428  0.6311  0.5099  0.2473
16443TIP3    H270821   4.763   0.274   3.557  1.5294  3.4559  1.9250
16444TIP3   OH270822   0.316   4.777  14.690 -0.4921 -0.1444 -0.2316
16444TIP3    H170823   0.239   4.833  14.679 -0.1346  0.0709 -1.9542
16444TIP3    H270824   0.380   4.831  14.736  0.0061  1.0731 -2.2475
16445TIP3   OH270825   5.010   6.050   0.577  0.1545  0.3833 -0.2369
16445TIP3    H170826   4.988   6.142   0.563 -0.5608  0.3298  0.4634
16445TIP3    H270827   4.925   6.006   0.586  0.5022 -0.1171  0.7814
16446TIP3   OH270828   1.462   5.237  10.681  0.6191  0.2988 -0.1319
16446TIP3    H170829   1.556   5.251  10.691  0.7266  0.6753 -1.4243
16446TIP3    H270830   1.429   5.319  10.644  0.0434 -0.3429 -1.0876
16447TIP3   OH270831   3.335   5.815   4.706  0.3824 -0.2392 -0.2445
16447TIP3    H170832   3.406   5.809   4.769 -0.5011  1.2521  0.9358
16447TIP3    H270833   3.283   5.890   4.734 -0.3340  0.1607 -2.4598
16448TIP3   OH270834   1.796   0.096   0.022 -0.2350  0.3284  0.9265
16448TIP3    H170835   1.839   0.069   0.103  0.5285  0.2520  0.4991
16448TIP3    H270836   1.860   0.151  -0.022 -0.2315 -0.4917 -0.1228
16449TIP3   OH270837   0.353   1.782  16.798 -0.1855  0.1510  0.0429
16449TIP3    H170838   0.444   1.769  16.771  0.6786 -0.9076  3.0286
16449TIP3    H270839   0.339   1.876  16.788  0.3380  0.0116 -2.7706
16450TIP3   OH270840   5.857   4.908  17.192 -0.1630  1.2091  0.1072
16450TIP3    H170841   5.860   4.849  17.268  0.5158  2.0869  0.7986
16450TIP3    H270842   5.764   4.928  17.181 -0.5077 -0.7327 -0.7569
16451TIP3   OH270843   1.977   5.114  15.320  0.3978  0.7018  0.1465
16451TIP3    H170844   2.015   5.169  15.252  0.8229 -0.1897 -0.3556
16451TIP3    H270845   2.003   5.025  15.296 -0.0363  0.3070  1.0933
16452TIP3   OH270846   1.458   0.087   1.265  0.3116  0.0003  0.2037
16452TIP3    H170847   1.521   0.022   1.235  0.9287  0.1869  1.0724
16452TIP3    H270848   1.501   0.171   1.249 -0.2428  0.1802 -0.3762
16453TIP3   OH270849   2.656   5.298   2.165 -0.1500 -0.1310  0.7962
16453TIP3    H170850   2.603   5.226   2.131  0.2101 -1.2024  2.3775
16453TIP3    H270851   2.605   5.333   2.238 -0.5742  1.6305 -0.2697
16454TIP3   OH270852   3.031   4.879  13.565 -0.3994  0.1441 -0.7583
16454TIP3    H170853   3.096   4.812  13.588 -1.0054 -0.1103  0.2847
16454TIP3    H270854   3.082   4.951  13.528  0.4939  0.0053  0.1657
16455TIP3   OH270855   1.393   2.350  12.332 -0.4131  0.2274  0.5257
16455TIP3    H170856   1.371   2.302  12.412 -1.2790  1.3065  0.9675
16455TIP3    H270857   1.439   2.428  12.363  0.6784 -0.1126 -0.1583
16456TIP3   OH270858   0.168   2.583  10.956  0.9486  0.6373 -0.3117
16456TIP3    H170859   0.083   2.547  10.983  1.4398  1.1220  2.1052
16456TIP3    H270860   0.174   2.563  10.862 -1.3303 -0.3801 -0.3020
16457TIP3   OH270861   1.288   6.529   5.682 -0.2577  0.1011  0.5034
16457TIP3    H170862   1.193   6.531   5.693 -0.5383  1.1186 -1.6725
16457TIP3    H270863   1.314   6.621   5.688  0.3063  0.0497 -0.9555
16458TIP3   OH270864   1.224   2.064  16.048 -0.0344 -0.0956 -0.5424
16458TIP3    H170865   1.215   2.080  15.954  2.2233 -0.0669 -0.8087
16458TIP3    H270866   1.224   1.969  16.057 -1.1672 -0.1023 -0.4249
16459TIP3   OH270867   5.683   0.254   5.739 -0.2891  0.0997  0.1449
16459TIP3    H170868   5.692   0.211   5.824  2.5831 -0.2240 -0.2424
16459TIP3    H270869   5.740   0.204   5.680  0.4847  2.3443 -1.1311
16460TIP3   OH270870   2.555   3.153  16.955  0.2833 -0.1768  0.3948
16460TIP3    H170871   2.559   3.116  16.867  3.8239 -0.3638  0.4739
16460TIP3    H270872   2.542   3.078  17.012 -0.9856 -0.1769  0.1397
16461TIP3   OH270873   2.158   0.617   1.258  0.0326 -0.0397 -0.6211
16461TIP3    H170874   2.214   0.551   1.218  0.5135  1.4053 -2.4848
16461TIP3    H270875   2.198   0.636   1.342 -0.4158 -2.4490  0.2000
16462TIP3   OH270876   6.063   1.257   3.988  0.3387  0.5346  0.1951
16462TIP3    H170877   6.045   1.186   4.050  0.8161  0.5654  0.3687
16462TIP3    H270878   6.050   1.216   3.902  1.6405 -0.0617  0.2611
16463TIP3   OH270879   6.639   0.931  11.856 -0.0463  0.0022 -0.9985
16463TIP3    H170880   6.595   0.875  11.919  2.0592  1.9831  2.5892
16463TIP3    H270881   6.572   0.992  11.826 -1.2334 -1.3611 -1.2142
16464TIP3   OH270882   6.346   0.482   3.369  0.2079  0.5510  0.0351
16464TIP3    H170883   6.298   0.533   3.304  0.9784 -0.4379 -1.3906
16464TIP3    H270884   6.326   0.391   3.347 -0.2883  0.1938  1.8382
16465TIP3   OH270885   5.719   6.704  16.160  0.1272  0.0542 -0.6342
16465TIP3    H170886   5.685   6.787  16.191 -0.0169 -0.2716  0.1002
16465TIP3    H270887   5.647   6.665  16.110 -0.2427 -0.1908  0.0828
16466TIP3   OH270888   6.815   2.183   2.684  0.4994  0.3643  0.4023
16466TIP3    H170889   6.863   2.265   2.678  2.9907 -1.1160 -1.5034
16466TIP3    H270890   6.875   2.117   2.650 -2.4148 -1.8491 -0.8569
16467TIP3   OH270891   5.977   4.865   5.306  0.2022  0.0988 -0.0571
16467TIP3    H170892   5.938   4.829   5.386 -1.2316  0.7382 -0.4334
16467TIP3    H270893   6.013   4.949   5.332 -0.5848  0.4677 -0.1559
16468TIP3   OH270894   0.659   0.701   2.554 -0.0458  0.5876  0.0232
16468TIP3    H170895   0.577   0.652   2.550 -0.4360  1.2550 -0.4086
16468TIP3    H270896   0.658   0.743   2.640  0.8312 -1.0431  0.8770
16469TIP3   OH270897   0.943   2.010   2.061  0.0381 -0.3275 -0.1803
16469TIP3    H170898   0.989   2.086   2.097 -2.2043  0.4163  1.3056
16469TIP3    H270899   0.970   1.937   2.118  1.5984 -0.5616 -1.1451
16470TIP3   OH270900   0.053   5.354   0.574 -0.2648 -0.1127 -0.0951
16470TIP3    H170901   0.146   5.349   0.552 -0.6060 -1.3609 -1.4109
16470TIP3    H270902   0.024   5.263   0.577 -1.5672  0.2719 -0.3306
16471TIP3   OH270903   3.577   2.238   3.953  0.0235 -0.3072 -0.3056
16471TIP3    H170904   3.516   2.309   3.935 -0.7770 -1.4206 -2.4113
16471TIP3    H270905   3.533   2.184   4.019 -0.0818  0.2754  0.1065
16472TIP3   OH270906   0.208   0.921  16.267  0.0305  0.5158 -0.1190
16472TIP3    H170907   0.256   1.003  16.260 -0.6993  1.1419  1.6271
16472TIP3    H270908   0.218   0.896  16.359 -3.5948  1.1203  0.5733
16473TIP3   OH270909   2.878   4.821   4.222 -0.5189 -0.4966  0.1860
16473TIP3    H170910   2.950   4.854   4.276 -1.6362  0.1010  1.3816
16473TIP3    H270911   2.891   4.726   4.220  0.0664 -0.4372  0.7303
16474TIP3   OH270912   4.861   4.645  13.902  0.1912 -0.0649  0.1360
16474TIP3    H170913   4.813   4.725  13.924 -1.0170 -0.8946  0.6355
16474TIP3    H270914   4.951   4.664  13.928 -0.0115  1.2264 -0.0187
16475TIP3   OH270915   1.492   0.020  14.559 -0.3122  0.2164  0.2142
16475TIP3    H170916   1.474   0.089  14.623  1.7550  0.9965  0.0374
16475TIP3    H270917   1.490  -0.061  14.611 -1.8223  0.4647  0.6065
16476TIP3   OH270918   1.238   5.326   1.628 -0.6696  0.1373  0.5262
16476TIP3    H170919   1.157   5.371   1.604 -0.9151  1.1099  2.8817
16476TIP3    H270920   1.303   5.396   1.633  0.0329 -0.4589 -0.1321
16477TIP3   OH270921   0.365   0.292  11.681 -0.0202 -0.5112  0.0611
16477TIP3    H170922   0.432   0.324  11.741  0.4783 -1.9789  0.3223
16477TIP3    H270923   0.347   0.367  11.624  1.5514  0.0581  0.2387
16478TIP3   OH270924   3.223   3.535  11.524  0.2101  0.8440 -0.1056
16478TIP3    H170925   3.280   3.592  11.575  1.3059  0.0853 -0.4649
16478TIP3    H270926   3.197   3.466  11.585 -1.3903  1.8642  0.4290
16479TIP3   OH270927   5.895   4.459   4.018  0.7345  0.4483 -0.2563
16479TIP3    H170928   5.951   4.402   3.966  0.3209  0.1306 -0.3574
16479TIP3    H270929   5.956   4.504   4.078  0.9627 -0.8760  0.5639
16480TIP3   OH270930   2.026   0.060   5.442  0.7636  0.1434  0.8081
16480TIP3    H170931   1.947   0.052   5.496  0.5094 -0.3696  0.3644
16480TIP3    H270932   2.029  -0.021   5.391  1.2854  0.3972  0.4232
16481TIP3   OH270933   3.654   6.618  11.903 -0.0762  0.0186 -0.1984
16481TIP3    H170934   3.641   6.535  11.858  0.7418 -0.9369  1.2148
16481TIP3    H270935   3.665   6.593  11.995  0.9038  1.6203  0.1601
16482TIP3   OH270936   1.081   4.589   5.127 -1.0460 -0.0919  0.1340
16482TIP3    H170937   1.011   4.625   5.181 -0.8863  0.9427 -0.3376
16482TIP3    H270938   1.036   4.530   5.066 -1.4867  0.4267 -0.0472
16483TIP3   OH270939   6.033   6.598   0.870  0.2245 -0.1953  0.3393
16483TIP3    H170940   5.994   6.646   0.943  2.4555 -0.1894  1.6162
16483TIP3    H270941   6.085   6.664   0.823 -0.3384 -0.4287 -0.6234
16484TIP3   OH270942   0.544   0.401   1.645 -0.1520  0.4067 -0.0114
16484TIP3    H170943   0.494   0.362   1.717 -0.6693 -1.7770 -1.4499
16484TIP3    H270944   0.478   0.449   1.593 -0.9178 -2.3940 -1.8552
16485TIP3   OH270945   2.247   6.221  15.049  0.1320 -0.4665  0.1016
16485TIP3    H170946   2.276   6.306  15.080 -0.5411 -0.3690  0.4730
16485TIP3    H270947   2.300   6.205  14.971 -0.7473  0.9622 -0.8307
16486TIP3   OH270948   1.761   2.480   5.570 -0.1239 -0.0402  0.1235
16486TIP3    H170949   1.811   2.522   5.500 -0.2152 -1.8774 -1.1270
16486TIP3    H270950   1.793   2.519   5.651 -0.9101  3.1145 -0.9540
16487TIP3   OH270951   6.334   6.543  13.458 -0.3659 -0.4979  0.0197
16487TIP3    H170952   6.348   6.554  13.364 -0.1226 -1.3810 -0.0588
16487TIP3    H270953   6.410   6.585  13.499 -1.2235  1.2611 -0.0867
16488TIP3   OH270954   3.592   5.664  15.627 -0.5022 -0.2582 -0.2932
16488TIP3    H170955   3.529   5.694  15.692 -1.8503 -1.1792 -1.1105
16488TIP3    H270956   3.573   5.570  15.617  0.8912 -0.5252 -0.7004
16489TIP3   OH270957   0.176   6.473   0.750 -0.2219  0.0121  0.1414
16489TIP3    H170958   0.111   6.406   0.769 -0.0772 -1.2524 -3.1583
16489TIP3    H270959   0.261   6.431   0.768 -0.1869  0.2212  0.4820
16490TIP3   OH270960   0.893   5.120  12.532 -0.8608  0.2223 -0.0835
16490TIP3    H170961   0.941   5.164  12.462  1.1675  1.6248  2.0220
16490TIP3    H270962   0.915   5.027  12.520 -1.7622  0.2064 -2.0908
16491TIP3   OH270963   4.811   5.154  17.124  0.1732  0.2564 -0.0687
16491TIP3    H170964   4.857   5.075  17.096  1.2461  1.0127 -0.5016
16491TIP3    H270965   4.875   5.224  17.114 -1.2366  1.4506 -1.2259
16492TIP3   OH270966   6.517   1.419   2.445 -0.3642  0.0745 -0.4633
16492TIP3    H170967   6.536   1.326   2.441  2.1974  0.4991  0.3659
16492TIP3    H270968   6.540   1.453   2.358  0.2994  0.1930 -0.2427
16493TIP3   OH270969   1.543   1.906   0.016 -0.4101 -0.1153  0.1241
16493TIP3    H170970   1.521   1.940   0.103 -1.1681 -0.5493  0.1133
16493TIP3    H270971   1.622   1.854   0.030 -0.1572  0.3418  0.4290
16494TIP3   OH270972   5.406   1.481   1.873  0.9457 -0.3148 -0.2565
16494TIP3    H170973   5.315   1.506   1.855  0.5391 -2.1222 -0.8736
16494TIP3    H270974   5.441   1.452   1.789  3.3347  3.6853 -0.8962
16495TIP3   OH270975   1.010   4.065  12.670  0.4850  0.1475  0.7065
16495TIP3    H170976   0.935   4.035  12.721  0.5487  1.4656  1.6266
16495TIP3    H270977   1.020   4.000  12.600 -0.9033 -0.5587  1.1438
16496TIP3   OH270978   5.560   1.204   3.887 -0.5332 -0.4552  0.3271
16496TIP3    H170979   5.586   1.151   3.811  0.0714 -0.0367  0.2389
16496TIP3    H270980   5.639   1.213   3.939 -0.4174  0.9887 -0.0409
16497TIP3   OH270981   3.081   3.431   1.481 -1.0194 -0.3972  0.1456
16497TIP3    H170982   3.136   3.508   1.496 -0.9090 -0.7435  1.6804
16497TIP3    H270983   3.066   3.430   1.386  0.3629  0.5554 -0.1106
16498TIP3   OH270984   6.328   3.929  16.556  0.7065  0.3121  0.2559
16498TIP3    H170985   6.406   3.985  16.553  1.3324 -0.5058  0.6675
16498TIP3    H270986   6.361   3.846  16.589 -0.0719 -0.5179 -0.9808
16499TIP3   OH270987   6.731   3.171   4.299 -0.1329 -0.3752  0.2227
16499TIP3    H170988   6.784   3.195   4.375 -0.1540  0.1757  0.0623
16499TIP3    H270989   6.793   3.170   4.226 -0.3167  0.1601  0.0551
16500TIP3   OH270990   5.558   3.136  11.461  0.0781  1.0306  0.0279
16500TIP3    H170991   5.484   3.169  11.512 -0.4699 -2.0970  1.5227
16500TIP3    H270992   5.543   3.042  11.456  2.8853  0.5630 -1.4992
16501TIP3   OH270993   2.907   0.517   2.421 -0.4410 -0.4278 -0.0717
16501TIP3    H170994   2.856   0.561   2.353 -0.2924  0.9942  0.6784
16501TIP3    H270995   2.894   0.424   2.406 -1.4135 -0.1193 -1.2689
16502TIP3   OH270996   6.142   2.943   0.654  0.4836  0.0512  0.5950
16502TIP3    H170997   6.128   3.034   0.627 -0.3770  0.1802  1.4346
16502TIP3    H270998   6.227   2.920   0.616 -0.1623  0.5657 -1.2742
16503TIP3   OH270999   1.116   1.816   3.798  0.1867  0.4272 -0.0038
16503TIP3    H171000   1.180   1.766   3.747 -0.5582 -0.5715  0.0177
16503TIP3    H271001   1.133   1.791   3.889 -0.5502 -0.2254 -0.0410
16504TIP3   OH271002   5.160   2.665  14.221  0.3274 -0.4684  0.3072
16504TIP3    H171003   5.137   2.576  14.193  1.2263 -0.7116  0.3011
16504TIP3    H271004   5.150   2.719  14.142 -1.3725 -0.3314  0.5975
16505TIP3   OH271005   6.630   5.980  12.135 -0.3411  0.1828 -0.1240
16505TIP3    H171006   6.676   5.977  12.051  0.1990 -0.0413  0.1735
16505TIP3    H271007   6.678   5.919  12.191 -0.4413  0.6338  0.4709
16506TIP3   OH271008   3.850   0.342  11.594  0.1106  0.3859 -0.0109
16506TIP3    H171009   3.822   0.291  11.518  0.1436  1.1595 -0.5560
16506TIP3    H271010   3.902   0.280  11.646 -1.1940 -0.5913  0.1882
16507TIP3   OH271011   0.572   0.746   1.423  0.3848  0.3558  0.0480
16507TIP3    H171012   0.508   0.678   1.401 -0.3016  0.1729  2.3512
16507TIP3    H271013   0.577   0.800   1.344  0.4038 -1.9088 -1.5970
16508TIP3   OH271014   6.466   0.303  15.886  0.7780  0.0461 -0.4208
16508TIP3    H171015   6.388   0.343  15.924  0.5559 -0.3079 -0.5024
16508TIP3    H271016   6.464   0.328  15.794 -0.3980 -1.7304 -0.9142
16509TIP3   OH271017   1.587   4.793   3.912 -0.4139 -0.2595  0.4545
16509TIP3    H171018   1.516   4.857   3.914 -1.7093 -1.6387  0.6962
16509TIP3    H271019   1.558   4.724   3.971  2.0224 -0.0072  2.0724
16510TIP3   OH271020   4.402   0.070  15.525 -0.1434  0.4273 -0.4568
16510TIP3    H171021   4.411   0.071  15.620 -0.9867  1.2860 -0.3750
16510TIP3    H271022   4.455  -0.005  15.497  0.7980  0.6641  0.6079
16511TIP3   OH271023   3.207   5.441   2.046 -0.0050 -0.3735  0.8172
16511TIP3    H171024   3.206   5.523   2.095 -0.4731 -0.3845  0.8313
16511TIP3    H271025   3.173   5.376   2.108 -1.1936 -0.2720  0.2790
16512TIP3   OH271026   4.269   3.905  15.442  0.2034 -0.8229 -0.1087
16512TIP3    H171027   4.364   3.897  15.456  0.6394  1.3047 -1.4288
16512TIP3    H271028   4.230   3.877  15.526  2.2066  2.3756  2.0958
16513TIP3   OH271029   5.963   2.709   2.246  0.2072  0.3800  0.9324
16513TIP3    H171030   5.909   2.647   2.197  1.4437  1.8193 -2.5316
16513TIP3    H271031   6.032   2.655   2.285 -0.3323 -0.7388  0.3941
16514TIP3   OH271032   3.494   1.945   3.040  0.0156 -0.4452  0.0090
16514TIP3    H171033   3.574   1.932   3.091  1.4360  2.0020 -1.3774
16514TIP3    H271034   3.444   2.010   3.089  0.1421 -0.0377 -0.3914
16515TIP3   OH271035   0.889   3.396   4.318  0.3623  0.1959  0.2304
16515TIP3    H171036   0.928   3.308   4.323  1.3361  0.6286  0.5462
16515TIP3    H271037   0.820   3.395   4.385  0.4069 -0.3124  0.2729
16516TIP3   OH271038   5.133   2.848   4.849 -0.0125 -0.0011  0.1335
16516TIP3    H171039   5.109   2.790   4.776  0.8113 -0.8973  0.5451
16516TIP3    H271040   5.064   2.914   4.851 -1.5847 -1.5470  0.2787
16517TIP3   OH271041   5.089   2.667   5.131 -0.0929  0.2385 -0.0697
16517TIP3    H171042   5.119   2.661   5.040  0.2504  0.4128  0.0307
16517TIP3    H271043   4.999   2.700   5.124  0.2673  1.2015 -0.3045
16518TIP3   OH271044   0.678   5.573  16.072  0.5476  0.3158  0.2497
16518TIP3    H171045   0.638   5.524  16.000 -0.0724  4.6139 -2.7062
16518TIP3    H271046   0.607   5.583  16.135 -0.9718  1.6452 -1.5330
16519TIP3   OH271047   6.720   2.973  14.371  0.2891 -0.2584 -0.5542
16519TIP3    H171048   6.747   2.982  14.463  0.7100 -0.2437 -0.6802
16519TIP3    H271049   6.796   2.936  14.327  0.0385 -0.3995 -0.8737
16520TIP3   OH271050   1.890   2.425   3.062  0.6965  0.2918 -0.2192
16520TIP3    H171051   1.924   2.348   3.109  1.0268 -0.2188 -1.2664
16520TIP3    H271052   1.861   2.484   3.131  0.4216 -0.7836  0.6150
16521TIP3   OH271053   0.434   5.311  13.748 -0.4155  0.5172 -1.3240
16521TIP3    H171054   0.510   5.342  13.797 -0.4732 -1.5458  0.1823
16521TIP3    H271055   0.402   5.388  13.702 -0.6180  2.7254  2.2053
16522TIP3   OH271056   3.005   4.871  16.990 -0.9704 -0.5027  0.0083
16522TIP3    H171057   2.923   4.868  16.940 -1.1261 -2.2700  0.2906
16522TIP3    H271058   2.986   4.931  17.062 -2.2711 -1.3637  0.4323
16523TIP3   OH271059   0.350   6.075  13.197 -0.2264 -0.0723  0.6796
16523TIP3    H171060   0.292   5.999  13.190  0.1804 -0.2818 -0.9709
16523TIP3    H271061   0.343   6.119  13.112  1.7326  0.1028  0.5470
16524TIP3   OH271062   4.864   4.708   2.796 -0.0962 -0.6423 -0.8255
16524TIP3    H171063   4.928   4.775   2.821 -0.8416  0.3333 -1.4545
16524TIP3    H271064   4.917   4.638   2.758  0.7192 -0.5418  0.0702
16525TIP3   OH271065   2.292   1.798  13.548  0.3611  0.1072 -0.2171
16525TIP3    H171066   2.336   1.840  13.475 -1.2525 -0.2168 -1.4453
16525TIP3    H271067   2.237   1.866  13.587  1.0927  0.2384  0.6168
16526TIP3   OH271068   0.706   5.215   0.825 -0.5305 -0.3672  0.7681
16526TIP3    H171069   0.701   5.262   0.742  0.3863 -0.0291  0.8913
16526TIP3    H271070   0.711   5.123   0.800 -4.0351 -0.6120  0.5636
16527TIP3   OH271071   0.872   3.560  17.130 -0.1143 -0.0233 -0.8573
16527TIP3    H171072   0.902   3.633  17.075 -0.2779  0.6125 -0.1203
16527TIP3    H271073   0.777   3.571  17.135 -0.1487 -0.3355 -0.8051
16528TIP3   OH271074   5.647   5.092  10.571  0.1280 -0.2521  0.0340
16528TIP3    H171075   5.615   5.121  10.486 -0.7636 -1.9964 -0.2764
16528TIP3    H271076   5.740   5.073  10.557 -0.5242 -2.9362 -1.3045
16529TIP3   OH271077   4.438   4.365  17.205 -0.0330  0.3283  0.5220
16529TIP3    H171078   4.380   4.351  17.280  0.1189 -1.3199  0.3604
16529TIP3    H271079   4.410   4.301  17.140 -0.1580  1.7130 -0.8647
16530TIP3   OH271080   2.462   3.833  12.429 -0.0359  0.6463  0.2882
16530TIP3    H171081   2.533   3.896  12.440  0.2283  0.4577 -0.2646
16530TIP3    H271082   2.506   3.748  12.427 -0.5431  0.2612  2.7569
16531TIP3   OH271083   5.686   0.652  14.993  0.2223  0.0498 -0.2546
16531TIP3    H171084   5.709   0.599  15.069 -0.0103 -1.8108 -1.4095
16531TIP3    H271085   5.768   0.692  14.965  0.1060  1.7940  1.6431
16532TIP3   OH271086   3.462   4.956  13.466  0.4048 -0.1085 -0.2098
16532TIP3    H171087   3.529   4.922  13.407  0.5591  0.2806 -0.2597
16532TIP3    H271088   3.490   4.927  13.553 -0.4420 -1.6957 -0.4274
16533TIP3   OH271089   6.538   6.202   2.591  0.0013 -0.1298 -0.1106
16533TIP3    H171090   6.499   6.119   2.565  1.1509 -0.8443  0.3991
16533TIP3    H271091   6.560   6.192   2.683  0.1322  0.7494 -0.0319
16534TIP3   OH271092   6.119   2.683  15.304 -0.0345 -0.0285  0.1296
16534TIP3    H171093   6.202   2.654  15.341 -0.3877 -0.8074  0.3364
16534TIP3    H271094   6.053   2.649  15.365 -0.5092  0.4296 -0.1270
16535TIP3   OH271095   4.411   4.625  17.127  0.0083 -0.9347 -0.0028
16535TIP3    H171096   4.415   4.531  17.145  0.7368 -0.9669 -0.2816
16535TIP3    H271097   4.409   4.631  17.031 -0.3014 -0.6748  0.0203
16536TIP3   OH271098   6.672   1.191  12.755  0.0460 -0.0931 -0.7991
16536TIP3    H171099   6.682   1.161  12.665 -0.7714  1.3102 -1.4046
16536TIP3    H271100   6.582   1.167  12.779  0.8906 -2.3580  0.4589
16537TIP3   OH271101   0.024   0.632  15.034 -0.1909  0.2071 -0.3215
16537TIP3    H171102   0.022   0.594  14.946  1.0291 -0.7378  0.0368
16537TIP3    H271103   0.014   0.727  15.019 -2.2770 -0.1050 -1.2936
16538TIP3   OH271104   6.285   3.636   5.682  0.2205  0.2950 -0.1183
16538TIP3    H171105   6.299   3.560   5.626 -0.5188  1.3044 -1.7398
16538TIP3    H271106   6.313   3.710   5.628  1.0421  1.1883  1.4711
16539TIP3   OH271107   2.530   1.205  14.149  0.1467  0.4539 -0.5869
16539TIP3    H171108   2.476   1.278  14.181 -0.4932  0.3872 -1.4629
16539TIP3    H271109   2.493   1.128  14.191 -0.5021  0.4032 -1.2215
16540TIP3   OH271110   5.751   2.864  14.554 -0.2250  0.0173 -0.5740
16540TIP3    H171111   5.766   2.770  14.559 -2.6234 -0.4019 -0.0844
16540TIP3    H271112   5.740   2.882  14.461 -1.4406 -0.5414 -0.5640
16541TIP3   OH271113   4.000   0.173   3.926  0.1384 -0.3475  0.4797
16541TIP3    H171114   3.924   0.192   3.871 -0.1794 -0.8773  0.7312
16541TIP3    H271115   3.982   0.218   4.009  1.2629  1.6427 -0.2934
16542TIP3   OH271116   5.068   0.650   2.220  0.3472 -0.2807  0.1807
16542TIP3    H171117   5.081   0.741   2.195 -1.9894  0.0273 -0.1632
16542TIP3    H271118   5.113   0.599   2.153 -0.8245  0.6188 -1.3646
16543TIP3   OH271119   3.053   5.894   1.074 -0.1142  0.6440  0.2821
16543TIP3    H171120   2.974   5.905   1.127 -0.3885  0.5763 -0.1121
16543TIP3    H271121   3.098   5.819   1.113 -0.1189  0.8304  0.6564
16544TIP3   OH271122   3.262   4.596   4.558  1.1211 -0.3006  0.5144
16544TIP3    H171123   3.258   4.690   4.578  0.4918  0.3706 -2.2853
16544TIP3    H271124   3.351   4.582   4.527  0.2923  0.2709 -2.4388
16545TIP3   OH271125   1.294   1.919  10.784  0.6600  0.0227  0.2529
16545TIP3    H171126   1.236   1.978  10.832  1.8407  0.4681  1.1774
16545TIP3    H271127   1.360   1.976  10.745 -0.7844 -0.1821 -2.8697
16546TIP3   OH271128   1.323   2.413  13.192  0.3572 -0.9671 -0.1898
16546TIP3    H171129   1.375   2.346  13.236 -1.4204 -0.6621  2.6441
16546TIP3    H271130   1.232   2.384  13.203 -0.3299  0.6827 -1.0603
16547TIP3   OH271131   0.153   0.082   4.388 -0.8945 -0.2844 -0.6363
16547TIP3    H171132   0.153   0.175   4.364  0.4267  0.2670  1.2174
16547TIP3    H271133   0.235   0.048   4.354 -0.4311 -0.2381  0.3902
16548TIP3   OH271134   4.583   2.963   5.808  0.9196  0.4600 -0.2554
16548TIP3    H171135   4.578   3.007   5.893 -0.8447 -0.0374 -0.0583
16548TIP3    H271136   4.598   2.871   5.830  0.2379  0.2943 -0.4561
16549TIP3   OH271137   0.275   0.601  15.106 -0.6608  0.0191 -0.3120
16549TIP3    H171138   0.286   0.695  15.121 -1.8097  0.2040 -0.5399
16549TIP3    H271139   0.180   0.588  15.106 -0.5906 -0.8185 -2.2116
16550TIP3   OH271140   0.049   3.305   2.200 -0.0453  0.6071 -0.0635
16550TIP3    H171141   0.094   3.333   2.279 -0.7436 -2.4692  1.5640
16550TIP3    H271142   0.119   3.287   2.137  0.6478  0.7550  0.6581
16551TIP3   OH271143   2.000   0.383  13.223 -0.4670  0.1495  0.0768
16551TIP3    H171144   1.966   0.469  13.200 -0.7196 -0.2431 -1.0733
16551TIP3    H271145   1.922   0.329  13.238 -0.3103  0.2153  1.2222
16552TIP3   OH271146   0.241   3.865   1.047  0.2201 -0.2159 -0.1934
16552TIP3    H171147   0.176   3.936   1.046 -1.3997 -1.6247 -1.5067
16552TIP3    H271148   0.239   3.831   1.136  1.0570  1.3833  0.4716
16553TIP3   OH271149   5.454   3.176   1.466  0.0439  0.4513 -0.4356
16553TIP3    H171150   5.506   3.165   1.386 -0.4720 -1.3441 -0.5548
16553TIP3    H271151   5.483   3.260   1.501  2.5855 -0.1794 -0.8297
16554TIP3   OH271152   2.110   4.423  13.244 -0.3347  0.8306  0.4917
16554TIP3    H171153   2.030   4.435  13.294 -1.9533 -2.3181 -1.0862
16554TIP3    H271154   2.090   4.455  13.157 -0.6636 -1.7243 -0.4532
16555TIP3   OH271155   3.161   6.382   0.056  0.4136 -0.3562 -0.1514
16555TIP3    H171156   3.119   6.374  -0.030 -1.4438 -0.6261  0.7318
16555TIP3    H271157   3.179   6.292   0.083  0.5844 -0.2947 -0.0552
16556TIP3   OH271158   0.995   5.181  13.236 -0.1555  0.1194  0.8872
16556TIP3    H171159   1.069   5.125  13.256  1.1854  0.9883 -1.2306
16556TIP3    H271160   1.028   5.270  13.248 -1.2778  0.5145  1.1780
16557TIP3   OH271161   6.669   4.280   1.864  0.2431 -0.2522  0.0848
16557TIP3    H171162   6.756   4.243   1.846  0.6163  0.1890  0.9518
16557TIP3    H271163   6.671   4.367   1.824  0.7259  0.3374  1.3556
16558TIP3   OH271164   6.319   6.068  15.484 -0.1643 -0.9777  0.5311
16558TIP3    H171165   6.390   6.107  15.536 -0.0582 -2.0639  1.2215
16558TIP3    H271166   6.364   6.015  15.418 -0.3330 -1.0771  0.4954
16559TIP3   OH271167   4.685   1.849  12.351  0.8001 -0.0450 -0.5857
16559TIP3    H171168   4.714   1.931  12.310 -0.1291 -0.9590 -3.2516
16559TIP3    H271169   4.753   1.786  12.329 -0.4474 -0.9071 -2.1576
16560TIP3   OH271170   0.124   5.260  14.022 -0.2754  0.3678  0.1881
16560TIP3    H171171   0.196   5.198  14.034 -0.9853 -0.8689 -1.5250
16560TIP3    H271172   0.165   5.340  13.990  0.2371 -0.9851 -2.8609
16561TIP3   OH271173   0.755   0.503   3.923  0.4806 -0.1448 -0.2886
16561TIP3    H171174   0.796   0.417   3.910 -1.8995 -1.3183 -0.5724
16561TIP3    H271175   0.726   0.502   4.015 -1.5913 -0.6615 -0.8903
16562TIP3   OH271176   1.480   1.220   1.631 -0.2958 -0.0208  0.2255
16562TIP3    H171177   1.489   1.252   1.542  1.8948 -1.4220 -0.1245
16562TIP3    H271178   1.548   1.265   1.680 -0.9903  0.1652  1.0560
16563TIP3   OH271179   0.357   4.676   3.923 -0.8582 -0.6577  0.1705
16563TIP3    H171180   0.443   4.645   3.893 -0.9431 -1.8585  1.1034
16563TIP3    H271181   0.364   4.772   3.918  0.1548 -0.7585 -0.7844
16564TIP3   OH271182   3.731   5.693   1.659  0.2731 -0.7168 -0.0599
16564TIP3    H171183   3.661   5.703   1.595 -0.1013 -0.8178  0.3250
16564TIP3    H271184   3.723   5.770   1.715  0.7146 -0.5347 -0.2416
16565TIP3   OH271185   2.621   1.993  16.106  0.2576 -0.0905 -0.1010
16565TIP3    H171186   2.717   1.996  16.113  0.2986  0.2092 -0.7486
16565TIP3    H271187   2.590   2.023  16.192  0.7239 -3.6606  1.4999
16566TIP3   OH271188   2.967   2.614  10.526  0.2872  0.6840  0.0907
16566TIP3    H171189   3.029   2.544  10.506 -0.3115  0.6935 -2.1074
16566TIP3    H271190   3.018   2.680  10.572  1.2887 -0.4058  0.5628
16567TIP3   OH271191   1.703   2.386   2.811  1.0626 -0.2798 -0.4971
16567TIP3    H171192   1.667   2.466   2.774 -2.9877 -1.0396  1.3265
16567TIP3    H271193   1.772   2.416   2.871 -0.7226  1.9907  0.5752
16568TIP3   OH271194   6.099   5.523   2.225  0.2831  0.1282 -0.0508
16568TIP3    H171195   6.122   5.449   2.169 -0.6912 -0.2111 -0.0303
16568TIP3    H271196   6.038   5.486   2.289  0.5503  0.7458  0.5617
16569TIP3   OH271197   3.888   6.308   1.608  0.0255 -0.6721 -0.0452
16569TIP3    H171198   3.929   6.245   1.548  1.2966 -0.4864  0.5885
16569TIP3    H271199   3.812   6.341   1.560 -0.7873 -2.7949 -0.3347
16570TIP3   OH271200   2.156   3.326  16.425 -0.0310  0.0850 -0.5845
16570TIP3    H171201   2.091   3.296  16.489  0.9178 -0.5894  0.1060
16570TIP3    H271202   2.190   3.407  16.462  0.1375 -0.0266 -0.4907
16571TIP3   OH271203   3.873   6.402   5.551 -0.0457 -0.6067 -0.2477
16571TIP3    H171204   3.791   6.383   5.596 -0.9433  0.8517 -1.1940
16571TIP3    H271205   3.940   6.363   5.607 -1.2369 -0.3109  1.4547
16572TIP3   OH271206   5.987   5.943   5.746 -0.2370 -0.4727 -0.0525
16572TIP3    H171207   5.983   5.849   5.762 -1.1683 -0.2269  1.3164
16572TIP3    H271208   6.081   5.963   5.748 -0.0547 -1.2976  0.1124
16573TIP3   OH271209   0.898   5.344   4.766  0.1816 -0.5376  0.1554
16573TIP3    H171210   0.993   5.347   4.774  0.1929  3.4481  0.2446
16573TIP3    H271211   0.869   5.289   4.839  2.3296 -0.7513  0.9101
16574TIP3   OH271212   1.886   0.790   3.203  0.0226 -0.3037  0.2137
16574TIP3    H171213   1.969   0.838   3.208  0.3819 -0.7923 -0.8252
16574TIP3    H271214   1.822   0.849   3.242  0.8243  0.1462  0.8907
16575TIP3   OH271215   4.865   5.238   5.719 -0.2573  0.6325 -0.1994
16575TIP3    H171216   4.899   5.149   5.716 -0.4831  0.4400  1.7239
16575TIP3    H271217   4.774   5.229   5.746 -0.0231  1.4665  0.9681
16576TIP3   OH271218   4.014   6.101  12.400 -0.1216  0.5778  0.0562
16576TIP3    H171219   3.941   6.042  12.382 -0.4714  1.0799 -0.2042
16576TIP3    H271220   3.975   6.171  12.453  0.0700  1.0758 -0.4519
16577TIP3   OH271221   1.088   0.853   2.954  0.8103 -0.1637 -0.1928
16577TIP3    H171222   1.076   0.797   2.877  1.7065 -0.1884 -0.3228
16577TIP3    H271223   1.076   0.794   3.028 -1.5844  0.1526 -0.2448
16578TIP3   OH271224   4.996   3.662   4.229  0.7699 -0.2156  0.8959
16578TIP3    H171225   4.989   3.645   4.323  2.6791 -3.1199  0.6374
16578TIP3    H271226   4.946   3.591   4.188 -0.5136  1.3284 -0.3342
16579TIP3   OH271227   6.135   3.040  14.541 -0.1536 -0.4050  0.1723
16579TIP3    H171228   6.170   3.125  14.564 -1.3804  0.7724 -2.0232
16579TIP3    H271229   6.127   2.994  14.625  1.2738  1.3082  1.3105
16580TIP3   OH271230   6.768   3.137  15.408 -0.3491  0.2020  0.4327
16580TIP3    H171231   6.820   3.057  15.395 -1.8132 -0.4903 -1.8220
16580TIP3    H271232   6.829   3.199  15.448  1.3155 -1.5175  0.7025
16581TIP3   OH271233   1.265   2.294  16.402 -0.1991  0.3423  0.2416
16581TIP3    H171234   1.351   2.263  16.374 -0.1685  0.8750 -0.2744
16581TIP3    H271235   1.204   2.225  16.376 -0.0638  0.4574 -0.3995
16582TIP3   OH271236   6.006   1.453  12.821 -0.7500 -0.1632 -0.4413
16582TIP3    H171237   6.095   1.475  12.793 -1.0181 -1.9939 -3.1098
16582TIP3    H271238   6.019   1.389  12.891  0.0217  0.2897 -0.1606
16583TIP3   OH271239   2.466   1.594   3.656 -0.4263 -0.1384  0.0435
16583TIP3    H171240   2.476   1.684   3.689  0.6952 -1.5452  4.2399
16583TIP3    H271241   2.551   1.573   3.619 -0.2233  0.1113  0.3539
16584TIP3   OH271242   0.272   6.438  14.986 -0.4688 -0.7263  0.3564
16584TIP3    H171243   0.286   6.359  14.933  0.1598  0.0044 -0.5972
16584TIP3    H271244   0.273   6.510  14.922  1.2513  0.2769  1.4432
16585TIP3   OH271245   4.196   4.421  12.684 -0.1317  0.0299  0.0196
16585TIP3    H171246   4.132   4.388  12.747  0.0734 -1.1254 -0.3498
16585TIP3    H271247   4.187   4.362  12.608  1.1572  0.0264 -0.1458
16586TIP3   OH271248   2.407   4.101   3.387 -0.1463 -0.5775  0.1527
16586TIP3    H171249   2.427   4.062   3.472 -0.3647  1.4249  1.1779
16586TIP3    H271250   2.480   4.075   3.331 -0.5213 -2.8075  0.6051
16587TIP3   OH271251   0.369   3.977  15.554 -0.0372 -0.2926 -0.3389
16587TIP3    H171252   0.324   3.895  15.531  0.6975 -0.6634 -0.4779
16587TIP3    H271253   0.364   3.981  15.649  1.2932 -1.3092 -0.2058
16588TIP3   OH271254   2.585   3.320   1.909 -0.2998  0.4392  0.6548
16588TIP3    H171255   2.515   3.386   1.905 -0.8592 -0.1701 -0.2368
16588TIP3    H271256   2.539   3.236   1.897  0.3961 -0.1259  1.7700
16589TIP3   OH271257   0.824   5.955   4.675  0.1534  0.0004  0.1077
16589TIP3    H171258   0.748   5.903   4.650  0.6053 -1.4007  1.5193
16589TIP3    H271259   0.787   6.030   4.722 -0.4106 -0.0528 -0.2389
16590TIP3   OH271260   1.825   6.624  14.711  0.1338 -0.4696  0.7464
16590TIP3    H171261   1.832   6.581  14.626 -2.9860 -0.7396  0.5182
16590TIP3    H271262   1.848   6.557  14.775  0.3212 -0.9094  0.2205
16591TIP3   OH271263   2.510   6.777   3.384 -0.0525  0.5800  0.0321
16591TIP3    H171264   2.564   6.784   3.305  3.2713  0.3822  2.0826
16591TIP3    H271265   2.497   6.868   3.411 -0.2897  0.6043 -0.1565
16592TIP3   OH271266   4.893   2.877  16.556 -0.0862 -0.2356 -0.5327
16592TIP3    H171267   4.906   2.801  16.613  0.1090  0.1752 -0.0086
16592TIP3    H271268   4.900   2.952  16.616 -2.1547  0.1425 -0.7052
16593TIP3   OH271269   1.906   2.453  13.912  0.3764 -0.1361  0.0123
16593TIP3    H171270   1.813   2.473  13.902  0.2886  0.0251  0.9938
16593TIP3    H271271   1.908   2.364  13.947  0.5882 -0.1123  0.0651
16594TIP3   OH271272   6.366   3.627   0.051  0.3950  0.7900 -0.6169
16594TIP3    H171273   6.341   3.717   0.072 -0.6183  0.1747  1.0138
16594TIP3    H271274   6.283   3.580   0.048  1.0724 -1.0404  3.4153
16595TIP3   OH271275   5.037   3.602  12.825  0.2810  0.3980 -0.3442
16595TIP3    H171276   5.108   3.538  12.823 -0.4664 -0.4298 -1.1211
16595TIP3    H271277   4.957   3.551  12.810 -0.4013  1.4263 -0.3683
16596TIP3   OH271278   6.238   1.993   2.828  0.0718  0.2069  0.4612
16596TIP3    H171279   6.215   2.086   2.817  0.5238  0.1457 -1.1478
16596TIP3    H271280   6.258   1.962   2.740  0.9676 -1.1671  1.1126
16597TIP3   OH271281   0.275   2.420  13.164 -0.9170 -0.5563 -0.4378
16597TIP3    H171282   0.260   2.514  13.178  0.2665 -0.3275 -0.5304
16597TIP3    H271283   0.243   2.378  13.243 -1.1611 -0.0371 -0.2584
16598TIP3   OH271284   3.252   1.872  15.494  0.1935  0.4468 -0.4831
16598TIP3    H171285   3.236   1.800  15.433  1.2778  0.1649 -0.4558
16598TIP3    H271286   3.314   1.929  15.449  0.0817  0.8628 -0.1208
16599TIP3   OH271287   1.161   3.280   5.535 -0.7858  0.9474 -0.7851
16599TIP3    H171288   1.140   3.238   5.452  3.2883  3.0128 -3.1960
16599TIP3    H271289   1.222   3.219   5.577 -0.1613  1.3867 -1.0339
16600TIP3   OH271290   6.733   6.659  13.697 -0.3835 -0.1031  0.1782
16600TIP3    H171291   6.755   6.568  13.718 -2.5203 -0.7347 -0.0193
16600TIP3    H271292   6.737   6.705  13.780 -1.9472 -1.0308  0.8183
16601TIP3   OH271293   4.592   6.170   1.411 -0.0290  0.1703  0.0436
16601TIP3    H171294   4.542   6.235   1.362 -1.1627 -0.9396 -0.3065
16601TIP3    H271295   4.538   6.091   1.409  2.0484 -1.3102 -0.9544
16602TIP3   OH271296   1.799   5.323  16.377 -0.1056  0.1410  0.8077
16602TIP3    H171297   1.773   5.246  16.327  1.9091  1.0830 -1.8992
16602TIP3    H271298   1.728   5.336  16.440 -2.2616 -1.7885 -1.0636
16603TIP3   OH271299   6.067   1.450   2.638  0.0215 -0.1060 -0.6317
16603TIP3    H171300   6.161   1.437   2.645  0.2188  1.3183 -0.4056
16603TIP3    H271301   6.048   1.521   2.699 -1.2797 -0.7084 -0.3113
16604TIP3   OH271302   1.699   2.019   1.566 -0.1544 -0.0043 -0.2816
16604TIP3    H171303   1.789   2.029   1.533 -0.5733 -0.3870 -1.5847
16604TIP3    H271304   1.692   2.084   1.636  2.0960 -1.9595  1.9533
16605TIP3   OH271305   5.700   2.832   1.249  0.0163  0.2996  0.4354
16605TIP3    H171306   5.713   2.742   1.221 -1.5372  0.7570 -2.1554
16605TIP3    H271307   5.608   2.850   1.228  0.3446  2.5307  0.6831
16606TIP3   OH271308   0.484   4.033   4.155 -0.0255  0.4965 -0.7103
16606TIP3    H171309   0.536   3.969   4.106  0.1465  1.2989 -1.5901
16606TIP3    H271310   0.424   3.979   4.207  0.8090 -0.4068 -0.6464
16607TIP3   OH271311   3.539   3.744   1.706 -0.2522  0.0951 -0.1533
16607TIP3    H171312   3.609   3.802   1.736  0.0310  0.4101 -1.3740
16607TIP3    H271313   3.502   3.708   1.787  1.9388 -0.8369  0.5153
16608TIP3   OH271314   0.051   6.448   6.178 -0.5353  0.5981  0.3089
16608TIP3    H171315   0.138   6.469   6.144  0.5825 -2.3501  0.9615
16608TIP3    H271316   0.061   6.449   6.273 -1.2749  0.4983  0.3967
16609TIP3   OH271317   4.369   3.125  14.957  0.3216  0.4113  0.3259
16609TIP3    H171318   4.348   3.217  14.939 -0.0483  0.1574 -0.6334
16609TIP3    H271319   4.464   3.125  14.973  0.1936  1.0686  1.1582
16610TIP3   OH271320   2.821   3.408   3.110  0.5056  0.1831 -0.1912
16610TIP3    H171321   2.829   3.469   3.037 -2.1154  2.2779  1.0654
16610TIP3    H271322   2.852   3.457   3.186 -0.6915 -0.3891  0.7033
16611TIP3   OH271323   3.352   2.939   3.343  0.1805  0.0756 -0.2797
16611TIP3    H171324   3.290   3.000   3.384  0.2372  0.4032 -0.6672
16611TIP3    H271325   3.373   2.981   3.259  1.1655  0.1154 -0.0187
16612TIP3   OH271326   2.868   5.837  17.082 -0.3017 -0.0197 -0.3435
16612TIP3    H171327   2.895   5.747  17.063  1.5597  0.3152  0.4559
16612TIP3    H271328   2.775   5.840  17.061 -0.3230 -2.0430 -0.6788
16613TIP3   OH271329   3.559   6.261  14.931  0.0325 -0.5761  0.6977
16613TIP3    H171330   3.522   6.240  15.016  0.3549 -0.4038  0.8803
16613TIP3    H271331   3.518   6.198  14.871 -1.3292  0.2554  0.7111
16614TIP3   OH271332   0.906   0.025  12.262  0.4299 -0.4916  0.4023
16614TIP3    H171333   0.930  -0.060  12.299 -1.8385 -1.3500  0.0551
16614TIP3    H271334   0.811   0.023  12.258  0.3542  1.8583 -0.1768
16615TIP3   OH271335   5.373   0.002   2.103 -0.4366  0.4061  0.6667
16615TIP3    H171336   5.314   0.015   2.178 -0.4529  0.1979  0.6895
16615TIP3    H271337   5.454  -0.032   2.142 -0.4321  0.3329  0.5941
16616TIP3   OH271338   0.243   2.191   3.038  0.0367  0.1677 -0.7762
16616TIP3    H171339   0.278   2.169   3.124 -1.7575 -0.1593 -0.0833
16616TIP3    H271340   0.241   2.108   2.990 -1.5417 -0.2067 -0.1224
16617TIP3   OH271341   1.473   2.869   3.516  0.0006  0.0218  0.0040
16617TIP3    H171342   1.481   2.907   3.428 -1.3919 -1.5079 -0.8266
16617TIP3    H271343   1.409   2.926   3.560 -0.3789 -0.0270 -0.4676
16618TIP3   OH271344   2.621   0.129   5.664 -0.3477 -0.7124  0.3390
16618TIP3    H171345   2.676   0.077   5.605  0.4476 -0.8039  1.1546
16618TIP3    H271346   2.573   0.064   5.715  0.2917 -0.6592  1.0255
16619TIP3   OH271347   6.618   0.647  16.482  0.5577  0.2695  0.2860
16619TIP3    H171348   6.663   0.705  16.544 -1.4451  0.5545  1.5736
16619TIP3    H271349   6.620   0.561  16.525 -0.2833  0.3351  0.4660
16620TIP3   OH271350   4.383   3.677  12.222  0.4225 -0.3074 -0.0545
16620TIP3    H171351   4.291   3.668  12.197  0.7011 -1.7609 -0.6812
16620TIP3    H271352   4.397   3.608  12.287  0.9405  0.2692  0.4580
16621TIP3   OH271353   0.001   3.912   3.784 -0.2584  0.0790 -0.0923
16621TIP3    H171354   0.001   3.901   3.689 -0.8074 -1.2911  0.0401
16621TIP3    H271355  -0.066   3.850   3.814  1.2834 -0.9618  1.3337
16622TIP3   OH271356   1.322   1.515   4.725 -0.6324  0.5894 -0.2720
16622TIP3    H171357   1.315   1.461   4.646  0.6450  0.5973 -0.4049
16622TIP3    H271358   1.288   1.459   4.795  0.7836 -0.4631 -0.3895
16623TIP3   OH271359   4.587   4.905  15.393 -0.6914  0.1962  0.3447
16623TIP3    H171360   4.645   4.969  15.435  1.9035 -0.8290 -1.4190
16623TIP3    H271361   4.512   4.898  15.452 -0.2326  3.4582  1.5109
16624TIP3   OH271362   0.556   1.090   0.069 -0.2159 -0.1997  0.4031
16624TIP3    H171363   0.565   1.034  -0.008 -0.2061  0.4504 -0.0725
16624TIP3    H271364   0.574   1.032   0.143 -0.6368 -0.9300 -0.0569
16625TIP3   OH271365   0.632   1.410  11.958  0.0667  0.0216  0.0108
16625TIP3    H171366   0.706   1.471  11.956 -0.4708  0.7017  0.3806
16625TIP3    H271367   0.619   1.384  11.867 -1.1983  2.3218 -0.5262
16626TIP3   OH271368   1.487   2.087   5.517 -0.1051  0.1524  0.2223
16626TIP3    H171369   1.482   2.052   5.606 -0.7919  1.0103  0.5298
16626TIP3    H271370   1.457   2.177   5.525 -1.9849 -0.2979 -1.1910
16627TIP3   OH271371   5.801   1.966   1.616  0.0779  0.1583  0.2058
16627TIP3    H171372   5.706   1.957   1.605  0.2390 -0.5094 -0.8437
16627TIP3    H271373   5.821   2.053   1.582 -0.2356  0.5663  1.0490
16628TIP3   OH271374   4.971   4.053  15.515  0.2681  0.5427  0.7386
16628TIP3    H171375   4.984   4.108  15.592  0.5214  2.8972 -0.8859
16628TIP3    H271376   5.059   4.043  15.478 -0.2960  3.4467 -1.7478
16629TIP3   OH271377   0.293   1.720  13.886 -0.1044  0.0593 -0.2927
16629TIP3    H171378   0.306   1.662  13.961  0.5372  0.1639 -0.3173
16629TIP3    H271379   0.373   1.710  13.834 -0.6647 -0.2217 -1.1055
16630TIP3   OH271380   6.349   2.517   4.956 -0.3652  0.5278 -0.1696
16630TIP3    H171381   6.278   2.546   4.898  0.4993  1.4750 -0.7685
16630TIP3    H271382   6.399   2.596   4.975 -0.1155  0.0665  1.1697
16631TIP3   OH271383   6.266   0.010  15.157  0.2874 -0.4306  0.2648
16631TIP3    H171384   6.198  -0.035  15.207  0.1918 -1.3486 -0.6633
16631TIP3    H271385   6.220   0.077  15.107  0.3157  0.1266  0.9531
16632TIP3   OH271386   4.630   2.413   5.679  0.6439 -0.0903  0.3706
16632TIP3    H171387   4.648   2.506   5.688  1.6091 -0.3383  1.1918
16632TIP3    H271388   4.671   2.373   5.756  1.2861 -1.3347 -0.5737
16633TIP3   OH271389   3.564   5.178   6.488  0.6135 -0.3188 -0.2007
16633TIP3    H171390   3.552   5.087   6.515  1.8980 -0.1701  0.9965
16633TIP3    H271391   3.507   5.228   6.546 -0.4002 -0.3693 -1.1269
16634TIP3   OH271392   3.080   2.455   0.439  0.1335  0.6581  0.0196
16634TIP3    H171393   3.096   2.506   0.359  0.6875 -1.4941 -1.3157
16634TIP3    H271394   3.167   2.443   0.477 -0.1112  1.5195  0.8858
16635TIP3   OH271395   5.552   5.000   6.110  0.0214  0.2562  0.1025
16635TIP3    H171396   5.529   4.997   6.017 -0.6813  1.8686  0.2067
16635TIP3    H271397   5.477   4.960   6.155  0.1301 -0.0357  0.0312
16636TIP3   OH271398   4.853   2.993   2.824 -0.0689  0.5901  0.1166
16636TIP3    H171399   4.816   3.079   2.847  0.5868  0.4331  1.9970
16636TIP3    H271400   4.821   2.935   2.893  1.7836 -0.0335  0.5034
16637TIP3   OH271401   5.354   5.809   2.739  0.3917  0.4163  0.0580
16637TIP3    H171402   5.428   5.811   2.800  1.7337 -0.4729 -1.4772
16637TIP3    H271403   5.300   5.736   2.770  0.0297  1.1850  1.2991
16638TIP3   OH271404   0.882   6.497   2.629 -0.1234  0.7911 -0.0592
16638TIP3    H171405   0.877   6.534   2.541 -0.3927  1.0424  0.0593
16638TIP3    H271406   0.813   6.542   2.678 -0.4361  0.1486  0.1000
16639TIP3   OH271407   4.669   4.348   5.626  0.0695 -0.0305 -0.1271
16639TIP3    H171408   4.618   4.365   5.705 -0.7118 -1.5691 -0.2553
16639TIP3    H271409   4.719   4.269   5.647 -1.5174 -1.5403 -1.7359
16640TIP3   OH271410   0.315   6.522  16.680 -0.1654  0.3573  0.7467
16640TIP3    H171411   0.239   6.525  16.739 -0.3346 -1.1320  0.6621
16640TIP3    H271412   0.360   6.441  16.704  1.1052  0.9487  0.4207
16641TIP3   OH271413   3.361   4.071   4.429 -0.0870  0.1471 -0.3718
16641TIP3    H171414   3.328   4.067   4.339 -2.9889  0.7805  0.5702
16641TIP3    H271415   3.314   4.002   4.476 -0.1699  1.1305  1.0724
16642TIP3   OH271416   3.561   3.550   2.249 -0.9026 -0.1497 -0.1115
16642TIP3    H171417   3.556   3.456   2.267 -0.1421 -0.3425 -0.8169
16642TIP3    H271418   3.487   3.588   2.297 -0.6185 -0.9730  1.0047
16643TIP3   OH271419   5.500   2.603  15.094  0.2053 -0.2342 -0.1839
16643TIP3    H171420   5.551   2.654  15.156  2.6443 -0.9198 -1.4712
16643TIP3    H271421   5.482   2.663  15.021  0.4346 -0.3907 -0.3701
16644TIP3   OH271422   2.584   4.237   4.623 -0.0498  0.6024 -0.1049
16644TIP3    H171423   2.560   4.308   4.682  0.7576  0.6603  0.1747
16644TIP3    H271424   2.635   4.280   4.554 -1.3638  0.6048 -1.1059
16645TIP3   OH271425   1.454   0.313  15.328 -0.6045 -0.6679  0.0652
16645TIP3    H171426   1.445   0.218  15.317  1.4827 -1.1285  1.7915
16645TIP3    H271427   1.367   0.342  15.354 -0.9181 -2.3769  1.0849
16646TIP3   OH271428   1.839   3.621  11.939 -0.5411 -0.0556 -0.3513
16646TIP3    H171429   1.777   3.631  11.866  0.3578 -0.5502 -1.2100
16646TIP3    H271430   1.878   3.708  11.948 -0.6805  0.0176 -0.4387
16647TIP3   OH271431   3.579   0.281   0.637 -0.5200  0.0366  0.0652
16647TIP3    H171432   3.497   0.233   0.631  0.9481 -2.5490 -0.6658
16647TIP3    H271433   3.619   0.274   0.550  2.4085 -2.6279  1.4299
16648TIP3   OH271434   0.263   0.770  15.589 -0.4426  0.5482 -0.2223
16648TIP3    H171435   0.197   0.757  15.657  0.7216 -0.9695  0.6917
16648TIP3    H271436   0.346   0.766  15.636  0.3744  0.3875 -1.6236
16649TIP3   OH271437   1.275   5.621  15.242 -0.8525  1.2439  0.0187
16649TIP3    H171438   1.341   5.618  15.173 -0.1962  1.7145  0.6038
16649TIP3    H271439   1.313   5.678  15.309 -1.4418  0.7533  0.7947
16650TIP3   OH271440   1.177   3.090  16.258 -0.1558 -0.2251  0.0362
16650TIP3    H171441   1.238   3.131  16.320  0.1810  2.1521 -1.7183
16650TIP3    H271442   1.092   3.091  16.303  0.0673  1.4614  0.4702
16651TIP3   OH271443   2.329   0.289  13.475 -0.2628 -0.0809 -0.0004
16651TIP3    H171444   2.276   0.234  13.418 -1.1816  0.4435  0.3226
16651TIP3    H271445   2.303   0.379  13.453  1.3238  0.2515 -0.6359
16652TIP3   OH271446   6.249   1.609   6.498  0.5119  0.4588 -0.2689
16652TIP3    H171447   6.319   1.660   6.455 -0.7372  0.1747 -2.8236
16652TIP3    H271448   6.196   1.675   6.542  1.3103  0.8800  0.0923
16653TIP3   OH271449   6.117   0.147   6.087  0.1346 -0.1834  0.0298
16653TIP3    H171450   6.194   0.203   6.101  1.1702 -1.4509 -0.3695
16653TIP3    H271451   6.053   0.204   6.045  0.2114  1.3504  1.8885
16654TIP3   OH271452   6.038   0.984  12.023 -0.6669  0.6310 -0.1206
16654TIP3    H171453   6.027   0.891  12.007 -1.5988  0.7349 -0.1381
16654TIP3    H271454   5.949   1.017  12.036 -0.4488  1.7169 -1.2430
16655TIP3   OH271455   5.011   5.962  15.233 -0.6489  0.6571  0.0200
16655TIP3    H171456   5.004   5.973  15.139 -0.9123 -1.3490 -0.2253
16655TIP3    H271457   5.104   5.944  15.248 -0.8401 -0.4573 -0.0520
16656TIP3   OH271458   3.841   3.832  15.305 -0.2411  0.5761  0.2752
16656TIP3    H171459   3.934   3.841  15.283 -0.4846 -0.9876 -1.7371
16656TIP3    H271460   3.796   3.895  15.249 -0.5732 -0.6675 -0.9091
16657TIP3   OH271461   0.002   5.411  13.331  0.1352 -0.6668 -0.4371
16657TIP3    H171462  -0.069   5.469  13.305 -0.2247 -1.3934 -1.1311
16657TIP3    H271463   0.050   5.394  13.249  1.1525 -0.1455  0.0265
16658TIP3   OH271464   6.073   6.485   0.567 -0.2758 -0.1286 -0.2167
16658TIP3    H171465   6.134   6.552   0.536 -0.5907  0.2647  0.0133
16658TIP3    H271466   6.083   6.486   0.662  0.0928 -0.7681 -0.2408
16659TIP3   OH271467   1.028   4.246   1.619 -0.0164 -0.3567  0.0963
16659TIP3    H171468   0.962   4.272   1.555  0.2710  0.6465  0.1935
16659TIP3    H271469   1.068   4.328   1.647  0.4951 -0.8614  0.8807
16660TIP3   OH271470   3.099   5.732   2.798 -0.3609  0.3585 -0.4430
16660TIP3    H171471   3.126   5.656   2.746 -1.0507 -1.8275  2.1976
16660TIP3    H271472   3.014   5.756   2.761  0.5754  0.9894 -2.3604
16661TIP3   OH271473   3.797   2.373  13.581  0.2808 -0.5048  0.1427
16661TIP3    H171474   3.769   2.405  13.495 -1.2555  1.2837  1.2298
16661TIP3    H271475   3.728   2.312  13.608  0.3824 -0.4939  0.4339
16662TIP3   OH271476   4.002   5.938   2.187  0.0525  0.5395  0.0270
16662TIP3    H171477   4.000   6.013   2.128 -1.1471  0.7721  0.3208
16662TIP3    H271478   4.090   5.903   2.179  0.6505  2.0010 -0.0868
16663TIP3   OH271479   0.786   0.429  15.477  0.2320  0.2680  0.5265
16663TIP3    H171480   0.696   0.400  15.464 -0.2389  1.3505  1.2245
16663TIP3    H271481   0.809   0.398  15.564  1.8133 -3.0656 -0.9067
16664TIP3   OH271482   2.678   3.678   2.343  0.5373  0.1459 -0.2619
16664TIP3    H171483   2.585   3.657   2.348  0.7164 -1.4214 -2.3503
16664TIP3    H271484   2.680   3.772   2.323 -0.5415  0.3479  0.4742
16665TIP3   OH271485   4.085   1.951  15.713 -0.4508 -0.3180 -0.6704
16665TIP3    H171486   4.011   1.943  15.773  1.0298  0.5665  1.3779
16665TIP3    H271487   4.162   1.948  15.769  0.9798  2.6593 -2.2544
16666TIP3   OH271488   2.078   0.693   4.720  0.5399  0.3938  0.3550
16666TIP3    H171489   1.990   0.657   4.721  1.2920 -1.6017  1.8887
16666TIP3    H271490   2.070   0.777   4.765 -0.7385  0.7647 -0.5153
16667TIP3   OH271491   3.258   4.339   4.687 -0.1520 -0.1834 -0.4990
16667TIP3    H171492   3.352   4.330   4.673 -0.1452 -2.2203  0.4211
16667TIP3    H271493   3.227   4.390   4.613  1.5946  0.0684 -1.1029
16668TIP3   OH271494   4.044   0.876   1.557  0.2937  0.2507 -0.2869
16668TIP3    H171495   3.957   0.871   1.596 -0.2049  1.4023 -1.2031
16668TIP3    H271496   4.087   0.795   1.585 -1.0091 -0.2666  0.3085
16669TIP3   OH271497   2.878   5.587  16.374 -1.1201  0.3770  0.1713
16669TIP3    H171498   2.796   5.600  16.325 -0.2894  0.7356 -1.1878
16669TIP3    H271499   2.920   5.672  16.372 -1.0425  0.3900  1.5362
16670TIP3   OH271500   4.929   0.559  15.949 -0.4979  0.2723  0.1447
16670TIP3    H171501   4.884   0.546  16.032 -0.7429 -0.3202 -0.0809
16670TIP3    H271502   4.863   0.595  15.890 -0.1937  1.1911  0.3455
16671TIP3   OH271503   4.376   5.881   4.599  0.1465 -0.1044 -0.4698
16671TIP3    H171504   4.398   5.860   4.508  0.1502 -1.6663 -0.1373
16671TIP3    H271505   4.433   5.824   4.651  0.2695  0.8874  0.5340
16672TIP3   OH271506   4.821   5.616  15.537  0.6469 -0.6882 -0.2611
16672TIP3    H171507   4.882   5.690  15.533  0.3343 -0.4574 -0.9205
16672TIP3    H271508   4.810   5.589  15.446 -2.0203  0.7877 -0.4701
16673TIP3   OH271509   6.257   3.177   5.992  0.0070  0.5530  0.3149
16673TIP3    H171510   6.227   3.211   6.076  0.8617  0.8240  0.5237
16673TIP3    H271511   6.351   3.197   5.990 -0.3500  2.4789 -1.6029
16674TIP3   OH271512   4.967   1.494   3.171  0.0611 -0.4251 -0.2256
16674TIP3    H171513   4.896   1.540   3.216 -1.1524 -0.9273 -1.5625
16674TIP3    H271514   5.022   1.460   3.242 -1.8474 -1.2986  0.9041
16675TIP3   OH271515   5.010   2.694   4.638  0.1647  0.2213  0.1787
16675TIP3    H171516   4.918   2.706   4.664  0.5875  0.5318  1.6022
16675TIP3    H271517   5.006   2.687   4.543 -1.4043 -0.4134  0.2498
16676TIP3   OH271518   6.405   2.531  15.740  0.2591 -0.1083  0.7900
16676TIP3    H171519   6.496   2.559  15.727 -0.5611  2.1081 -0.7674
16676TIP3    H271520   6.396   2.453  15.685  0.4540  1.4897 -1.6863
16677TIP3   OH271521   0.740   2.547  16.483 -0.2194 -0.0467  0.2467
16677TIP3    H171522   0.784   2.534  16.399 -0.5377 -0.7370  0.1818
16677TIP3    H271523   0.767   2.635  16.511  2.2997 -0.9576  0.8844
16678TIP3   OH271524   5.712   4.557  12.002  0.1328 -0.7548 -0.5820
16678TIP3    H171525   5.717   4.617  12.077 -0.3029 -1.8504  0.3623
16678TIP3    H271526   5.628   4.577  11.961 -0.4614 -1.3260  0.3020
16679TIP3   OH271527   5.218   6.645  15.004 -0.1925  0.1418  0.4103
16679TIP3    H171528   5.298   6.669  14.957 -0.4337 -1.8666 -1.1561
16679TIP3    H271529   5.150   6.697  14.963 -0.1939 -0.6613 -0.6593
16680TIP3   OH271530   2.956   3.686   5.652  0.4271 -0.3121 -0.1962
16680TIP3    H171531   3.009   3.728   5.719 -0.7400  0.1860  0.4558
16680TIP3    H271532   2.880   3.744   5.642 -1.1266 -2.1183  0.5790
16681TIP3   OH271533   0.649   2.209   5.012 -0.0951 -0.1920 -0.4178
16681TIP3    H171534   0.570   2.242   4.970  0.5972 -0.6649 -2.2237
16681TIP3    H271535   0.703   2.287   5.026 -0.5491  0.0353  0.1088
16682TIP3   OH271536   4.834   0.779   4.885 -0.3570  0.7058 -0.3235
16682TIP3    H171537   4.802   0.836   4.955  0.3647 -1.3669  1.8093
16682TIP3    H271538   4.930   0.784   4.893 -0.2816 -0.2421 -0.5523
16683TIP3   OH271539   6.094   3.388   6.206  0.1086 -0.4901  0.2804
16683TIP3    H171540   6.053   3.336   6.136 -0.3182 -0.4424  0.4913
16683TIP3    H271541   6.106   3.326   6.278 -1.2110 -0.1188  0.8560
16684TIP3   OH271542   2.125   5.386  16.686 -0.0930 -0.1568  0.1341
16684TIP3    H171543   2.102   5.428  16.603 -2.1575 -0.1837  0.6526
16684TIP3    H271544   2.055   5.323  16.702  0.9308 -1.0612  1.3039
16685TIP3   OH271545   1.042   0.891  11.203  0.5516 -0.5982 -0.3936
16685TIP3    H171546   1.088   0.924  11.280 -0.9142 -0.7074  0.5599
16685TIP3    H271547   1.041   0.964  11.142  0.3523  0.0054  0.3257
16686TIP3   OH271548   6.752   4.342  16.518 -0.0338  0.8942  0.6546
16686TIP3    H171549   6.705   4.377  16.593 -0.5439  0.0249  0.7410
16686TIP3    H271550   6.794   4.419  16.479 -0.2462  1.4397  1.4736
16687TIP3   OH271551   0.486   1.585  17.188  0.2610 -0.4052  0.7001
16687TIP3    H171552   0.395   1.614  17.179  0.3787 -0.0113  0.7465
16687TIP3    H271553   0.519   1.633  17.265  0.6308 -0.2228  0.4344
16688TIP3   OH271554   4.052   0.143  16.913  0.0508  0.3901  0.6698
16688TIP3    H171555   4.081   0.103  16.995 -0.0196 -2.0417 -0.4113
16688TIP3    H271556   4.014   0.071  16.863 -0.9708  2.0243 -1.0599
16689TIP3   OH271557   6.340   6.310  14.518 -0.3674  0.4691  0.8570
16689TIP3    H171558   6.297   6.262  14.447 -1.0685  0.3704  1.3367
16689TIP3    H271559   6.368   6.393  14.478  1.2369 -0.4817 -0.0908
16690TIP3   OH271560   6.687   2.381   5.417 -0.2642  0.9745 -0.3265
16690TIP3    H171561   6.633   2.398   5.339 -1.4022 -0.1445  0.1773
16690TIP3    H271562   6.651   2.300   5.453 -0.4052  1.9705  1.9184
16691TIP3   OH271563   3.434   2.885  13.500  0.2730  0.5160 -0.4730
16691TIP3    H171564   3.468   2.862  13.413 -0.4293 -0.2641 -0.5461
16691TIP3    H271565   3.511   2.917  13.547  1.0603 -0.8518 -0.7705
16692TIP3   OH271566   0.254   2.233  16.951  0.4481  0.0018 -0.2807
16692TIP3    H171567   0.327   2.184  16.913  0.4324 -1.3330  1.2785
16692TIP3    H271568   0.267   2.323  16.922  2.0060 -0.4439 -1.0536
16693TIP3   OH271569   5.345   0.785  12.826  0.3161 -0.2861  0.1964
16693TIP3    H171570   5.265   0.733  12.827  0.1412 -0.0110  1.0742
16693TIP3    H271571   5.324   0.864  12.876 -0.0365  1.5658 -2.6309
16694TIP3   OH271572   4.244   4.012  11.700 -0.0583  0.2511 -0.0782
16694TIP3    H171573   4.179   3.964  11.751 -0.1781  0.6632  0.1623
16694TIP3    H271574   4.290   3.944  11.650 -0.9254 -0.0027 -0.5466
16695TIP3   OH271575   4.303   3.945   0.174  0.0637 -0.7456 -0.5019
16695TIP3    H171576   4.274   3.860   0.204 -1.3826 -0.6486 -1.5311
16695TIP3    H271577   4.249   4.008   0.223 -0.6413 -0.5249 -1.5214
16696TIP3   OH271578   0.014   1.370   4.190 -0.0822  0.3636  0.5246
16696TIP3    H171579   0.058   1.380   4.275  1.4784  2.9491 -0.4737
16696TIP3    H271580   0.080   1.330   4.133 -0.8303 -0.5640  0.2829
16697TIP3   OH271581   3.544   3.124  13.862 -0.5441  0.1162  0.6482
16697TIP3    H171582   3.476   3.179  13.823 -2.6234 -3.4105 -1.2097
16697TIP3    H271583   3.511   3.104  13.949  0.4895  2.1083  1.5475
16698TIP3   OH271584   1.687   6.081  11.927  0.4576  0.0476 -0.3923
16698TIP3    H171585   1.631   6.022  11.978  2.6818 -0.5096  1.5800
16698TIP3    H271586   1.660   6.169  11.953  0.7319 -0.2155  0.8098
16699TIP3   OH271587   5.782   3.000   5.854 -0.0186 -0.0384 -0.2065
16699TIP3    H171588   5.759   3.088   5.823  0.3109  1.2071  2.6727
16699TIP3    H271589   5.877   3.004   5.868  0.3639 -1.5924 -1.9094
16700TIP3   OH271590   6.802   6.791  16.751 -0.4073  0.3070 -0.0406
16700TIP3    H171591   6.708   6.774  16.758 -0.4065  0.2415 -0.1926
16700TIP3    H271592   6.817   6.805  16.657  0.2230 -2.4870 -0.4504
16701TIP3   OH271593   3.618   1.369  11.781  0.1299  0.0982 -0.3082
16701TIP3    H171594   3.697   1.381  11.833  0.1260 -0.7606 -0.0891
16701TIP3    H271595   3.615   1.446  11.723  1.9045 -0.5531 -1.3478
16702TIP3   OH271596   6.560   5.398  17.164 -0.1651  0.1872  0.2226
16702TIP3    H171597   6.538   5.434  17.250  0.1099  1.4579 -0.2247
16702TIP3    H271598   6.583   5.307  17.182 -0.6724  0.2780  1.4145
16703TIP3   OH271599   1.314   1.284   4.376 -0.4116 -0.0080 -0.3420
16703TIP3    H171600   1.306   1.373   4.341 -0.5212 -0.7414 -2.2776
16703TIP3    H271601   1.408   1.264   4.371 -0.2655  0.2592  0.8699
16704TIP3   OH271602   2.284   3.220   4.552  0.6559  0.0574 -0.9783
16704TIP3    H171603   2.207   3.242   4.605 -1.7764 -4.0310 -2.4336
16704TIP3    H271604   2.292   3.294   4.491 -1.4917  1.0876 -0.1426
16705TIP3   OH271605   3.057   3.143  16.021  0.3442  0.3783 -0.3902
16705TIP3    H171606   3.148   3.174  16.015 -0.3655  2.7100  0.0924
16705TIP3    H271607   3.038   3.106  15.935  2.7167 -3.2178  0.4163
16706TIP3   OH271608   6.465   1.577   4.747 -0.0620  0.0271 -0.4464
16706TIP3    H171609   6.539   1.638   4.737  1.0177 -1.2625 -0.5739
16706TIP3    H271610   6.478   1.537   4.833 -0.4909 -0.3645 -0.5607
16707TIP3   OH271611   6.403   6.229   2.061  0.0405 -0.1385  0.3078
16707TIP3    H171612   6.415   6.321   2.038  1.1543 -0.8808 -2.4583
16707TIP3    H271613   6.354   6.232   2.144  0.1209  2.9018  0.3838
16708TIP3   OH271614   5.961   5.389   2.428  0.1725 -0.0320  0.2384
16708TIP3    H171615   5.875   5.347   2.422  0.3104 -0.1751 -1.0417
16708TIP3    H271616   5.966   5.421   2.518 -1.7981  1.1966 -0.0244
16709TIP3   OH271617   5.732   4.562  16.792 -0.6068  0.5045  0.0346
16709TIP3    H171618   5.703   4.637  16.844 -1.2757  0.1255  0.2223
16709TIP3    H271619   5.655   4.537  16.741 -0.3546  0.0226 -0.1203
16710TIP3   OH271620   3.218   4.497  14.066  0.1143  0.2237  0.3044
16710TIP3    H171621   3.309   4.527  14.066 -0.2055  1.2641 -0.5107
16710TIP3    H271622   3.166   4.578  14.075 -0.7228 -0.5136  2.9926
16711TIP3   OH271623   1.679   0.386  12.221 -0.1359 -0.4153  0.0412
16711TIP3    H171624   1.628   0.321  12.174  0.3500 -1.3560  0.7837
16711TIP3    H271625   1.661   0.369  12.313 -0.6607  1.0511  0.2331
16712TIP3   OH271626   3.296   5.910   2.574 -0.4088 -0.1838 -0.0750
16712TIP3    H171627   3.372   5.963   2.550  0.6792 -1.5255  0.2828
16712TIP3    H271628   3.237   5.916   2.498  0.2745  0.4600 -0.5683
16713TIP3   OH271629   0.424   1.993  13.848  0.7356  0.2784  0.1373
16713TIP3    H171630   0.463   1.989  13.760  0.6232 -1.6903  0.1281
16713TIP3    H271631   0.497   1.975  13.907  0.3606 -0.9378  0.2658
16714TIP3   OH271632   3.838   4.127  17.116  0.0035 -0.2019  0.1457
16714TIP3    H171633   3.822   4.179  17.194  1.0843 -0.5039  0.5945
16714TIP3    H271634   3.753   4.090  17.093 -0.1921 -0.7543  1.6577
16715TIP3   OH271635   5.478   3.098  11.804 -0.0142 -0.1868 -0.0243
16715TIP3    H171636   5.414   3.146  11.751  0.3270 -2.8717 -3.2059
16715TIP3    H271637   5.556   3.154  11.803 -0.1406  0.0450 -2.1989
16716TIP3   OH271638   6.091   4.293  13.711 -0.2219 -0.7045 -0.0465
16716TIP3    H171639   6.169   4.301  13.766 -0.0886 -0.8848 -0.2104
16716TIP3    H271640   6.084   4.199  13.693 -0.7202 -0.7418  0.3167
16717TIP3   OH271641   5.106   3.979  16.557 -0.2307 -0.7142  0.3022
16717TIP3    H171642   5.113   3.922  16.634  0.1896  0.8283  1.4690
16717TIP3    H271643   5.013   4.000  16.551 -0.1348 -0.0380  1.0290
16718TIP3   OH271644   4.726   5.950  17.051 -0.1198  1.4332 -0.0545
16718TIP3    H171645   4.680   5.988  17.125  1.7991  2.3234  0.7459
16718TIP3    H271646   4.658   5.938  16.984 -1.9431  0.4349  1.8580
16719TIP3   OH271647   0.440   6.202  13.460  0.2826  0.3086 -0.3507
16719TIP3    H171648   0.500   6.130  13.475  0.5136  0.5133 -0.2918
16719TIP3    H271649   0.416   6.195  13.367  0.0850 -0.0092 -0.2773
16720TIP3   OH271650   0.045   4.548  15.492  0.0513  0.3060 -0.2311
16720TIP3    H171651   0.109   4.570  15.424  0.1347  2.4065  0.4694
16720TIP3    H271652   0.083   4.583  15.573 -1.2141  0.0952  0.4795
16721TIP3   OH271653   1.352   1.033  15.783 -0.2422 -0.3723 -0.2113
16721TIP3    H171654   1.323   1.072  15.700 -2.5425 -0.9245  0.2651
16721TIP3    H271655   1.430   1.083  15.807 -0.9546  1.4413 -1.4792
16722TIP3   OH271656   0.356   2.908  17.105  0.6060  0.0435  0.0227
16722TIP3    H171657   0.284   2.868  17.057  1.4719 -0.0681 -1.2184
16722TIP3    H271658   0.333   3.001  17.110  0.6395  0.1057 -0.8586
16723TIP3   OH271659   3.345   1.161   4.457  0.7284  0.1450  0.8247
16723TIP3    H171660   3.352   1.256   4.445  2.2846 -0.1969 -1.4508
16723TIP3    H271661   3.346   1.149   4.552 -2.2852  2.5308  1.3169
16724TIP3   OH271662   6.292   0.409  16.144  0.4149  0.6763  0.0774
16724TIP3    H171663   6.354   0.463  16.194 -1.1624  0.7486  2.0858
16724TIP3    H271664   6.249   0.471  16.085  0.4836  1.1251  0.4834
16725TIP3   OH271665   0.306   1.247   2.975 -0.6028  0.6844  0.5317
16725TIP3    H171666   0.301   1.253   2.879  0.4617  0.7814  0.4757
16725TIP3    H271667   0.285   1.156   2.995  1.2225  0.1191  0.0391
16726TIP3   OH271668   0.206   2.334   2.158 -0.1932 -0.1751  0.4775
16726TIP3    H171669   0.117   2.304   2.177 -1.1290  2.3764  0.4312
16726TIP3    H271670   0.226   2.395   2.229  1.1726 -0.0021 -0.0323
16727TIP3   OH271671   1.107   0.290   2.290 -0.2849  0.1555  0.3502
16727TIP3    H171672   1.151   0.207   2.311  1.5818  1.0035 -0.0714
16727TIP3    H271673   1.057   0.270   2.210  0.9605 -0.3167 -0.3414
16728TIP3   OH271674   2.543   6.308   3.704  0.1213  0.0136 -0.1151
16728TIP3    H171675   2.578   6.325   3.617 -1.3984 -4.6404 -1.9237
16728TIP3    H271676   2.450   6.332   3.697 -0.2508 -1.3900 -0.1817
16729TIP3   OH271677   2.953   3.954  14.860  0.1627 -0.2416  0.3145
16729TIP3    H171678   3.016   3.904  14.911 -0.2088  0.2028  1.2204
16729TIP3    H271679   2.965   4.044  14.889 -0.4037 -0.0567 -0.0151
16730TIP3   OH271680   2.478   1.027   1.546 -0.4933 -0.1202 -0.5513
16730TIP3    H171681   2.501   1.114   1.578 -2.0925  0.1790 -0.1085
16730TIP3    H271682   2.391   1.010   1.583 -0.5841 -1.5410 -1.3379
16731TIP3   OH271683   2.557   3.599  16.473 -0.4175  0.2738 -0.0925
16731TIP3    H171684   2.461   3.594  16.472 -0.3840 -0.5086  0.1070
16731TIP3    H271685   2.584   3.555  16.393 -0.2598  2.0356 -1.0749
16732TIP3   OH271686   1.298   4.561  11.702 -0.0875  0.3577 -0.2336
16732TIP3    H171687   1.278   4.497  11.770  2.0868  0.5482  0.6758
16732TIP3    H271688   1.218   4.612  11.693 -1.5394 -1.7927 -0.2466
16733TIP3   OH271689   3.025   6.233  15.522  0.3427  0.2430  0.3654
16733TIP3    H171690   3.053   6.253  15.611  0.9529  0.5673  0.1053
16733TIP3    H271691   3.087   6.279  15.466  1.0834 -1.3969 -0.2536
16734TIP3   OH271692   6.390   0.136   2.740 -0.2773 -0.9488  0.0267
16734TIP3    H171693   6.317   0.126   2.680  0.8396 -2.6378 -1.1419
16734TIP3    H271694   6.438   0.053   2.735  1.6201  0.0090  0.8757
16735TIP3   OH271695   3.174   1.325  15.776  0.6170  0.2036  0.0149
16735TIP3    H171696   3.104   1.385  15.750  0.1086  0.9589  2.7857
16735TIP3    H271697   3.246   1.343  15.715 -1.4439 -0.4955 -2.8327
16736TIP3   OH271698   1.184   6.593   4.748  0.0200 -0.8647  0.0092
16736TIP3    H171699   1.186   6.660   4.817  1.4310 -0.6486 -0.2180
16736TIP3    H271700   1.213   6.639   4.669  1.4256 -1.8022 -0.0619
16737TIP3   OH271701   0.880   4.213  16.738  0.2715 -0.0028  0.2144
16737TIP3    H171702   0.963   4.210  16.691  0.1774 -3.4492  0.0567
16737TIP3    H271703   0.847   4.302  16.722  2.5754  0.5590 -2.0681
16738TIP3   OH271704   2.027   6.055   3.402 -0.2117 -0.4887  0.3107
16738TIP3    H171705   2.041   5.961   3.420  3.2142 -0.2494 -0.4401
16738TIP3    H271706   2.064   6.099   3.479 -0.6810  0.2902  0.0942
16739TIP3   OH271707   2.531   1.932  12.019  0.3842  0.3424  0.2156
16739TIP3    H171708   2.569   2.020  12.024 -1.4289  1.3222 -1.7781
16739TIP3    H271709   2.441   1.947  11.990  0.5188 -2.2620 -1.8426
16740TIP3   OH271710   6.653   6.785  12.222  0.5955 -0.2499  0.0949
16740TIP3    H171711   6.622   6.840  12.149 -1.8147  1.3246  2.1305
16740TIP3    H271712   6.705   6.845  12.276  0.6787 -0.8545  0.6943
16741TIP3   OH271713   3.303   4.971   1.086  0.2725  0.1357 -0.0709
16741TIP3    H171714   3.241   5.004   1.151  2.5791  2.8295  0.9654
16741TIP3    H271715   3.290   4.876   1.087 -2.1854  0.3776  1.7122
16742TIP3   OH271716   1.623   1.346   4.782 -0.3218 -0.1412 -0.4021
16742TIP3    H171717   1.579   1.374   4.863  1.5774 -0.3011  0.7449
16742TIP3    H271718   1.620   1.423   4.726  1.5801  1.2937  1.2975
16743TIP3   OH271719   5.713   2.289   0.934 -0.3838 -0.0450  0.0756
16743TIP3    H171720   5.679   2.378   0.929  0.8850  0.5075  0.7791
16743TIP3    H271721   5.805   2.300   0.961 -0.0786 -1.5365 -0.2771
16744TIP3   OH271722   0.219   5.631   1.020  0.0631 -0.1231  0.3653
16744TIP3    H171723   0.260   5.563   1.073 -1.2946 -0.8686  0.5052
16744TIP3    H271724   0.186   5.584   0.943 -0.1584  0.5298  0.0573
16745TIP3   OH271725   0.820   3.673  16.045 -0.0045 -0.6589 -0.5871
16745TIP3    H171726   0.742   3.620  16.030 -0.4172 -0.6676  1.4049
16745TIP3    H271727   0.789   3.763  16.035 -0.5008 -0.6256  0.9694
16746TIP3   OH271728   4.320   0.042   2.601  0.0022  0.3281  0.0018
16746TIP3    H171729   4.256  -0.000   2.544  0.7706 -0.6819 -0.1369
16746TIP3    H271730   4.288   0.026   2.690 -0.3822  0.5779 -0.0876
16747TIP3   OH271731   3.111   6.630   5.204  0.4601 -0.4387 -0.3498
16747TIP3    H171732   3.042   6.649   5.267  0.1298  0.1854 -0.8813
16747TIP3    H271733   3.169   6.568   5.249 -1.4108 -2.4295 -0.5104
16748TIP3   OH271734   1.640   0.543   2.821 -0.1725 -0.5363  0.5733
16748TIP3    H171735   1.666   0.586   2.902  1.9420  3.0081 -1.7275
16748TIP3    H271736   1.693   0.463   2.818  2.2223  0.9282  1.2157
16749TIP3   OH271737   2.695   6.751  17.140  0.2512  0.0358 -0.2940
16749TIP3    H171738   2.640   6.736  17.063  0.0460 -1.3649  0.0899
16749TIP3    H271739   2.783   6.727  17.112  0.2941  0.2078 -0.3019
16750TIP3   OH271740   4.255   1.499   0.405 -0.3877 -0.1608 -0.6378
16750TIP3    H171741   4.220   1.533   0.322  0.1322 -0.2719 -0.9071
16750TIP3    H271742   4.332   1.447   0.379  1.1224  1.5914  0.0518
16751TIP3   OH271743   3.073   0.755  16.285 -0.2649 -0.2334 -0.1612
16751TIP3    H171744   3.123   0.719  16.211 -0.1855  0.0452 -0.2440
16751TIP3    H271745   3.018   0.823  16.245 -0.2651 -0.1235  0.0277
16752TIP3   OH271746   5.659   5.484  12.738 -0.6297 -0.5541  0.5159
16752TIP3    H171747   5.704   5.502  12.820 -1.1400 -2.1423  1.1883
16752TIP3    H271748   5.568   5.510  12.755 -0.6239 -0.3507  0.2453
16753TIP3   OH271749   3.062   4.544  11.694 -0.2304 -0.0300 -0.0503
16753TIP3    H171750   3.072   4.638  11.677 -1.1242  0.1741  0.4497
16753TIP3    H271751   3.116   4.502  11.629 -1.3376  0.7835 -1.5703
16754TIP3   OH271752   3.547   0.657   3.297 -0.0390 -0.6335 -0.7111
16754TIP3    H171753   3.595   0.740   3.303  0.2517 -0.7530 -1.2790
16754TIP3    H271754   3.505   0.648   3.383  2.0228 -1.1672  0.3275
16755TIP3   OH271755   3.624   6.350   3.293 -0.5369  0.5680  0.7370
16755TIP3    H171756   3.627   6.390   3.206  0.3555 -0.7006  0.1654
16755TIP3    H271757   3.599   6.259   3.278 -1.7416  0.6537  1.9484
16756TIP3   OH271758   2.450   5.151   5.639 -0.3436  0.0262 -0.4746
16756TIP3    H171759   2.406   5.179   5.720  0.2849 -0.8240  0.1793
16756TIP3    H271760   2.518   5.217   5.626 -1.4761  1.0793 -1.2274
16757TIP3   OH271761   5.585   1.684   1.068 -0.1892 -0.3806 -0.3438
16757TIP3    H171762   5.660   1.721   1.022  1.0763 -1.0247  1.1428
16757TIP3    H271763   5.518   1.675   1.000  0.3188  2.1469 -1.2876
16758TIP3   OH271764   5.195   3.436  16.757  0.2626 -0.3930 -0.4633
16758TIP3    H171765   5.215   3.360  16.810  1.6988  0.0496 -0.3119
16758TIP3    H271766   5.260   3.433  16.686  0.4427  0.7372 -0.3731
16759TIP3   OH271767   1.552   2.344  11.501 -0.0137  0.2231 -0.2263
16759TIP3    H171768   1.539   2.438  11.510 -1.6198 -0.0364  0.5480
16759TIP3    H271769   1.567   2.330  11.407 -0.0592  1.2101 -0.3876
16760TIP3   OH271770   0.325   5.093  15.168 -0.8018 -0.4064 -0.0953
16760TIP3    H171771   0.230   5.086  15.161 -1.4406 -1.8069  5.5523
16760TIP3    H271772   0.354   5.003  15.184  1.4121  0.1327 -0.7666
16761TIP3   OH271773   0.071   2.041  12.708 -0.2054  0.2405  0.2143
16761TIP3    H171774  -0.006   2.080  12.667 -0.4012  0.2820  0.6099
16761TIP3    H271775   0.140   2.046  12.642  0.1887  2.5629  0.7062
16762TIP3   OH271776   4.157   2.019  15.471 -0.1362 -0.4328  0.6650
16762TIP3    H171777   4.119   1.990  15.554  0.4526 -2.0240  0.4168
16762TIP3    H271778   4.113   2.101  15.451 -1.9815 -1.1940  1.4002
16763TIP3   OH271779   2.790   2.642  12.239 -0.1660 -0.0248  0.6780
16763TIP3    H171780   2.800   2.586  12.162 -1.6561 -0.3734  0.7047
16763TIP3    H271781   2.879   2.667  12.263  0.2931  1.6712 -2.3030
16764TIP3   OH271782   4.819   2.320   2.880  0.5735 -0.3946  0.4432
16764TIP3    H171783   4.740   2.273   2.852  1.2054 -0.8143 -0.6923
16764TIP3    H271784   4.828   2.297   2.973 -0.4668 -0.5830  0.5162
16765TIP3   OH271785   4.968   3.186   0.758  0.4609 -0.4975  0.6863
16765TIP3    H171786   5.030   3.249   0.719 -1.1705  0.7303 -0.0464
16765TIP3    H271787   5.006   3.166   0.843  1.8620  0.2125  0.2723
16766TIP3   OH271788   4.554   6.412   0.941 -0.1090  0.1196  0.0384
16766TIP3    H171789   4.480   6.370   0.985 -0.6896  0.9130 -0.1383
16766TIP3    H271790   4.579   6.351   0.872 -1.3532  0.3187 -0.6250
16767TIP3   OH271791   5.692   5.331  16.387 -0.4270  0.3073  0.1560
16767TIP3    H171792   5.676   5.394  16.457 -3.6405 -1.6573  1.4182
16767TIP3    H271793   5.727   5.254  16.431  0.2469  0.0290 -0.8402
16768TIP3   OH271794   4.129   0.069  16.271  0.4961  0.1965  0.1976
16768TIP3    H171795   4.153   0.161  16.259 -0.4355  0.3892 -0.3143
16768TIP3    H271796   4.051   0.071  16.326  0.9462 -0.3424  0.8665
16769TIP3   OH271797   3.749   1.624   4.329 -0.1770  0.0806  0.3165
16769TIP3    H171798   3.740   1.533   4.358  1.5671  0.1320  1.1513
16769TIP3    H271799   3.774   1.617   4.236 -1.0299 -0.2394  0.1000
16770TIP3   OH271800   5.650   2.342  14.039 -0.0693 -0.1076  0.5236
16770TIP3    H171801   5.647   2.320  13.946 -1.9551  0.5984  0.3624
16770TIP3    H271802   5.726   2.400  14.048  1.0989 -1.4612 -0.2275
16771TIP3   OH271803   3.103   0.861  10.572 -0.4082 -0.5095 -0.4197
16771TIP3    H171804   3.177   0.808  10.602 -0.8403 -0.9780 -0.1878
16771TIP3    H271805   3.143   0.925  10.513  0.5283  0.7217  1.4488
16772TIP3   OH271806   1.435   3.270   2.191  0.0368 -0.2362 -0.2393
16772TIP3    H171807   1.432   3.366   2.198  0.4213 -0.2129 -0.3564
16772TIP3    H271808   1.351   3.246   2.153  0.5334  0.1891 -1.6778
16773TIP3   OH271809   6.537   6.468  15.212 -0.5169 -0.5845 -0.0276
16773TIP3    H171810   6.454   6.475  15.260  1.0790  0.2337  2.8929
16773TIP3    H271811   6.524   6.519  15.133 -2.6707 -0.1582  0.5350
16774TIP3   OH271812   3.535   0.998   0.688  0.5095 -0.0346 -0.4700
16774TIP3    H171813   3.513   0.980   0.597 -1.6659 -0.8990  0.1545
16774TIP3    H271814   3.619   0.953   0.702 -0.8486 -3.0686 -1.1338
16775TIP3   OH271815   1.473   6.161  13.552 -0.6297  0.6900  0.3233
16775TIP3    H171816   1.454   6.105  13.627 -1.6626 -1.0455 -1.1569
16775TIP3    H271817   1.389   6.198  13.527 -0.4791  0.4845 -0.5378
16776TIP3   OH271818   1.829   1.648   5.246 -0.4974 -0.1291  0.2065
16776TIP3    H171819   1.793   1.736   5.229  0.6774  0.1200 -1.2315
16776TIP3    H271820   1.819   1.636   5.340 -2.8564  0.5563  0.1306
16777TIP3   OH271821   4.580   4.029  14.052  0.2204  0.3922  0.0863
16777TIP3    H171822   4.550   4.024  13.962  1.9437  0.2979 -0.5109
16777TIP3    H271823   4.511   4.079  14.097  1.1223  4.0390 -2.1177
16778TIP3   OH271824   5.635   0.821   5.489  0.2152  0.3277  0.0232
16778TIP3    H171825   5.613   0.729   5.476  2.0076  0.1171 -1.9325
16778TIP3    H271826   5.556   0.868   5.463 -0.5835 -0.6066  0.6662
16779TIP3   OH271827   3.135   2.150  16.604 -0.6108 -0.2032 -0.1765
16779TIP3    H171828   3.220   2.117  16.632 -0.7474 -1.1599 -0.8291
16779TIP3    H271829   3.075   2.076  16.617 -0.9811 -0.1412 -1.4005
16780TIP3   OH271830   4.426   2.138  14.895  0.1247  0.5716 -0.4397
16780TIP3    H171831   4.466   2.097  14.972  1.4958  1.2428 -0.7584
16780TIP3    H271832   4.345   2.090  14.881  0.7886 -0.8051  0.2834
16781TIP3   OH271833   0.823   1.731  13.940 -0.8095 -0.2378 -0.6788
16781TIP3    H171834   0.834   1.670  14.013 -0.3077  0.2421 -0.3489
16781TIP3    H271835   0.910   1.769  13.926 -0.9733 -0.0633 -1.2995
16782TIP3   OH271836   2.952   4.908  15.789 -0.0461  0.3334  0.7481
16782TIP3    H171837   2.954   5.002  15.807  1.0251  0.4288  0.2192
16782TIP3    H271838   2.934   4.903  15.695  2.5268  0.1208  0.2121
16783TIP3   OH271839   1.715   3.354   5.724 -0.1019  0.5841  0.0302
16783TIP3    H171840   1.724   3.274   5.775 -0.1247  1.7522  1.9752
16783TIP3    H271841   1.806   3.382   5.708 -0.0877 -0.0244 -1.0051
16784TIP3   OH271842   3.505   2.563  13.566  0.6578  0.2637 -0.3843
16784TIP3    H171843   3.452   2.584  13.489  0.4083 -1.4082 -0.6960
16784TIP3    H271844   3.589   2.606  13.550  0.4143  0.4145 -1.3195
16785TIP3   OH271845   1.519   3.612   1.153 -0.6041 -0.7089 -0.8216
16785TIP3    H171846   1.603   3.592   1.112  0.4071  1.5128  0.0074
16785TIP3    H271847   1.457   3.554   1.110  1.1196 -1.4294 -2.4646
16786TIP3   OH271848   0.829   3.836   2.978  0.2775  0.6092  0.1303
16786TIP3    H171849   0.758   3.811   3.037 -0.3573  0.8624 -0.5166
16786TIP3    H271850   0.907   3.835   3.033 -0.0679 -0.6222  0.6197
16787TIP3   OH271851   4.217   4.871  13.687  0.1583  0.3255  0.7286
16787TIP3    H171852   4.122   4.868  13.676  0.2002 -0.8741  0.5582
16787TIP3    H271853   4.232   4.838  13.776  0.5549 -2.3852 -0.2578
16788TIP3   OH271854   2.884   4.918   1.090  0.4734  0.4141 -0.1329
16788TIP3    H171855   2.943   4.960   1.027  1.3980  1.0346  1.1165
16788TIP3    H271856   2.859   4.987   1.151  3.2682 -0.9819  2.9204
16789TIP3   OH271857   0.925   0.201  15.239 -0.5547 -0.0476  0.1327
16789TIP3    H171858   0.859   0.270  15.236 -1.8498 -1.2378  0.1298
16789TIP3    H271859   0.913   0.159  15.324 -1.2170 -1.5670 -0.6597
16790TIP3   OH271860   1.193   2.120  12.886 -0.2451 -0.2941  0.1691
16790TIP3    H171861   1.132   2.181  12.927 -0.0361 -0.1280  0.2301
16790TIP3    H271862   1.211   2.055  12.954 -2.0744 -1.6107 -0.5215
16791TIP3   OH271863   4.925   3.048  14.880 -0.2376  0.4163 -0.2891
16791TIP3    H171864   5.004   2.994  14.873  0.5846  1.1110  2.5811
16791TIP3    H271865   4.854   2.984  14.891  0.3139 -0.1558  0.0214
16792TIP3   OH271866   4.412   1.152  16.103  0.7225  0.7196  0.3762
16792TIP3    H171867   4.333   1.154  16.050  1.0398  0.6872 -0.0998
16792TIP3    H271868   4.384   1.112  16.186  0.2367  0.7310  0.2196
16793TIP3   OH271869   1.318   0.135   5.910 -0.1521  0.3617 -0.3159
16793TIP3    H171870   1.340   0.227   5.926  0.8509 -0.2347  2.1754
16793TIP3    H271871   1.246   0.117   5.970 -1.7765 -0.0194 -2.2548
16794TIP3   OH271872   0.372   0.519   1.482  0.3943 -0.5867 -0.2339
16794TIP3    H171873   0.325   0.595   1.515  1.4646  0.0571 -0.1267
16794TIP3    H271874   0.317   0.485   1.411  0.1717  0.6348 -0.6668
16795TIP3   OH271875   2.351   5.763   1.713  0.6265  0.2766 -0.4729
16795TIP3    H171876   2.263   5.764   1.749  1.2271 -0.0470  1.0999
16795TIP3    H271877   2.387   5.678   1.741  1.7041  0.7535 -0.3559
16796TIP3   OH271878   4.820   6.349  13.446  0.2600  0.0227  0.0495
16796TIP3    H171879   4.806   6.275  13.387  1.1753  0.8250 -1.2200
16796TIP3    H271880   4.734   6.392  13.452 -0.1376 -0.7855  0.3493
16797TIP3   OH271881   0.018   4.366   0.907 -0.2576  0.0827  0.2488
16797TIP3    H171882  -0.025   4.416   0.838 -0.8467 -0.3880  0.2625
16797TIP3    H271883   0.036   4.281   0.868 -0.2044 -0.0434  0.5423
16798TIP3   OH271884   0.759   1.052  11.367 -0.2616  0.2729 -0.4015
16798TIP3    H171885   0.803   0.968  11.358  1.1394  1.0069 -0.6316
16798TIP3    H271886   0.770   1.095  11.283  0.0789  1.1735  0.0880
16799TIP3   OH271887   3.546   0.782  13.390 -0.1200  0.5880  0.6241
16799TIP3    H171888   3.502   0.718  13.446 -2.1508  0.7748 -0.6859
16799TIP3    H271889   3.513   0.765  13.302  1.9198  1.2297 -0.3429
16800TIP3   OH271890   5.375   6.436   0.563 -0.0351 -0.1278  0.0609
16800TIP3    H171891   5.457   6.441   0.612 -0.2994  0.2366  0.4762
16800TIP3    H271892   5.320   6.504   0.601  0.1281  0.9253 -1.4767
16801TIP3   OH271893   0.636   6.006  14.801 -0.1059  0.1619  0.2823
16801TIP3    H171894   0.647   5.965  14.715  2.1343  0.4993  0.3504
16801TIP3    H271895   0.691   5.953  14.859  1.2445  2.0274  0.7714
16802TIP3   OH271896   6.017   1.915  15.856 -0.2806 -0.3382 -0.0905
16802TIP3    H171897   6.099   1.877  15.885 -0.5880 -0.6276  0.4089
16802TIP3    H271898   5.955   1.895  15.926 -1.2024 -1.6162 -1.2180
16803TIP3   OH271899   0.820   3.809  11.676  0.1473 -0.5585 -0.5844
16803TIP3    H171900   0.798   3.776  11.590  1.2321  0.6353 -1.3656
16803TIP3    H271901   0.914   3.790  11.686 -0.1819 -1.6224  0.7901
16804TIP3   OH271902   5.672   4.265   1.301 -0.2909  0.1996 -0.0803
16804TIP3    H171903   5.758   4.224   1.306 -1.0426 -1.3320  2.5099
16804TIP3    H271904   5.611   4.191   1.294 -1.4427  1.2186 -1.2312
16805TIP3   OH271905   3.638   2.935   4.287 -0.1355  0.4902 -0.1646
16805TIP3    H171906   3.717   2.976   4.252 -0.1360  0.5674 -0.0745
16805TIP3    H271907   3.583   2.920   4.210 -1.2981  3.1182  0.0760
16806TIP3   OH271908   1.836   4.007  12.125 -0.2517 -0.0316 -0.9525
16806TIP3    H171909   1.861   3.946  12.056  1.3983 -0.3054 -0.1526
16806TIP3    H271910   1.749   4.039  12.099 -0.4181 -1.4395 -2.2402
16807TIP3   OH271911   6.225   2.701  13.724  0.9152  0.6107  0.3654
16807TIP3    H171912   6.298   2.657  13.682  1.5697  0.9803  1.0816
16807TIP3    H271913   6.252   2.711  13.816 -0.2059  0.3749  0.7445
16808TIP3   OH271914   5.624   0.581   1.473  0.2592  0.4830  0.1973
16808TIP3    H171915   5.687   0.573   1.544  0.4675 -2.5412 -0.1955
16808TIP3    H271916   5.539   0.592   1.517  0.2827 -2.0725  1.0519
16809TIP3   OH271917   5.707   5.682  15.322  0.1144  0.3085 -0.2570
16809TIP3    H171918   5.699   5.654  15.413  1.5413  1.7398  0.3654
16809TIP3    H271919   5.635   5.745  15.311 -0.9247 -0.8977 -0.5858
16810TIP3   OH271920   2.373   3.838  11.470  0.5316  0.1109 -0.3900
16810TIP3    H171921   2.413   3.782  11.403 -1.1182 -0.1933 -1.1531
16810TIP3    H271922   2.286   3.802  11.484  0.6180  0.5292  1.5241
16811TIP3   OH271923   1.574   6.088  14.563 -0.3626 -0.3353 -0.8559
16811TIP3    H171924   1.577   5.998  14.597 -0.2713  0.0961  0.3187
16811TIP3    H271925   1.588   6.078  14.469 -1.2791 -1.6279 -0.8839
16812TIP3   OH271926   1.524   3.626   3.882 -0.2336 -0.2798 -0.1515
16812TIP3    H171927   1.581   3.550   3.866  0.0074  0.2062 -1.7161
16812TIP3    H271928   1.448   3.611   3.826 -0.6514  0.1522  0.2897
16813TIP3   OH271929   6.088   0.787   2.217 -0.1464 -1.0390 -0.7995
16813TIP3    H171930   6.061   0.846   2.146 -0.4872  1.3649  1.2080
16813TIP3    H271931   6.059   0.830   2.297  2.6409 -2.2552  1.0195
16814TIP3   OH271932   2.463   3.197   0.764 -0.6087  0.6753 -0.1237
16814TIP3    H171933   2.508   3.137   0.704  1.3483  1.2137  0.7289
16814TIP3    H271934   2.370   3.188   0.742 -0.1632 -0.9772 -1.5268
16815TIP3   OH271935   6.519   5.777   3.609  0.1649 -0.0721  0.3349
16815TIP3    H171936   6.569   5.858   3.615  0.5169 -0.2872  0.3368
16815TIP3    H271937   6.431   5.801   3.638 -0.3093  0.8034 -1.6804
16816TIP3   OH271938   2.199   5.620   2.819  0.1908 -0.2298 -0.5241
16816TIP3    H171939   2.119   5.659   2.784  1.0138  2.4589  0.3424
16816TIP3    H271940   2.270   5.663   2.772  1.2048  0.5409  1.5938
16817TIP3   OH271941   6.264   5.247   6.852  0.1098  0.7923 -0.0598
16817TIP3    H171942   6.308   5.173   6.809 -0.5806  0.2847  0.0760
16817TIP3    H271943   6.335   5.303   6.883  0.7848 -1.0722  2.0635
16818TIP3   OH271944   1.628   3.025  16.878  0.3577  0.1313 -0.6582
16818TIP3    H171945   1.536   3.042  16.861  0.2781  2.2354  1.3254
16818TIP3    H271946   1.668   3.018  16.791 -1.6520 -0.9873 -1.5451
16819TIP3   OH271947   0.213   4.678  15.673  0.3513 -0.0151  0.5560
16819TIP3    H171948   0.222   4.706  15.765  0.5950  0.2588  0.4515
16819TIP3    H271949   0.299   4.645  15.650  1.7179  3.9045 -0.8746
16820TIP3   OH271950   1.737   2.360  16.512 -0.3214 -0.8171  0.2118
16820TIP3    H171951   1.656   2.389  16.554  0.4179  1.7962 -0.0119
16820TIP3    H271952   1.769   2.289  16.567 -1.3867 -0.0876  1.8339
16821TIP3   OH271953   5.687   2.342   3.905  0.1728 -0.6707 -0.3008
16821TIP3    H171954   5.782   2.346   3.914  0.1518  0.5827 -0.4601
16821TIP3    H271955   5.672   2.338   3.811  0.0604 -0.7082 -0.2816
16822TIP3   OH271956   1.841   6.553  12.750 -0.4538  0.6725 -0.6206
16822TIP3    H171957   1.826   6.644  12.777  0.8929  1.4775 -2.3608
16822TIP3    H271958   1.879   6.511  12.827  1.8832  2.4699 -0.6797
16823TIP3   OH271959   4.218   0.706  15.929 -0.0969  0.5752  0.1865
16823TIP3    H171960   4.259   0.623  15.905  0.4799  0.4111  1.6468
16823TIP3    H271961   4.134   0.706  15.883  1.1815  0.5923 -2.3062
16824TIP3   OH271962   5.210   6.157  16.985 -0.1693 -0.4448 -0.0697
16824TIP3    H171963   5.226   6.136  17.077  0.3233  0.5649  0.0851
16824TIP3    H271964   5.125   6.199  16.985 -0.9242 -1.8992 -0.3155
16825TIP3   OH271965   4.236   4.333  15.503 -0.1589  0.0202  0.4133
16825TIP3    H171966   4.277   4.263  15.553  0.4930  0.5826  0.6891
16825TIP3    H271967   4.202   4.291  15.424 -0.1688 -0.6728  0.7866
16826TIP3   OH271968   3.601   5.164   1.115 -0.0705 -0.2224 -0.7293
16826TIP3    H171969   3.571   5.186   1.203 -0.9950  0.7414 -1.2679
16826TIP3    H271970   3.555   5.082   1.095 -0.7428  0.1477 -0.7389
16827TIP3   OH271971   0.682   0.910   5.104  0.1968 -0.2931  0.3500
16827TIP3    H171972   0.744   0.874   5.040  0.8773  1.1351  0.1609
16827TIP3    H271973   0.738   0.942   5.175 -0.3064  1.0617  0.1594
16828TIP3   OH271974   6.501   2.453   5.240  0.4004  0.0232  0.2065
16828TIP3    H171975   6.514   2.504   5.160 -1.2424  1.7077  0.9487
16828TIP3    H271976   6.406   2.443   5.247  0.6303 -3.9356 -0.3062
16829TIP3   OH271977   3.652   5.892   0.388  0.3334 -0.1621 -0.0909
16829TIP3    H171978   3.569   5.847   0.405  0.4078 -0.1801  0.2154
16829TIP3    H271979   3.665   5.881   0.293 -0.4149  0.5250 -0.2856
16830TIP3   OH271980   6.510   5.908  15.968  0.2053  0.6139 -0.2732
16830TIP3    H171981   6.427   5.881  15.927 -0.3670  1.2806  0.4249
16830TIP3    H271982   6.561   5.828  15.973 -0.5740  0.1042 -0.3048
16831TIP3   OH271983   6.681   0.826   2.767 -0.1720 -0.5919  0.3401
16831TIP3    H171984   6.719   0.814   2.854 -0.2901 -1.9940  0.2145
16831TIP3    H271985   6.594   0.862   2.784 -0.1218 -0.6791  0.7967
16832TIP3   OH271986   5.387   0.806  14.442 -0.1120 -0.2237 -0.5261
16832TIP3    H171987   5.447   0.731  14.445  1.2924  0.8810  0.9076
16832TIP3    H271988   5.417   0.863  14.513 -1.8746  1.1605 -0.8239
16833TIP3   OH271989   3.306   5.844   0.823  0.2170 -0.7108 -0.7918
16833TIP3    H171990   3.212   5.853   0.841  0.6716 -1.4693  2.7744
16833TIP3    H271991   3.319   5.751   0.805  0.4938 -1.0366  0.9068
16834TIP3   OH271992   0.110   6.718   4.101 -0.7654  0.5103 -0.2388
16834TIP3    H171993   0.117   6.633   4.146 -0.3982 -0.2266 -1.6394
16834TIP3    H271994   0.145   6.781   4.164 -0.3035 -0.4863  0.5286
16835TIP3   OH271995   6.440   6.437   3.969 -0.0673 -0.3210 -0.0912
16835TIP3    H171996   6.467   6.348   3.948  0.4595  0.0999 -1.3081
16835TIP3    H271997   6.376   6.460   3.902  2.9261  1.6627 -2.5432
16836TIP3   OH271998   4.398   4.462   0.506  0.4767  0.0506  0.1148
16836TIP3    H171999   4.397   4.369   0.531 -0.8441  0.0329  0.0588
16836TIP3    H272000   4.330   4.502   0.560  1.2343  1.0731  0.3598
16837TIP3   OH272001   6.615   3.777   5.703  0.1686  0.6165 -0.5478
16837TIP3    H172002   6.545   3.715   5.683  0.9798 -2.0488  3.6740
16837TIP3    H272003   6.695   3.724   5.702  1.7391  2.8351 -1.9180
16838TIP3   OH272004   5.589   3.977   1.265  0.1555 -0.4466 -0.1526
16838TIP3    H172005   5.510   3.984   1.211 -2.1763 -1.6760  2.7497
16838TIP3    H272006   5.606   3.883   1.269  0.9419 -0.2915  0.3080
16839TIP3   OH272007   5.364   1.140   4.734 -0.3864  0.3764 -0.1320
16839TIP3    H172008   5.405   1.062   4.773 -1.0959 -0.7155 -1.4934
16839TIP3    H272009   5.301   1.168   4.800  0.1953  0.0865  0.5732
16840TIP3   OH272010   1.585   2.748   2.413 -0.2770  0.3621  0.5119
16840TIP3    H172011   1.515   2.805   2.445 -0.0748 -0.4211  2.5332
16840TIP3    H272012   1.659   2.807   2.396 -0.6355  0.9170  0.8450
16841TIP3   OH272013   6.217   0.249   5.808 -0.6805 -0.1580  0.5280
16841TIP3    H172014   6.216   0.341   5.832 -1.2529 -0.3038  1.0914
16841TIP3    H272015   6.283   0.243   5.739 -1.5657  0.9075 -0.4548
16842TIP3   OH272016   1.675   4.767   0.633 -0.3179  0.0756 -0.6503
16842TIP3    H172017   1.606   4.785   0.570 -0.5090 -0.8500 -0.7135
16842TIP3    H272018   1.662   4.676   0.660  0.6208  0.0073 -0.3517
16843TIP3   OH272019   1.072   3.348  10.991 -0.0604 -0.6866  0.7150
16843TIP3    H172020   0.991   3.341  11.040  0.1340  1.0819  1.3736
16843TIP3    H272021   1.140   3.363  11.057  0.5232 -0.3425  0.0607
16844TIP3   OH272022   2.570   3.735   5.167 -0.0765 -0.3034  0.2893
16844TIP3    H172023   2.538   3.788   5.095 -0.9305  0.7349  1.3912
16844TIP3    H272024   2.665   3.735   5.157 -0.1407  0.5323 -0.3493
16845TIP3   OH272025   2.217   5.590   5.277  0.2938  0.8801  0.0436
16845TIP3    H172026   2.179   5.659   5.222 -1.0448 -0.9663 -1.5303
16845TIP3    H272027   2.148   5.569   5.339  0.0515 -0.0771 -0.5219
16846TIP3   OH272028   2.522   5.273   6.196  0.4851 -0.1419  0.4165
16846TIP3    H172029   2.438   5.319   6.192  0.5718 -0.0601 -0.8064
16846TIP3    H272030   2.502   5.189   6.237 -0.3065 -0.3224 -0.3049
16847TIP3   OH272031   4.877   6.561   0.237 -0.9831  0.4289  0.4884
16847TIP3    H172032   4.931   6.561   0.317 -0.3664 -1.9114  0.1443
16847TIP3    H272033   4.797   6.607   0.263  0.0529  1.5820  1.8217
16848TIP3   OH272034   0.880   0.265   4.516 -0.1032  0.6924  0.6277
16848TIP3    H172035   0.889   0.247   4.422  2.4003  0.3404  0.8514
16848TIP3    H272036   0.866   0.178   4.555 -1.0698  0.8301  0.6024
16849TIP3   OH272037   5.159   2.214  12.360 -0.5475 -0.5135 -0.1402
16849TIP3    H172038   5.240   2.239  12.404  0.2608 -2.0202 -0.6999
16849TIP3    H272039   5.136   2.129  12.398  0.0753 -1.7725 -2.3618
16850TIP3   OH272040   2.809   0.907  10.945  0.3085 -0.1212  0.1618
16850TIP3    H172041   2.838   0.934  10.858 -2.2595  3.9731  0.2956
16850TIP3    H272042   2.865   0.956  11.005 -0.5514  0.3364  0.6215
16851TIP3   OH272043   3.322   2.911  15.914  0.0056 -0.1663 -0.2855
16851TIP3    H172044   3.273   2.882  15.991 -0.2775  1.5327  0.2127
16851TIP3    H272045   3.369   2.989  15.943 -1.0651  1.2361 -2.1216
16852TIP3   OH272046   6.065   5.653  12.465  0.0476 -0.7072 -0.7146
16852TIP3    H172047   6.052   5.743  12.437  0.6570 -0.5269 -0.4480
16852TIP3    H272048   5.978   5.615  12.467 -0.2761  0.0481 -0.2606
16853TIP3   OH272049   0.843   0.456   6.269  0.3056 -0.4230  0.0600
16853TIP3    H172050   0.830   0.538   6.317 -0.7261 -0.3589 -0.2872
16853TIP3    H272051   0.896   0.402   6.327 -0.7946 -0.3043  1.2257
16854TIP3   OH272052   4.216   1.318   3.533 -0.0952 -0.3295 -0.4085
16854TIP3    H172053   4.180   1.230   3.543  1.2000 -0.7029  1.4791
16854TIP3    H272054   4.275   1.310   3.458  0.0347 -1.0875 -0.2414
16855TIP3   OH272055   0.714   2.364  17.026 -0.3422 -0.0379 -0.1424
16855TIP3    H172056   0.794   2.314  17.042 -0.3960 -0.6604 -1.6275
16855TIP3    H272057   0.719   2.439  17.085  1.3330 -0.0712 -0.2091
16856TIP3   OH272058   5.657   2.553   2.246  0.2808 -0.8732  0.4908
16856TIP3    H172059   5.724   2.560   2.315 -0.3671 -0.3173  1.0801
16856TIP3    H272060   5.701   2.587   2.167  0.3264  0.7131  1.1527
16857TIP3   OH272061   5.826   1.784   2.793  0.0004  0.0674  0.6101
16857TIP3    H172062   5.883   1.713   2.821  3.1337  2.7704  1.8657
16857TIP3    H272063   5.786   1.752   2.712  1.5691 -2.9231  0.8722
16858TIP3   OH272064   0.143   3.789  13.539  0.2490 -0.1458 -0.4471
16858TIP3    H172065   0.172   3.765  13.627  0.5712 -3.8016 -1.3798
16858TIP3    H272066   0.211   3.846  13.505  1.2377 -0.4817  0.9101
16859TIP3   OH272067   1.973   3.264  13.587 -0.6523 -0.1367  0.6128
16859TIP3    H172068   1.892   3.221  13.615 -1.3983  0.6298 -0.2995
16859TIP3    H272069   1.973   3.347  13.636 -0.2847 -0.2424  0.7956
16860TIP3   OH272070   6.395   2.028  11.118 -0.4316  0.5208 -0.1930
16860TIP3    H172071   6.329   1.970  11.082  3.0416 -2.4761 -2.5275
16860TIP3    H272072   6.400   2.005  11.211 -1.8106  0.0195 -0.2263
16861TIP3   OH272073   5.164   0.137   0.403 -0.3264 -0.0798  0.5252
16861TIP3    H172074   5.095   0.083   0.442 -0.6184 -0.4262 -0.4398
16861TIP3    H272075   5.160   0.220   0.451 -2.0929  0.2782 -0.1673
16862TIP3   OH272076   5.476   3.136   0.235 -0.2119 -0.1727  0.1208
16862TIP3    H172077   5.566   3.143   0.203 -0.3698 -0.9270 -0.5253
16862TIP3    H272078   5.470   3.201   0.305  0.2861  1.2628 -1.1060
16863TIP3   OH272079   4.693   5.623  11.269 -0.6293  0.7549 -0.1014
16863TIP3    H172080   4.657   5.537  11.287  1.3764 -0.4035 -1.3016
16863TIP3    H272081   4.649   5.652  11.189  1.6842 -1.1446 -2.2118
16864TIP3   OH272082   2.784   0.245   1.064 -1.0768  0.5255  0.7161
16864TIP3    H172083   2.828   0.161   1.052 -1.9790  0.2245 -0.8644
16864TIP3    H272084   2.794   0.266   1.157  1.6579  0.1055  0.5882
16865TIP3   OH272085   5.674   2.082  13.233 -0.3557 -0.2506  0.2855
16865TIP3    H172086   5.676   2.067  13.327 -0.4007  1.0737  0.5146
16865TIP3    H272087   5.589   2.048  13.205 -1.0659  0.8549  1.0202
16866TIP3   OH272088   6.544   3.400  13.095  0.6005 -0.4420  0.0592
16866TIP3    H172089   6.509   3.313  13.116 -0.2995  0.1215  0.9276
16866TIP3    H272090   6.477   3.441  13.041  1.1692 -0.3911 -0.6266
16867TIP3   OH272091   6.573   3.744   3.840  0.3929  0.4072 -0.0893
16867TIP3    H172092   6.596   3.724   3.931 -2.0942  0.1753  0.5659
16867TIP3    H272093   6.544   3.660   3.804 -0.6422  0.8954 -0.4241
16868TIP3   OH272094   6.627   3.305  15.053 -0.0575  0.0754 -0.0341
16868TIP3    H172095   6.585   3.245  14.992  0.0944 -0.1354  0.0678
16868TIP3    H272096   6.719   3.279  15.054 -0.1742 -0.3434  0.7708
16869TIP3   OH272097   4.814   0.753   2.989 -0.0101 -0.0451 -0.7789
16869TIP3    H172098   4.901   0.776   2.957  0.8000 -1.1429  0.5240
16869TIP3    H272099   4.789   0.826   3.046  0.4949 -0.1516 -0.4069
16870TIP3   OH272100   5.215   3.188  16.881  0.4163  0.1286  0.4727
16870TIP3    H172101   5.177   3.166  16.795  0.3113 -0.0755  0.5690
16870TIP3    H272102   5.277   3.117  16.898  1.5983  0.9966 -0.1425
16871TIP3   OH272103   3.481   0.388   2.770  0.3811 -0.4885 -0.0377
16871TIP3    H172104   3.464   0.373   2.677 -0.5229 -0.1170  0.0541
16871TIP3    H272105   3.547   0.323   2.793  1.0934 -0.1611 -1.0893
16872TIP3   OH272106   4.370   3.125  11.811 -0.0288  0.1729  0.7126
16872TIP3    H172107   4.364   3.217  11.785 -0.8591  0.1743  0.9045
16872TIP3    H272108   4.335   3.076  11.737  0.3432  0.0092  0.6410
16873TIP3   OH272109   1.501   0.841   1.124 -0.3480  0.3657  0.3677
16873TIP3    H172110   1.443   0.888   1.184 -0.4401 -1.6122  1.9235
16873TIP3    H272111   1.589   0.858   1.157 -0.2689  0.6937 -0.0074
16874TIP3   OH272112   0.860   4.447   2.071  0.2573 -0.1220 -0.1473
16874TIP3    H172113   0.909   4.373   2.036 -0.8327 -0.9681  0.0476
16874TIP3    H272114   0.769   4.429   2.048 -0.0127  1.2699 -0.2664
16875TIP3   OH272115   6.194   0.948   3.906 -0.0753 -0.1006  0.7590
16875TIP3    H172116   6.251   1.000   3.962  0.6134  0.7124 -0.6341
16875TIP3    H272117   6.163   0.877   3.961  0.9532  0.4006  2.0117
16876TIP3   OH272118   6.531   1.526   4.020 -0.1016 -0.2749 -0.0275
16876TIP3    H172119   6.523   1.593   3.952  0.3907 -0.0564  0.1217
16876TIP3    H272120   6.444   1.485   4.025 -1.1358  1.8799  1.4516
16877TIP3   OH272121   0.239   2.267   1.553 -0.1681  0.7247  0.2637
16877TIP3    H172122   0.245   2.230   1.641 -0.6345 -0.3345 -0.1302
16877TIP3    H272123   0.328   2.260   1.518 -0.6197 -2.0872 -0.5715
16878TIP3   OH272124   2.407   4.718  10.979  0.9272 -0.0635 -0.1804
16878TIP3    H172125   2.489   4.669  10.989  2.2796  2.2417  0.7509
16878TIP3    H272126   2.383   4.742  11.068  0.0695  0.5915 -0.5831
16879TIP3   OH272127   5.273   3.408  15.922  0.0210  0.3345 -0.7197
16879TIP3    H172128   5.197   3.352  15.907 -0.2872  0.7691 -0.7825
16879TIP3    H272129   5.329   3.393  15.845 -0.9131  1.4989 -1.6782
16880TIP3   OH272130   5.738   6.111   1.250 -0.1895  0.0260 -0.6907
16880TIP3    H172131   5.710   6.163   1.326  0.4915  1.8478 -1.6193
16880TIP3    H272132   5.834   6.113   1.254 -0.1564 -0.7407 -1.0390
16881TIP3   OH272133   4.922   5.183  13.872  0.2417  0.8262 -0.3642
16881TIP3    H172134   4.901   5.275  13.856  0.7581  0.8164 -1.1911
16881TIP3    H272135   5.017   5.179  13.866  0.3118  0.4343  0.8421
16882TIP3   OH272136   4.404   0.339  16.180  0.4246 -0.1019  0.2923
16882TIP3    H172137   4.407   0.425  16.221 -0.1808  1.1572 -2.0930
16882TIP3    H272138   4.311   0.322  16.165  0.5921 -0.7104 -0.1195
16883TIP3   OH272139   3.747   5.587  12.431 -0.0442  0.0418 -0.4573
16883TIP3    H172140   3.668   5.551  12.470  1.2316 -1.5563  0.8298
16883TIP3    H272141   3.744   5.557  12.340  0.1287 -1.9857  0.1502
16884TIP3   OH272142   1.911   1.424   0.743  0.8589  0.0033  0.1946
16884TIP3    H172143   2.004   1.442   0.730  0.5792  1.4112 -0.0110
16884TIP3    H272144   1.885   1.482   0.814 -0.3962  1.5461 -1.4309
16885TIP3   OH272145   3.921   5.447  15.524  0.0175  0.0146  0.2686
16885TIP3    H172146   3.897   5.536  15.551  0.2661 -0.1531  1.0586
16885TIP3    H272147   3.905   5.446  15.430  0.0294  0.9046  0.2482
16886TIP3   OH272148   4.340   4.301  16.773 -0.1951  0.1283  0.3235
16886TIP3    H172149   4.282   4.376  16.770  0.1902  0.4227  0.1404
16886TIP3    H272150   4.330   4.266  16.861  0.4013  1.0138  0.7556
16887TIP3   OH272151   5.706   3.660   0.296 -0.7589 -0.5437  0.4899
16887TIP3    H172152   5.764   3.736   0.300 -0.4027 -0.7222 -0.7170
16887TIP3    H272153   5.765   3.584   0.295 -1.0385 -0.7608  0.0852
16888TIP3   OH272154   2.123   1.637   1.862 -0.3670  0.5130 -0.0238
16888TIP3    H172155   2.180   1.712   1.848 -0.9141  1.4452  2.2908
16888TIP3    H272156   2.183   1.565   1.882  0.0909  0.6753 -0.7430
16889TIP3   OH272157   0.259   1.888  15.667 -0.1234  0.1024 -0.0962
16889TIP3    H172158   0.237   1.852  15.753  0.1852  0.2233  0.0369
16889TIP3    H272159   0.187   1.948  15.646 -0.5851 -0.5142 -0.2748
16890TIP3   OH272160   2.332   1.788   4.342 -0.2524 -0.6320  0.2111
16890TIP3    H172161   2.392   1.855   4.308 -2.1710  0.7794 -0.6234
16890TIP3    H272162   2.320   1.728   4.268  1.7748 -2.2214  1.0837
16891TIP3   OH272163   3.174   5.525   6.385  0.5889  0.4698  0.3048
16891TIP3    H172164   3.089   5.569   6.381  0.4477  0.1270 -0.9951
16891TIP3    H272165   3.152   5.432   6.379  0.9345  0.2207  2.2443
16892TIP3   OH272166   1.886   3.925  14.633 -0.2657 -0.0751 -0.2921
16892TIP3    H172167   1.936   3.946  14.712 -1.2914  0.7983  0.1482
16892TIP3    H272168   1.927   3.845  14.599  1.1142  0.3519  0.3052
16893TIP3   OH272169   4.965   3.966  13.055  0.3333  0.3156  0.2388
16893TIP3    H172170   4.982   3.982  12.962  0.1053 -0.8421 -0.0206
16893TIP3    H272171   4.903   4.034  13.081  0.6486  0.8363 -0.3801
16894TIP3   OH272172   2.116   1.265   1.798  0.5289  0.0249 -0.2464
16894TIP3    H172173   2.029   1.295   1.821  1.0131  1.1010  0.2395
16894TIP3    H272174   2.161   1.254   1.881  1.1639  0.4580 -0.5203
16895TIP3   OH272175   4.053   2.647   3.285 -0.0577 -0.1656 -0.4394
16895TIP3    H172176   4.067   2.598   3.366  2.8953 -0.5216 -1.0354
16895TIP3    H272177   4.116   2.610   3.224 -2.7794 -0.5262 -3.2697
16896TIP3   OH272178   1.291   0.717  12.392  0.1873 -0.0551  0.1349
16896TIP3    H172179   1.383   0.698  12.378 -0.1169 -1.6869  0.2375
16896TIP3    H272180   1.247   0.632  12.390 -1.6685  0.8179 -2.3285
16897TIP3   OH272181   6.612   3.859   2.252 -0.7279 -0.3621 -0.4831
16897TIP3    H172182   6.619   3.774   2.296 -1.1799  1.2532  2.9718
16897TIP3    H272183   6.518   3.876   2.247 -0.6279  0.0725 -0.9251
16898TIP3   OH272184   6.816   5.450   3.637  0.0778 -0.4843 -0.0669
16898TIP3    H172185   6.739   5.416   3.592  0.4017 -0.1167 -0.9166
16898TIP3    H272186   6.806   5.545   3.633  0.7394 -0.4273 -0.4771
16899TIP3   OH272187   4.598   3.728  15.948 -0.1975 -0.4641  0.4094
16899TIP3    H172188   4.576   3.819  15.970 -1.5203 -1.0161  1.4467
16899TIP3    H272189   4.543   3.708  15.872  1.1836  0.0343 -0.7855
16900TIP3   OH272190   5.237   0.754   0.252  0.4080 -0.4395 -0.0183
16900TIP3    H172191   5.259   0.661   0.249 -0.0320 -0.5271 -0.6137
16900TIP3    H272192   5.198   0.766   0.339  0.1514 -0.8823 -0.0710
16901TIP3   OH272193   6.685   5.978   3.552  0.6057 -0.2032  0.4483
16901TIP3    H172194   6.653   6.065   3.578 -1.5131 -0.6938 -0.3141
16901TIP3    H272195   6.654   5.968   3.462  1.9932 -1.2270  0.0627
16902TIP3   OH272196   4.757   6.126   3.541 -0.4631  0.1494  0.3131
16902TIP3    H172197   4.669   6.111   3.576 -0.4108  1.0162  0.8331
16902TIP3    H272198   4.805   6.046   3.562 -1.6700 -1.2421 -1.8409
16903TIP3   OH272199   2.402   4.395   3.354 -0.0704  0.4437  0.2833
16903TIP3    H172200   2.404   4.305   3.386  0.4585  0.4343  0.2214
16903TIP3    H272201   2.424   4.449   3.430  3.2944  0.3157 -0.4454
16904TIP3   OH272202   3.232   3.145  14.733  0.2750  0.0024 -0.1480
16904TIP3    H172203   3.178   3.200  14.791 -0.1212  1.5470 -1.8817
16904TIP3    H272204   3.173   3.120  14.662  1.1487 -0.5628 -0.6964
16905TIP3   OH272205   3.994   6.410  14.346 -0.3472  0.1009 -0.3281
16905TIP3    H172206   4.039   6.449  14.271  0.3000  1.0042  0.5137
16905TIP3    H272207   4.053   6.339  14.375  0.1789  0.7759  0.2882
16906TIP3   OH272208   2.263   4.170   3.919 -0.1655 -0.5935  0.1627
16906TIP3    H172209   2.337   4.164   3.979 -0.1485  0.0628  0.2118
16906TIP3    H272210   2.300   4.201   3.837 -0.1103 -1.9326 -0.3530
16907TIP3   OH272211   3.137   2.197  13.231  0.1820  0.3478 -0.3983
16907TIP3    H172212   3.109   2.287  13.250  0.0264 -0.4086  4.3419
16907TIP3    H272213   3.056   2.146  13.232  0.5248 -0.1979  0.0784
16908TIP3   OH272214   1.619   1.806   2.503 -0.5063  0.5749 -0.1791
16908TIP3    H172215   1.561   1.805   2.426 -0.5231  0.8258 -0.1717
16908TIP3    H272216   1.572   1.859   2.567  0.3876  2.0557 -0.6928
16909TIP3   OH272217   2.336   2.778   6.268  0.2706 -0.6400 -0.5814
16909TIP3    H172218   2.259   2.820   6.231  1.7237  2.9820  0.1436
16909TIP3    H272219   2.323   2.782   6.363  0.5096 -1.7811 -0.4860
16910TIP3   OH272220   0.024   1.066  12.021 -0.2773 -0.0588 -0.6720
16910TIP3    H172221  -0.052   1.053  11.965 -1.9247 -0.1539  1.4561
16910TIP3    H272222   0.093   1.096  11.961 -1.8814 -0.2157 -2.7165
16911TIP3   OH272223   3.379   1.438   4.350  0.2143  0.5940  0.1402
16911TIP3    H172224   3.405   1.414   4.261 -0.3587 -0.7768  0.3096
16911TIP3    H272225   3.285   1.451   4.346  0.1348  0.2325  0.5824
16912TIP3   OH272226   3.056   4.951   4.379  0.3308 -0.2193  0.2945
16912TIP3    H172227   3.150   4.955   4.401 -0.0384 -0.6180  2.1447
16912TIP3    H272228   3.034   5.040   4.352  1.8494 -0.7494 -3.1834
16913TIP3   OH272229   4.305   0.751   2.326  0.3040 -0.0778  0.1342
16913TIP3    H172230   4.298   0.845   2.340 -0.6298  0.2335 -2.0155
16913TIP3    H272231   4.392   0.739   2.288  0.8229 -0.2414  1.3426
16914TIP3   OH272232   2.135   4.656   2.336  0.0640 -0.4995 -0.6310
16914TIP3    H172233   2.103   4.670   2.247 -2.7335  1.1695  0.5016
16914TIP3    H272234   2.059   4.621   2.383  0.8906  0.4583  1.5172
16915TIP3   OH272235   6.481   3.810  14.087  0.3622 -0.0900 -0.0342
16915TIP3    H172236   6.428   3.777  14.015 -1.4833  2.5239 -0.0434
16915TIP3    H272237   6.545   3.867  14.045  1.4307 -1.1088  0.1868
16916TIP3   OH272238   1.144   0.040   2.389 -0.9772 -0.4647 -0.2961
16916TIP3    H172239   1.193  -0.016   2.330  1.1016  0.8675  0.0836
16916TIP3    H272240   1.092  -0.021   2.442  1.1886 -2.0803  0.1140
16917TIP3   OH272241   0.866   0.231   3.795 -0.6866  0.5347  0.1144
16917TIP3    H172242   0.804   0.163   3.770 -0.0261 -0.1368  0.2812
16917TIP3    H272243   0.871   0.225   3.891 -2.8204  2.7574  0.4775
16918TIP3   OH272244   2.529   0.933  11.977 -0.0149 -0.2949 -0.3065
16918TIP3    H172245   2.439   0.900  11.974 -0.4168  0.6567  0.6725
16918TIP3    H272246   2.526   1.005  12.040  1.3843 -0.0802 -0.4581
16919TIP3   OH272247   3.265   5.047   3.796 -0.0128  0.1134 -0.4597
16919TIP3    H172248   3.298   5.095   3.719 -2.8121  0.0277 -1.8221
16919TIP3    H272249   3.257   4.957   3.766  0.9767 -0.3913  0.6990
16920TIP3   OH272250   2.313   2.115  16.734  0.3924  0.3373  0.2192
16920TIP3    H172251   2.397   2.091  16.696 -0.5666 -0.1821 -1.7274
16920TIP3    H272252   2.298   2.048  16.801  1.2972  0.1402  0.2418
16921TIP3   OH272253   5.124   2.081   1.529  0.1306 -0.0227 -0.4231
16921TIP3    H172254   5.121   2.135   1.607  2.5501 -1.4792  0.8029
16921TIP3    H272255   5.174   2.132   1.465  2.8072 -0.8434  0.8790
16922TIP3   OH272256   5.738   5.495   1.716  0.0965  0.6880 -0.0602
16922TIP3    H172257   5.682   5.420   1.738  2.4722 -1.3584 -0.4692
16922TIP3    H272258   5.731   5.553   1.792 -0.2108 -0.9917  1.2645
16923TIP3   OH272259   0.185   5.539   1.756 -0.6085 -0.2807  0.4142
16923TIP3    H172260   0.117   5.527   1.689 -0.0732 -0.2546 -0.1382
16923TIP3    H272261   0.247   5.468   1.740  1.2882  1.6240 -1.2782
16924TIP3   OH272262   4.819   1.659  11.820  0.2612  0.2101 -0.2037
16924TIP3    H172263   4.888   1.672  11.756 -0.2443 -0.6001 -0.9478
16924TIP3    H272264   4.801   1.565  11.817 -0.0316  0.2139  0.8624
16925TIP3   OH272265   2.225   3.662   5.783 -0.4705  0.6508 -0.1250
16925TIP3    H172266   2.291   3.639   5.848  0.0087 -0.1639 -0.8703
16925TIP3    H272267   2.155   3.703   5.833 -0.3386 -0.4052  0.9763
16926TIP3   OH272268   4.742   1.185  11.897  0.0741  0.2335 -0.6324
16926TIP3    H172269   4.692   1.197  11.977 -0.5915 -0.1557 -0.9809
16926TIP3    H272270   4.731   1.267  11.849  1.6320  1.0176  0.2839
16927TIP3   OH272271   3.234   0.808   0.683  0.0022  0.1410 -0.0738
16927TIP3    H172272   3.209   0.823   0.592 -1.2725  0.3033  0.2719
16927TIP3    H272273   3.297   0.736   0.680 -0.3830 -0.1718 -1.0491
16928TIP3   OH272274   0.652   6.271  14.893  0.2575  0.0863 -0.2211
16928TIP3    H172275   0.656   6.175  14.883 -0.4942  0.2195 -2.1776
16928TIP3    H272276   0.685   6.287  14.981 -1.4631 -2.1374  0.9442
16929TIP3   OH272277   4.022   1.748   4.984  0.4374  0.5334 -1.0473
16929TIP3    H172278   3.957   1.680   4.999 -0.0416  1.2806  0.5719
16929TIP3    H272279   4.045   1.740   4.892  0.3134 -1.7160 -0.9392
16930TIP3   OH272280   1.760   6.122   5.432  0.0559  0.1044  0.3261
16930TIP3    H172281   1.690   6.059   5.449  0.6603 -0.5914  0.2571
16930TIP3    H272282   1.828   6.101   5.496  0.4593  0.3912 -0.0022
16931TIP3   OH272283   0.529   4.032   4.968 -0.1800 -0.1132  0.0477
16931TIP3    H172284   0.453   4.002   4.918 -1.5232  0.8663  1.4176
16931TIP3    H272285   0.505   4.120   4.997  0.3807 -0.7524  2.6500
16932TIP3   OH272286   5.954   6.487   1.289 -0.7825 -0.0254 -0.3965
16932TIP3    H172287   5.920   6.451   1.207  1.6002 -1.6663 -0.7705
16932TIP3    H272288   6.002   6.565   1.263 -2.0809  0.8715 -0.1902
16933TIP3   OH272289   5.664   0.094   5.479 -0.0992  0.4007 -0.1414
16933TIP3    H172290   5.590   0.071   5.535  0.0945  0.9779  0.3667
16933TIP3    H272291   5.635   0.072   5.391 -1.4669  1.9869 -0.1394
16934TIP3   OH272292   2.092   4.443   5.923 -0.7617 -0.2562 -0.4514
16934TIP3    H172293   2.170   4.450   5.978 -0.3351  0.5086 -1.1361
16934TIP3    H272294   2.048   4.364   5.954  1.5351 -2.1221 -1.6060
16935TIP3   OH272295   1.682   6.017  10.641 -0.1714 -0.2613  0.1158
16935TIP3    H172296   1.776   6.014  10.629 -0.0073  1.2331  0.7851
16935TIP3    H272297   1.645   6.011  10.553  0.3623 -3.9341 -0.0150
16936TIP3   OH272298   0.591   5.262   5.738  0.0297  0.0970  0.1744
16936TIP3    H172299   0.671   5.239   5.785  0.6798  1.5117 -0.1994
16936TIP3    H272300   0.606   5.350   5.705 -0.0793 -1.0279 -3.3328
16937TIP3   OH272301   1.350   4.604  13.371  0.5830  0.5351 -0.3678
16937TIP3    H172302   1.441   4.615  13.341  1.5607 -1.3772  1.6038
16937TIP3    H272303   1.331   4.512  13.354 -1.0661  0.9295 -0.8373
16938TIP3   OH272304   3.460   3.018  11.686  0.4529  0.5449  0.7622
16938TIP3    H172305   3.478   2.974  11.603 -1.2544  0.1824  0.5598
16938TIP3    H272306   3.510   3.100  11.681  1.4054 -0.0558 -0.0487
16939TIP3   OH272307   6.203   0.231  14.384  0.6894 -0.3276 -0.4721
16939TIP3    H172308   6.199   0.253  14.291 -1.3369  0.5954 -0.2035
16939TIP3    H272309   6.170   0.142  14.389 -3.8698  1.1167 -0.2749
16940TIP3   OH272310   0.032   3.974   1.831  0.1037 -0.7610 -0.1447
16940TIP3    H172311   0.102   4.038   1.820  0.3934 -0.9572  0.5189
16940TIP3    H272312  -0.004   3.993   1.917 -0.8500 -0.4852 -0.5960
16941TIP3   OH272313   2.683   1.587  13.877 -0.3304  0.2868 -0.3194
16941TIP3    H172314   2.621   1.629  13.936 -1.2625 -0.8223 -0.4754
16941TIP3    H272315   2.764   1.638  13.886  0.0706 -0.7357  3.0405
16942TIP3   OH272316   5.625   6.619  11.508  0.2966  0.3841  0.1069
16942TIP3    H172317   5.720   6.611  11.504  0.3773  0.9935 -4.2505
16942TIP3    H272318   5.593   6.528  11.501  0.5051  0.1775  1.5979
16943TIP3   OH272319   2.123   1.491   4.277  0.1463 -0.1339  0.1496
16943TIP3    H172320   2.172   1.413   4.301  0.4747  0.2384  0.7308
16943TIP3    H272321   2.041   1.458   4.240 -0.6251 -0.7776  2.2646
16944TIP3   OH272322   0.911   4.830  12.547  0.1131 -0.2576  0.3494
16944TIP3    H172323   0.888   4.808  12.638 -2.3321  1.2367  0.1916
16944TIP3    H272324   0.839   4.794  12.495  1.2885 -0.7556 -0.9831
16945TIP3   OH272325   4.156   1.915  13.735 -0.3777  0.2104 -0.5231
16945TIP3    H172326   4.115   1.935  13.819 -0.1845  0.2341 -0.4344
16945TIP3    H272327   4.240   1.876  13.758 -0.6411 -0.4889 -0.6894
16946TIP3   OH272328   1.396   2.694  13.143  0.0430  0.2509 -0.2530
16946TIP3    H172329   1.381   2.600  13.150 -0.8355  0.4909  2.2930
16946TIP3    H272330   1.320   2.727  13.093 -0.8871 -0.1528  0.8512
16947TIP3   OH272331   6.588   2.935  11.187  0.2895 -0.4498 -0.4275
16947TIP3    H172332   6.545   2.916  11.103 -1.9963  1.2526  0.2749
16947TIP3    H272333   6.549   3.017  11.216  1.9418 -0.3577  1.7502
16948TIP3   OH272334   6.594   0.955   0.798  0.1101  0.4797  0.1475
16948TIP3    H172335   6.613   0.986   0.886 -0.7148  1.3005  0.0515
16948TIP3    H272336   6.508   0.915   0.805  0.6660 -0.7993  0.0153
16949TIP3   OH272337   1.773   2.227   1.785 -0.3922 -0.4962 -0.1322
16949TIP3    H172338   1.791   2.236   1.878 -0.2460  2.0160 -0.3374
16949TIP3    H272339   1.856   2.196   1.747 -0.0498 -0.2704  0.4189
16950TIP3   OH272340   1.858   3.915   2.221 -0.5206  0.2984  0.2565
16950TIP3    H172341   1.907   3.993   2.195  0.3059 -0.2308  0.2011
16950TIP3    H272342   1.892   3.893   2.308 -1.0064  0.2112  0.4244
16951TIP3   OH272343   1.541   3.153  16.189  0.2200  0.1657 -0.1850
16951TIP3    H172344   1.500   3.105  16.117  0.1498  1.1747 -0.8386
16951TIP3    H272345   1.477   3.149  16.260  0.1436 -0.5473 -0.2862
16952TIP3   OH272346   1.683   2.649   4.728 -0.2363 -0.0149 -0.7014
16952TIP3    H172347   1.731   2.702   4.664  1.5678  1.0103  1.3849
16952TIP3    H272348   1.592   2.679   4.720  0.3448  1.7373 -1.2337
16953TIP3   OH272349   3.207   1.601  13.774  0.1032 -0.2718 -0.1002
16953TIP3    H172350   3.268   1.670  13.747  1.3402 -1.4547 -0.4444
16953TIP3    H272351   3.250   1.560  13.849 -1.5886  0.6270  1.4426
16954TIP3   OH272352   6.824   5.645  14.172 -0.4560  0.3537 -0.1932
16954TIP3    H172353   6.797   5.553  14.162 -0.1492  0.0725  1.3523
16954TIP3    H272354   6.763   5.681  14.236  1.0350  0.4833  1.2076
16955TIP3   OH272355   1.220   1.717  10.638 -0.0267 -0.1863 -0.1119
16955TIP3    H172356   1.274   1.641  10.617  1.9617  1.3610 -0.9987
16955TIP3    H272357   1.281   1.780  10.675 -1.5450  1.1280  0.2574
16956TIP3   OH272358   2.082   4.766   2.675 -0.2553  0.8411 -0.5569
16956TIP3    H172359   2.065   4.790   2.766 -0.3193 -2.5716  0.4886
16956TIP3    H272360   2.008   4.802   2.626  0.8964  4.6862  0.2214
16957TIP3   OH272361   1.655   6.553  17.027 -0.2936  0.1443 -0.3954
16957TIP3    H172362   1.701   6.535  16.946 -1.5353 -0.9083 -0.9097
16957TIP3    H272363   1.568   6.583  17.000 -0.6346  0.0552  0.5311
16958TIP3   OH272364   0.768   2.966   1.362  0.2761  0.1178  0.1789
16958TIP3    H172365   0.679   3.001   1.360 -0.3606 -1.0776  2.7608
16958TIP3    H272366   0.823   3.041   1.383 -0.1901  0.7391 -0.7649
16959TIP3   OH272367   1.486   3.136  12.692  0.0974 -0.2988  0.3370
16959TIP3    H172368   1.532   3.142  12.776 -1.7547  1.3233  1.3132
16959TIP3    H272369   1.506   3.219  12.649 -0.1043 -0.5378 -0.2239
16960TIP3   OH272370   1.513   4.937   5.178 -0.0114  0.0870  0.1392
16960TIP3    H172371   1.457   4.886   5.119  2.1336 -1.7761 -0.4450
16960TIP3    H272372   1.504   4.893   5.263 -1.7169  1.6835  0.8599
16961TIP3   OH272373   3.091   6.611   3.217  0.1367 -0.0535 -0.0079
16961TIP3    H172374   3.076   6.547   3.147  0.2819 -1.0062  0.8226
16961TIP3    H272375   3.143   6.565   3.282 -0.3180  0.7001  0.9163
16962TIP3   OH272376   3.746   2.574   5.871  0.7744 -0.0026 -0.0507
16962TIP3    H172377   3.740   2.594   5.778 -1.6241 -1.5513 -0.3115
16962TIP3    H272378   3.737   2.658   5.915 -0.1528  0.5259 -1.2072
16963TIP3   OH272379   4.203   1.647  17.141  0.2615 -0.3888  0.4726
16963TIP3    H172380   4.125   1.642  17.086  0.3180 -0.7504  0.4226
16963TIP3    H272381   4.172   1.622  17.228  0.0519  0.7339  0.7351
16964TIP3   OH272382   4.016   5.388  11.224  0.2179 -0.4843 -0.1924
16964TIP3    H172383   3.966   5.465  11.252 -0.1747 -0.8335  0.0779
16964TIP3    H272384   3.993   5.377  11.132 -0.2071 -0.6358 -0.0742
16965TIP3   OH272385   2.398   1.063  11.092 -0.4017  0.1798  0.2677
16965TIP3    H172386   2.426   1.059  11.000  0.1938 -0.3094  0.4643
16965TIP3    H272387   2.479   1.058  11.142 -0.7488  0.0556  0.8267
16966TIP3   OH272388   0.401   1.632   6.671 -0.7449  0.0192 -0.2250
16966TIP3    H172389   0.432   1.649   6.760 -2.4331  1.3056  0.1714
16966TIP3    H272390   0.470   1.668   6.615  0.1604 -0.4520  0.5483
16967TIP3   OH272391   3.925   5.360  17.068 -0.8374 -0.6955 -0.6528
16967TIP3    H172392   3.857   5.344  17.002 -1.0868 -2.3969 -0.0236
16967TIP3    H272393   3.991   5.293  17.050 -0.4523 -0.5538  0.2249
16968TIP3   OH272394   3.299   0.071  11.293 -0.3659 -0.3818  0.8855
16968TIP3    H172395   3.262   0.025  11.368 -0.2093  0.7836  1.6954
16968TIP3    H272396   3.392   0.046  11.292 -0.4436 -0.6770  0.8504
16969TIP3   OH272397   2.347   3.529   5.488  0.0062 -0.0540  0.3935
16969TIP3    H172398   2.434   3.538   5.526 -0.5878 -0.3011  1.8762
16969TIP3    H272399   2.311   3.450   5.527  0.1195 -1.5834 -2.3147
16970TIP3   OH272400   2.903   2.968  14.952 -0.2159 -0.0680  0.1479
16970TIP3    H172401   2.837   2.917  14.905  0.5444 -0.1324 -0.8772
16970TIP3    H272402   2.912   3.049  14.901  1.5976 -0.7124 -0.6510
16971TIP3   OH272403   3.299   0.089   6.051  0.3849 -0.0062  0.0089
16971TIP3    H172404   3.302   0.037   5.971  0.0732  0.0422 -0.0389
16971TIP3    H272405   3.339   0.173   6.027 -0.2396  0.2192 -0.2656
16972TIP3   OH272406   1.731   5.432  11.290  0.2566  0.1374  0.3902
16972TIP3    H172407   1.813   5.399  11.328  0.5483  0.8648  0.3974
16972TIP3    H272408   1.756   5.463  11.203 -0.3705 -1.3408 -0.3562
16973TIP3   OH272409   5.649   5.034   5.021 -0.1629  0.2613 -0.2763
16973TIP3    H172410   5.590   4.981   4.969  0.6774 -0.2954 -0.6796
16973TIP3    H272411   5.672   5.108   4.965  0.1676  0.0439 -0.4304
16974TIP3   OH272412   0.871   4.973  11.986  0.6127  0.4035  0.0993
16974TIP3    H172413   0.818   5.012  11.916 -0.1923  0.3821  0.6983
16974TIP3    H272414   0.961   4.988  11.957  0.3473  2.5314  0.1802
16975TIP3   OH272415   1.351   0.277  13.959 -0.1153  0.4309  0.0304
16975TIP3    H172416   1.379   0.188  13.982 -0.0374  0.2398 -0.7872
16975TIP3    H272417   1.432   0.327  13.955 -0.2672  0.9177  1.9805
16976TIP3   OH272418   5.065   0.663   3.755 -0.8029 -0.3554  0.3383
16976TIP3    H172419   4.975   0.633   3.768 -0.1745 -2.1796  0.7950
16976TIP3    H272420   5.117   0.611   3.816  0.7690 -0.6054 -1.1250
16977TIP3   OH272421   1.110   0.195   6.076 -0.0350 -0.2189 -0.2292
16977TIP3    H172422   1.122   0.221   6.167  0.6040  1.4493 -0.7388
16977TIP3    H272423   1.054   0.118   6.079 -1.1763  0.6306  1.4885
16978TIP3   OH272424   5.307   5.206  15.150 -0.1549  0.3076  0.0517
16978TIP3    H172425   5.374   5.273  15.166 -1.0697  1.3849 -0.5014
16978TIP3    H272426   5.261   5.199  15.233  0.9315 -0.8112  0.5953
16979TIP3   OH272427   1.961   5.329  14.316 -0.0675  0.0993 -0.1465
16979TIP3    H172428   2.017   5.315  14.239  1.8079  0.3418  1.1204
16979TIP3    H272429   2.004   5.400  14.364 -1.3749  0.1537  0.9865
16980TIP3   OH272430   2.168   3.253  15.941  0.5845  0.1988  0.3152
16980TIP3    H172431   2.207   3.328  15.896 -1.5487  0.8355 -0.5640
16980TIP3    H272432   2.142   3.194  15.871 -1.3683  0.4975  0.7455
16981TIP3   OH272433   3.763   0.232   3.778  0.2133 -0.2426 -0.3435
16981TIP3    H172434   3.760   0.140   3.751  2.9009 -0.1161 -1.3592
16981TIP3    H272435   3.749   0.282   3.698  2.0503  0.1702 -0.4555
16982TIP3   OH272436   5.239   6.697   2.813  0.1023 -0.8006  0.1992
16982TIP3    H172437   5.213   6.769   2.871 -1.4036 -0.5926 -0.6702
16982TIP3    H272438   5.315   6.732   2.765 -1.6221  0.9719 -1.4496
16983TIP3   OH272439   2.981   5.327   3.352  0.2306  0.2240 -0.1619
16983TIP3    H172440   2.891   5.358   3.348 -0.2927 -1.1552  0.2840
16983TIP3    H272441   3.016   5.341   3.264 -0.1021  1.6336 -0.0853
16984TIP3   OH272442   1.607   3.227  13.990  0.0102  0.1922 -0.2458
16984TIP3    H172443   1.517   3.253  13.971  1.2714  3.8578 -2.2299
16984TIP3    H272444   1.618   3.244  14.083 -0.8292  1.8515 -0.4119
16985TIP3   OH272445   4.941   3.875   3.194  0.1755  0.3164  0.1821
16985TIP3    H172446   4.908   3.961   3.221 -1.3833 -0.7514  1.9409
16985TIP3    H272447   4.931   3.874   3.099 -1.9170  1.2565  0.3496
16986TIP3   OH272448   5.216   6.500  16.059 -0.0148  0.3654  0.9405
16986TIP3    H172449   5.238   6.586  16.024  2.1197 -0.5805 -0.2261
16986TIP3    H272450   5.228   6.440  15.986 -0.9106 -1.0082  1.8710
16987TIP3   OH272451   0.579   0.735   0.705 -0.0583 -0.4988  0.1854
16987TIP3    H172452   0.535   0.656   0.673  0.2648 -0.8163  0.5181
16987TIP3    H272453   0.594   0.787   0.627 -2.7367  0.5115  0.2348
16988TIP3   OH272454   2.189   0.175  13.264  0.1797 -0.2363  0.2586
16988TIP3    H172455   2.129   0.224  13.208 -0.1623 -1.2170 -0.2375
16988TIP3    H272456   2.230   0.111  13.207  2.2411  0.8402  0.4342
16989TIP3   OH272457   1.971   6.046   4.058 -0.7130  0.5805  0.0677
16989TIP3    H172458   2.024   6.062   3.980  1.6708 -0.5924  1.3307
16989TIP3    H272459   1.993   6.119   4.117 -0.2336 -0.0510  0.6958
16990TIP3   OH272460   0.311   6.426   5.518  0.3611  0.4680  0.0493
16990TIP3    H172461   0.286   6.450   5.429  0.3141 -2.1138 -0.7200
16990TIP3    H272462   0.367   6.498   5.548 -0.5773  1.9657 -1.5807
16991TIP3   OH272463   1.269   1.332   6.380  0.3246  0.2787 -0.0099
16991TIP3    H172464   1.360   1.337   6.410  0.1906  1.2123  0.2782
16991TIP3    H272465   1.264   1.396   6.308 -0.2248  0.5924  0.3040
16992TIP3   OH272466   6.526   5.087   2.300  0.5095 -0.1629  0.0039
16992TIP3    H172467   6.446   5.134   2.324 -0.8886 -1.0475 -2.5252
16992TIP3    H272468   6.545   5.031   2.375  1.0519  2.8163  2.2375
16993TIP3   OH272469   2.303   0.264  15.763 -0.5281  0.4550  0.1071
16993TIP3    H172470   2.337   0.189  15.715 -1.0113 -0.3297  0.9671
16993TIP3    H272471   2.369   0.332  15.750 -0.7865  0.3963 -1.9412
16994TIP3   OH272472   5.127   5.384   2.205 -0.2844  0.8630 -0.7901
16994TIP3    H172473   5.047   5.345   2.238  0.0659  0.1723 -0.7459
16994TIP3    H272474   5.144   5.458   2.264  0.0195 -0.0108  0.2380
16995TIP3   OH272475   6.433   0.772  10.976  0.5973 -0.5931  0.0657
16995TIP3    H172476   6.378   0.742  10.903 -0.0836 -0.3097  0.4572
16995TIP3    H272477   6.417   0.708  11.046 -0.7491  0.5626  0.8574
16996TIP3   OH272478   3.663   4.472  12.795 -0.2695  0.0864 -0.2776
16996TIP3    H172479   3.592   4.514  12.748 -0.3513  0.1612 -0.0860
16996TIP3    H272480   3.732   4.462  12.729  0.0664  1.2684 -0.1178
16997TIP3   OH272481   0.575   3.792   2.513 -0.1958  0.1662 -0.2259
16997TIP3    H172482   0.485   3.809   2.485 -0.5795 -0.7026  0.4137
16997TIP3    H272483   0.587   3.850   2.589 -0.1305  0.4509 -0.4513
16998TIP3   OH272484   0.595   2.701   5.871  0.4481  0.0972  0.6261
16998TIP3    H172485   0.672   2.689   5.926  1.0642 -1.0229 -0.4225
16998TIP3    H272486   0.526   2.651   5.915  0.9990 -0.9882  0.3167
16999TIP3   OH272487   4.773   2.576   2.586  0.0389  0.4220 -0.2116
16999TIP3    H172488   4.684   2.543   2.575  0.2823  0.0038 -1.0473
16999TIP3    H272489   4.771   2.626   2.667 -1.1453  1.0778 -0.6353
17000TIP3   OH272490   5.362   5.738  16.486  0.3029 -0.4787  0.2280
17000TIP3    H172491   5.375   5.828  16.456  0.1719 -0.5462 -0.0350
17000TIP3    H272492   5.438   5.719  16.540 -0.5833  0.4553  1.9022
17001TIP3   OH272493   1.949   6.521  15.689  0.0441 -0.5500 -0.5626
17001TIP3    H172494   1.979   6.432  15.705 -0.3549 -0.4815  0.6471
17001TIP3    H272495   1.855   6.518  15.709  0.3354  0.5125  1.1427
17002TIP3   OH272496   4.045   5.382   4.245  0.0968  0.0928 -0.2775
17002TIP3    H172497   4.098   5.304   4.228 -1.8952 -0.9125 -2.4071
17002TIP3    H272498   3.989   5.358   4.318 -0.1917 -0.3116 -0.6303
17003TIP3   OH272499   3.457   2.879   1.547 -0.0406  0.0630 -0.1808
17003TIP3    H172500   3.432   2.787   1.552  1.6251 -0.6019 -2.3983
17003TIP3    H272501   3.422   2.910   1.464  0.2072  1.1648  0.1066
17004TIP3   OH272502   1.831   1.286  12.193  0.1772 -0.2371 -0.4900
17004TIP3    H172503   1.825   1.356  12.128  2.2064 -0.9010 -1.4796
17004TIP3    H272504   1.779   1.318  12.267 -0.0812  1.6966 -1.4274
17005TIP3   OH272505   6.093   6.052   0.723 -0.4872 -0.1838 -0.1483
17005TIP3    H172506   6.066   5.966   0.757 -1.7344  0.4072  0.4119
17005TIP3    H272507   6.139   6.093   0.797  1.7130 -1.0120 -0.9597
17006TIP3   OH272508   1.410   1.958  11.688 -0.3333 -0.3465  0.1387
17006TIP3    H172509   1.472   1.979  11.619 -1.0897  0.6102 -0.2730
17006TIP3    H272510   1.450   1.991  11.768  0.1079 -0.5814  0.0145
17007TIP3   OH272511   3.722   3.868  15.542  0.2420 -0.1815  0.0440
17007TIP3    H172512   3.637   3.825  15.550  0.4169 -0.6418 -0.5831
17007TIP3    H272513   3.751   3.850  15.453  1.0516 -0.1259  0.2818
17008TIP3   OH272514   0.134   5.046   2.552  0.0611 -0.3851 -0.0729
17008TIP3    H172515   0.142   5.136   2.521 -2.4292  0.3008  1.0351
17008TIP3    H272516   0.200   5.039   2.621  0.5202  0.4643 -0.4104
17009TIP3   OH272517   2.457   2.478   4.999  0.1402 -0.2004  0.0169
17009TIP3    H172518   2.383   2.436   5.043  0.2711  0.3623  0.8056
17009TIP3    H272519   2.423   2.504   4.914 -0.4646 -0.2895  0.2260
17010TIP3   OH272520   5.912   2.734   5.243 -0.1564  0.1227 -0.4155
17010TIP3    H172521   5.834   2.688   5.213 -0.1737  0.5533 -1.0561
17010TIP3    H272522   5.982   2.705   5.185 -0.1739  0.9118 -0.8398
17011TIP3   OH272523   0.345   6.263   2.896  0.0063  0.1381  0.5749
17011TIP3    H172524   0.372   6.328   2.831 -2.8558  1.5325  0.6348
17011TIP3    H272525   0.342   6.181   2.847  0.2793  0.7146 -0.4435
17012TIP3   OH272526   1.523   6.144   3.201  0.1232 -0.4743  0.4155
17012TIP3    H172527   1.433   6.166   3.174  0.3029 -0.7408 -0.4399
17012TIP3    H272528   1.520   6.050   3.219  0.5091 -0.7540 -0.8684
17013TIP3   OH272529   2.109   0.243  12.660  0.1100  0.0397  0.0670
17013TIP3    H172530   2.048   0.287  12.601  0.8518  2.3872  0.9457
17013TIP3    H272531   2.195   0.280  12.639  0.5327  0.2248  1.9133
17014TIP3   OH272532   2.147   5.099   5.612 -0.2948 -0.2438 -0.1781
17014TIP3    H172533   2.140   5.071   5.521 -0.5285 -0.2736 -0.1499
17014TIP3    H272534   2.195   5.182   5.608  0.0177 -0.4265 -0.2964
17015TIP3   OH272535   0.122   1.196   0.732 -0.0345  0.0758 -0.2453
17015TIP3    H172536   0.103   1.176   0.824  0.2063 -1.4531 -0.4889
17015TIP3    H272537   0.167   1.280   0.734  1.4080 -0.6593  1.2188
17016TIP3   OH272538   1.441   1.352  13.347 -0.0171  0.1185 -0.0691
17016TIP3    H172539   1.362   1.302  13.370  0.5504 -0.3743  0.9239
17016TIP3    H272540   1.486   1.297  13.283  0.3541 -0.4338  0.6458
17017TIP3   OH272541   1.022   5.965  16.175  0.0300 -0.1370 -0.0261
17017TIP3    H172542   1.001   6.056  16.197 -1.1699 -0.8095  1.8965
17017TIP3    H272543   1.059   5.929  16.256 -1.0571 -1.7715 -0.2007
17018TIP3   OH272544   5.233   2.138  15.697 -0.4092 -0.5430 -0.2007
17018TIP3    H172545   5.319   2.096  15.707 -0.3813 -0.3562  0.4281
17018TIP3    H272546   5.186   2.082  15.636  0.2883 -0.4459 -0.8437
17019TIP3   OH272547   2.349   3.638   1.630  0.1708 -0.0023  0.5026
17019TIP3    H172548   2.402   3.686   1.566 -0.4123  1.6988  1.2231
17019TIP3    H272549   2.413   3.594   1.686  0.7317 -0.1058 -0.2094
17020TIP3   OH272550   1.785   0.868   0.146 -0.0365 -0.7385 -0.8213
17020TIP3    H172551   1.704   0.908   0.117 -0.2384 -1.0740 -0.7260
17020TIP3    H272552   1.851   0.936   0.135  0.0168 -1.0190 -2.6341
17021TIP3   OH272553   3.769   2.459   3.989 -0.0492  0.1809 -0.0545
17021TIP3    H172554   3.746   2.373   3.952  1.2792  0.3853 -1.4468
17021TIP3    H272555   3.799   2.510   3.914 -1.0786  1.9824  0.7035
17022TIP3   OH272556   3.921   5.321   0.391 -0.6771  0.3843  0.3271
17022TIP3    H172557   3.964   5.374   0.458 -1.0445 -0.8399  1.5685
17022TIP3    H272558   3.989   5.262   0.359 -0.4462  1.1045 -0.5710
17023TIP3   OH272559   0.343   3.651  13.249  0.3961  0.0631 -0.4214
17023TIP3    H172560   0.252   3.626  13.267  0.8608 -0.2141  1.8117
17023TIP3    H272561   0.335   3.729  13.194 -1.2187  0.5295  0.3933
17024TIP3   OH272562   5.243   3.785   5.882  0.2397 -0.2207 -0.1417
17024TIP3    H172563   5.322   3.831   5.853 -0.4155  1.0675  0.0399
17024TIP3    H272564   5.215   3.833   5.960 -0.1263 -1.3374  0.4234
17025TIP3   OH272565   3.246   0.109   4.803 -0.1537  0.3136  0.1182
17025TIP3    H172566   3.286   0.194   4.785  0.4772  0.0040  0.0127
17025TIP3    H272567   3.197   0.122   4.884  1.0840  0.4280  0.8781
17026TIP3   OH272568   2.325   1.960   2.285 -0.1263 -0.4425 -0.5768
17026TIP3    H172569   2.371   1.876   2.280  1.2084  0.2238 -0.1636
17026TIP3    H272570   2.369   2.015   2.220  0.3082  0.4912  0.4643
17027TIP3   OH272571   1.869   4.128  16.925 -0.1502 -0.3265 -0.2075
17027TIP3    H172572   1.868   4.115  17.020 -0.2015  1.7651  0.1239
17027TIP3    H272573   1.945   4.184  16.909  1.1161 -2.3389 -1.7042
17028TIP3   OH272574   3.193   4.138   3.930 -0.6169 -0.3278  0.2224
17028TIP3    H172575   3.129   4.209   3.921 -2.1627 -1.6825  0.0081
17028TIP3    H272576   3.236   4.134   3.845  0.2408  0.9966  0.5594
17029TIP3   OH272577   1.448   2.009  13.716 -0.7330  0.1283 -0.0883
17029TIP3    H172578   1.366   2.031  13.671 -1.1521 -0.6274  0.2812
17029TIP3    H272579   1.478   2.092  13.752 -0.2112  0.8182 -2.0074
17030TIP3   OH272580   2.846   5.216  12.626  0.2266  0.4130  0.2493
17030TIP3    H172581   2.876   5.127  12.644 -2.2302 -0.5238  0.0276
17030TIP3    H272582   2.855   5.226  12.531 -1.1754 -0.3040  0.0172
17031TIP3   OH272583   1.878   3.280  12.826  0.1764  0.0518  0.3136
17031TIP3    H172584   1.934   3.229  12.885  0.9704  2.8640  2.1870
17031TIP3    H272585   1.790   3.247  12.842  0.7184 -1.1096  1.0319
17032TIP3   OH272586   3.181   1.756  15.755 -0.3906 -0.3994  0.3702
17032TIP3    H172587   3.111   1.701  15.720  0.4384 -1.1874 -0.0844
17032TIP3    H272588   3.192   1.825  15.690 -3.2616  2.0140  2.1464
17033TIP3   OH272589   1.504   5.183   4.145 -0.0377 -0.5240  0.3069
17033TIP3    H172590   1.519   5.203   4.052 -1.2934 -0.6886  0.0567
17033TIP3    H272591   1.583   5.214   4.189 -0.3391  1.6259 -0.5330
17034TIP3   OH272592   1.773   3.417  13.794  0.1703 -0.0355 -0.0931
17034TIP3    H172593   1.796   3.438  13.884  1.8799  0.1827 -0.5389
17034TIP3    H272594   1.734   3.498  13.760  1.6763  0.6669 -0.2083
17035TIP3   OH272595   3.018   2.581   5.428  0.3168  0.1813  0.3834
17035TIP3    H172596   3.009   2.501   5.376  0.8468  1.9223 -2.6074
17035TIP3    H272597   2.937   2.585   5.479 -1.9008 -0.0592 -2.7869
17036TIP3   OH272598   2.864   0.843   2.771 -0.4300  0.1691  0.4483
17036TIP3    H172599   2.793   0.831   2.835 -0.8255  1.1085  0.1958
17036TIP3    H272600   2.857   0.934   2.744  1.1510  0.4034  0.7255
17037TIP3   OH272601   3.918   0.716  11.797 -0.0185 -0.0250  0.2565
17037TIP3    H172602   3.824   0.702  11.806  0.0092  0.3669  1.3133
17037TIP3    H272603   3.945   0.752  11.882  0.8085  1.3857 -0.5779
17038TIP3   OH272604   4.910   1.439   2.879  0.1511  0.1053 -0.0877
17038TIP3    H172605   4.931   1.443   2.973 -1.0265 -1.2976  0.2652
17038TIP3    H272606   4.994   1.421   2.837  0.5997  0.1901  0.7443
17039TIP3   OH272607   0.034   6.457  11.742  0.0846 -0.3168  0.2894
17039TIP3    H172608   0.024   6.550  11.765 -1.0725 -0.6284  1.1704
17039TIP3    H272609  -0.049   6.433  11.702  0.7466 -0.7388 -0.8658
17040TIP3   OH272610   2.219   3.535   3.779  0.1160  0.3786 -0.2952
17040TIP3    H172611   2.262   3.608   3.734  0.1841  0.9437  0.6391
17040TIP3    H272612   2.129   3.536   3.746  0.7778 -0.8017 -2.2484
17041TIP3   OH272613   6.331   1.226   4.312 -0.5298  0.2723  0.1469
17041TIP3    H172614   6.423   1.220   4.286 -0.9226 -0.1009 -1.2089
17041TIP3    H272615   6.312   1.140   4.351  0.6270  1.4820  3.8435
17042TIP3   OH272616   3.556   6.792  15.019 -0.2286 -0.3695 -0.0517
17042TIP3    H172617   3.580   6.717  14.965 -0.1328  0.9746 -1.9542
17042TIP3    H272618   3.582   6.766  15.108 -0.4573 -2.6658 -0.6036
17043TIP3   OH272619   6.048   4.804  14.984 -0.4459  0.2498  0.2936
17043TIP3    H172620   6.019   4.712  14.983 -0.5220  0.2728 -0.9384
17043TIP3    H272621   6.092   4.814  15.068 -1.3028 -0.6419  0.8723
17044TIP3   OH272622   4.598   5.198  16.960  0.7152 -0.4338  0.2107
17044TIP3    H172623   4.544   5.119  16.959 -0.3012  0.2049  1.2668
17044TIP3    H272624   4.650   5.191  17.040  1.5458 -0.6086 -0.3326
17045TIP3   OH272625   3.903   4.308   4.987 -0.5972  0.5114 -0.3617
17045TIP3    H172626   3.856   4.391   4.982 -0.6994  0.4564 -0.3190
17045TIP3    H272627   3.911   4.278   4.897 -2.0355 -0.2564 -0.2589
17046TIP3   OH272628   3.316   1.842   4.175 -0.1560 -0.1786 -0.1030
17046TIP3    H172629   3.405   1.818   4.151 -0.0733 -0.5875  0.6119
17046TIP3    H272630   3.297   1.919   4.121  1.0722  0.6790  0.6374
17047TIP3   OH272631   1.039   2.117  11.656 -0.2526 -0.2988  0.0599
17047TIP3    H172632   1.037   2.090  11.748  1.7018  0.5334  0.3980
17047TIP3    H272633   1.120   2.080  11.622  0.2854  1.4320 -0.6351
17048TIP3   OH272634   4.774   5.409   1.308 -0.2432 -0.0065 -0.3932
17048TIP3    H172635   4.786   5.327   1.356  1.2989 -1.8103 -3.6079
17048TIP3    H272636   4.849   5.463   1.336 -1.7415  0.8423  2.4185
17049TIP3   OH272637   3.279   3.179  17.075  0.0630 -0.4330  0.1192
17049TIP3    H172638   3.311   3.263  17.107 -1.0032  0.7872 -1.8540
17049TIP3    H272639   3.184   3.190  17.068  0.1803 -0.4062 -3.6289
17050TIP3   OH272640   5.863   4.717  16.310  0.2593  0.0895  0.3962
17050TIP3    H172641   5.831   4.638  16.353  0.2443  0.1097  0.4219
17050TIP3    H272642   5.923   4.756  16.373  2.2467 -1.2302 -0.5677
17051TIP3   OH272643   5.792   3.345  11.440 -0.1036  0.0296 -0.0999
17051TIP3    H172644   5.759   3.418  11.388  1.0579 -0.8517 -2.1856
17051TIP3    H272645   5.724   3.278  11.432 -0.5952  0.4069  0.7779
17052TIP3   OH272646   3.566   0.975  15.586 -0.2831  0.1819 -0.0917
17052TIP3    H172647   3.510   1.038  15.630 -0.2690  1.0058 -1.1980
17052TIP3    H272648   3.506   0.924  15.531 -0.2373 -0.4944  0.4720
17053TIP3   OH272649   5.366   4.109   0.109 -0.3689  0.7237  0.1202
17053TIP3    H172650   5.309   4.056   0.054  0.3557 -0.5325  0.5360
17053TIP3    H272651   5.321   4.113   0.194  0.2498 -0.4570  0.5151
17054TIP3   OH272652   1.968   4.220   3.015  0.0352  0.6219  0.3480
17054TIP3    H172653   2.037   4.228   3.082  0.0129  0.9096  0.3402
17054TIP3    H272654   2.015   4.199   2.935  0.2321  1.9067  0.1082
17055TIP3   OH272655   5.719   3.934  12.192 -0.6052 -0.4533 -0.0886
17055TIP3    H172656   5.728   3.840  12.209 -0.5586 -0.4573 -0.1360
17055TIP3    H272657   5.627   3.953  12.212 -0.5156 -0.4305  0.3004
17056TIP3   OH272658   4.678   1.984  13.070  0.0672  0.2420 -0.5089
17056TIP3    H172659   4.738   1.918  13.037 -0.9985 -1.6282  1.1303
17056TIP3    H272660   4.691   1.984  13.165 -2.0600  0.1924 -0.1662
17057TIP3   OH272661   6.637   1.432  11.926  0.1114 -0.1055  0.6227
17057TIP3    H172662   6.584   1.500  11.969  0.7206 -0.4280  1.9298
17057TIP3    H272663   6.724   1.442  11.964  0.9030  0.0765 -1.1256
17058TIP3   OH272664   3.646   1.871   0.609 -0.1803  0.5596  0.4666
17058TIP3    H172665   3.638   1.905   0.520  1.7256 -1.4292 -0.5525
17058TIP3    H272666   3.735   1.893   0.636  0.6380 -2.1260  0.3008
17059TIP3   OH272667   4.694   2.101   0.535 -0.0233  0.3380  0.0075
17059TIP3    H172668   4.630   2.137   0.597 -0.3492 -0.7136  0.2896
17059TIP3    H272669   4.775   2.146   0.558 -0.3925  0.8218  0.4252
17060TIP3   OH272670   5.719   3.651  16.826  0.0959  0.4660  0.5359
17060TIP3    H172671   5.701   3.718  16.892  1.4732  0.5068  0.8893
17060TIP3    H272672   5.681   3.571  16.862 -1.5518  1.0049  0.1168
17061TIP3   OH272673   3.569   3.559   4.025  0.4155  0.1352  0.5844
17061TIP3    H172674   3.477   3.533   4.024  0.5835 -0.6073  1.7456
17061TIP3    H272675   3.592   3.560   4.118  1.6827 -0.0587  0.2918
17062TIP3   OH272676   4.682   3.612  16.641 -0.3689 -0.3441  0.4474
17062TIP3    H172677   4.629   3.650  16.711  0.4327 -1.0217  1.4655
17062TIP3    H272678   4.768   3.598  16.681  0.4763  0.3535 -1.0419
17063TIP3   OH272679   5.541   6.212  13.137 -0.5040 -0.5054 -0.3009
17063TIP3    H172680   5.528   6.257  13.053 -0.7778 -0.4009 -0.2010
17063TIP3    H272681   5.572   6.281  13.196  2.5283 -1.0750 -1.0254
17064TIP3   OH272682   0.862   6.413  13.605 -0.0558  0.5434 -0.2545
17064TIP3    H172683   0.789   6.399  13.545 -1.4208  1.2875  1.1428
17064TIP3    H272684   0.880   6.507  13.599  0.7822  0.3702 -0.5644
17065TIP3   OH272685   2.496   4.641   2.007  0.0760 -0.0714 -0.1551
17065TIP3    H172686   2.547   4.568   2.040 -0.2822 -0.0955  0.3465
17065TIP3    H272687   2.493   4.703   2.080  2.4188  1.5675 -1.2941
17066TIP3   OH272688   5.438   5.058  10.753 -0.0289 -0.1562 -0.1385
17066TIP3    H172689   5.451   5.140  10.801  0.1722 -0.5731  0.5355
17066TIP3    H272690   5.503   5.060  10.684 -0.7698  0.7680 -0.8374
17067TIP3   OH272691   6.300   5.253  16.531 -0.4283  0.0383 -0.3770
17067TIP3    H172692   6.363   5.182  16.520  1.5449  1.8703 -1.8600
17067TIP3    H272693   6.337   5.308  16.600 -2.0613 -0.4422  0.9459
17068TIP3   OH272694   5.654   1.394   5.891  0.0531 -0.2575  0.1194
17068TIP3    H172695   5.667   1.351   5.975  1.6912  0.4862  0.2853
17068TIP3    H272696   5.661   1.488   5.911  0.3935 -0.0691 -0.8253
17069TIP3   OH272697   6.150   3.068  11.308 -0.0516  0.3510 -0.7169
17069TIP3    H172698   6.073   3.113  11.272 -1.6459 -2.0909 -0.5801
17069TIP3    H272699   6.224   3.104  11.258 -1.1456  3.1289 -0.5165
17070TIP3   OH272700   0.170   1.941   5.644  0.1682  0.2905 -0.1445
17070TIP3    H172701   0.113   2.018   5.637 -0.4441 -0.1997 -0.6512
17070TIP3    H272702   0.187   1.915   5.554  0.0234 -0.4206  0.0268
17071TIP3   OH272703   6.172   1.542   4.243 -0.0754 -0.1579 -0.3591
17071TIP3    H172704   6.185   1.626   4.289  0.6523 -0.3651 -0.1622
17071TIP3    H272705   6.117   1.491   4.302 -0.6972  0.2493 -0.5729
17072TIP3   OH272706   4.203   5.768   2.146 -0.2648 -0.1474  0.3129
17072TIP3    H172707   4.291   5.785   2.111 -0.1566 -1.3532 -0.0575
17072TIP3    H272708   4.155   5.729   2.074 -0.4423 -1.4698  1.1105
17073TIP3   OH272709   0.064   4.181   1.239  0.2023  0.0282 -0.0920
17073TIP3    H172710   0.063   4.276   1.227 -2.2395  0.0445 -0.1708
17073TIP3    H272711   0.064   4.145   1.150 -2.1048  0.0227 -0.1325
17074TIP3   OH272712   2.297   4.389  12.993  0.1578 -0.3796  0.3788
17074TIP3    H172713   2.230   4.426  12.936  1.2123 -1.3021 -1.5474
17074TIP3    H272714   2.258   4.308  13.027 -0.2816 -0.0976  0.5506
17075TIP3   OH272715   3.902   6.724  16.833  0.3804  0.2275  0.2413
17075TIP3    H172716   3.808   6.715  16.849  0.3156 -0.0565 -0.3062
17075TIP3    H272717   3.942   6.711  16.919  0.1157 -2.4304  0.0283
17076TIP3   OH272718   0.942   4.506  11.954 -0.1327  0.0372  0.2680
17076TIP3    H172719   0.864   4.480  12.002  1.2915  0.5634  3.0884
17076TIP3    H272720   1.010   4.446  11.985  1.0244  0.8363 -0.6416
17077TIP3   OH272721   3.113   4.374  12.343 -0.0045  0.1020  0.1046
17077TIP3    H172722   3.173   4.327  12.286 -0.6648  0.2045 -0.7069
17077TIP3    H272723   3.046   4.309  12.367  0.3915 -0.0012  0.9595
17078TIP3   OH272724   2.553   3.397  14.739 -0.5550  0.3445  0.5067
17078TIP3    H172725   2.583   3.341  14.667  3.3710 -0.3631  2.4105
17078TIP3    H272726   2.500   3.464  14.696  1.4338 -0.1092 -3.0715
17079TIP3   OH272727   4.702   1.397  11.029  0.3016  0.5841  0.0908
17079TIP3    H172728   4.797   1.399  11.025  0.3037  2.3296 -3.6505
17079TIP3    H272729   4.677   1.319  10.980 -0.2434 -0.0208  1.2916
17080TIP3   OH272730   5.569   0.145  11.893  0.0968  0.9705 -0.3442
17080TIP3    H172731   5.629   0.213  11.862  0.8306 -0.4181 -2.1501
17080TIP3    H272732   5.555   0.089  11.816 -2.4155  0.4434  0.4053
17081TIP3   OH272733   2.968   2.662   3.612  0.1210 -0.1161  0.3310
17081TIP3    H172734   2.977   2.691   3.521  0.3818 -0.3908  0.2664
17081TIP3    H272735   3.040   2.706   3.657 -0.6814  0.9235  0.6390
17082TIP3   OH272736   0.164   6.413   3.496  0.0726  0.0184 -0.7962
17082TIP3    H172737   0.155   6.391   3.589 -1.9949  0.9354 -0.7130
17082TIP3    H272738   0.254   6.388   3.473 -0.1922 -2.7558  0.7516
17083TIP3   OH272739   5.143   4.381  17.233 -0.8283  0.1130 -0.0253
17083TIP3    H172740   5.126   4.393  17.327 -1.3988  0.3525 -0.1559
17083TIP3    H272741   5.238   4.372  17.227 -0.8528 -0.7538  0.6719
17084TIP3   OH272742   0.533   3.017  14.233 -0.2675 -0.4892  0.5359
17084TIP3    H172743   0.492   3.079  14.173 -3.0829 -1.1804  1.5759
17084TIP3    H272744   0.516   2.931  14.195  0.8575 -0.7990  0.6804
17085TIP3   OH272745   3.669   3.222  11.593 -0.2278  0.6353  0.1804
17085TIP3    H172746   3.755   3.245  11.628 -0.1206  2.0359 -0.9177
17085TIP3    H272747   3.687   3.183  11.508 -0.6216 -0.3681  0.5440
17086TIP3   OH272748   6.347   6.778  13.883 -0.4327  0.0544  0.1073
17086TIP3    H172749   6.347   6.699  13.828  0.1809 -2.0990  2.9540
17086TIP3    H272750   6.257   6.810  13.878 -0.2757  0.3700 -2.5359
17087TIP3   OH272751   1.897   2.355  11.298  0.0451  0.2826 -0.4638
17087TIP3    H172752   1.889   2.306  11.216 -1.3402  1.1093 -0.8619
17087TIP3    H272753   1.854   2.438  11.280  1.4217  1.2366  0.5261
17088TIP3   OH272754   0.436   4.970   4.720  0.2541 -0.0785  0.1732
17088TIP3    H172755   0.423   5.065   4.720 -1.9654 -0.2366  2.9239
17088TIP3    H272756   0.527   4.957   4.746 -0.0610  1.3333  2.1183
17089TIP3   OH272757   2.237   3.068  14.826  0.2049  0.3872 -0.1758
17089TIP3    H172758   2.160   3.122  14.842  0.2980  0.7803 -0.9826
17089TIP3    H272759   2.220   3.026  14.742  0.4679 -0.2540  0.0845
17090TIP3   OH272760   2.742   4.467   4.687  0.1490 -0.6118 -0.0943
17090TIP3    H172761   2.802   4.542   4.689  0.0655 -0.5553  0.6023
17090TIP3    H272762   2.798   4.392   4.666  0.2121 -0.3459 -0.9191
17091TIP3   OH272763   5.071   3.933   1.246  0.1235  0.3179  0.0472
17091TIP3    H172764   5.110   3.859   1.201 -1.1192 -0.2483 -0.1445
17091TIP3    H272765   5.033   3.896   1.325 -1.7663  0.4395 -0.7442
17092TIP3   OH272766   6.134   3.226  14.214  0.0211 -0.1261  0.2732
17092TIP3    H172767   6.081   3.192  14.142 -1.0646  1.6910  0.1361
17092TIP3    H272768   6.156   3.316  14.187 -0.5897  0.6761  2.2519
17093TIP3   OH272769   3.246   5.485  16.117  0.6477 -0.1585  0.0713
17093TIP3    H172770   3.200   5.435  16.184 -0.2483  0.8061  0.2064
17093TIP3    H272771   3.177   5.518  16.059  1.1462  1.3122  0.2719
17094TIP3   OH272772   4.253   6.571  14.717  0.1684  0.4487  0.2892
17094TIP3    H172773   4.286   6.658  14.692  1.6447  0.1499  1.0753
17094TIP3    H272774   4.161   6.572  14.691  0.2598  2.1010 -0.0918
17095TIP3   OH272775   2.699   3.611   3.449 -0.1287 -0.3226 -0.1877
17095TIP3    H172776   2.692   3.536   3.508 -0.6426 -0.3162 -0.2300
17095TIP3    H272777   2.714   3.686   3.506 -1.8750 -0.1245  0.0676
17096TIP3   OH272778   1.402   5.585  10.937  0.1888  0.6328  0.7051
17096TIP3    H172779   1.415   5.493  10.957  0.3205  0.3290 -0.6624
17096TIP3    H272780   1.406   5.590  10.842  0.4090  2.0892  0.7575
17097TIP3   OH272781   5.226   5.638   3.154 -0.2260  0.1744  0.6867
17097TIP3    H172782   5.136   5.609   3.163 -0.9753  1.6752 -1.2634
17097TIP3    H272783   5.264   5.578   3.090 -0.7963  1.3330 -0.8067
17098TIP3   OH272784   3.756   6.337  16.779  0.1149 -0.1798 -0.7305
17098TIP3    H172785   3.777   6.394  16.854 -1.3214 -0.0302 -0.4142
17098TIP3    H272786   3.824   6.269  16.781  0.3345  0.0500  0.4664
17099TIP3   OH272787   5.492   6.169  14.762  0.1345  0.3258  0.1865
17099TIP3    H172788   5.539   6.242  14.721 -0.5738  0.1814 -0.9332
17099TIP3    H272789   5.542   6.091  14.735 -0.3700  0.2252 -0.4772
17100TIP3   OH272790   4.833   1.905   1.859  0.1412 -0.4476  0.2873
17100TIP3    H172791   4.783   1.825   1.874 -1.4363  0.2443 -1.0136
17100TIP3    H272792   4.779   1.956   1.799  0.8568  1.8220  1.4738
17101TIP3   OH272793   1.839   0.121  11.513  0.1105 -0.4331 -0.2301
17101TIP3    H172794   1.875   0.183  11.577 -1.6285 -0.3338  0.7104
17101TIP3    H272795   1.749   0.105  11.543 -0.1657 -1.7761 -1.6600
17102TIP3   OH272796   1.600   5.692   4.210  0.5713 -0.6011  0.1549
17102TIP3    H172797   1.591   5.687   4.114  0.9807 -1.4744  0.1590
17102TIP3    H272798   1.670   5.757   4.223  0.5404 -0.5048 -0.1330
17103TIP3   OH272799   3.506   1.360  10.184  0.7586  0.2451 -0.2434
17103TIP3    H172800   3.534   1.335  10.272 -0.3512  0.2067  0.1230
17103TIP3    H272801   3.540   1.449  10.173  0.9808  0.2194  0.2012
17104TIP3   OH272802   3.146   4.901  11.029 -0.4151 -0.1074  0.2944
17104TIP3    H172803   3.175   4.811  11.039 -1.3219 -0.3837  0.5468
17104TIP3    H272804   3.209   4.941  10.969 -0.9937 -1.3710 -1.1954
17105TIP3   OH272805   0.718   0.539  16.363  0.1546  0.4998  0.1342
17105TIP3    H172806   0.799   0.546  16.312  0.5272  0.3409  0.6955
17105TIP3    H272807   0.657   0.492  16.306  0.4119  0.7392 -0.3422
17106TIP3   OH272808   6.653   1.018   4.092 -0.3048  0.0131 -0.4727
17106TIP3    H172809   6.632   1.084   4.158  1.2525 -1.0508  1.2172
17106TIP3    H272810   6.711   1.062   4.031 -1.0151  0.7678 -0.6246
17107TIP3   OH272811   0.800   1.117   4.910  0.3165 -0.3404 -0.2413
17107TIP3    H172812   0.728   1.142   4.851  1.6727  0.0688 -1.8062
17107TIP3    H272813   0.793   1.022   4.915 -0.8402 -0.2464  0.3335
17108TIP3   OH272814   2.590   2.720  10.940  0.4297  0.3533 -0.5610
17108TIP3    H172815   2.570   2.649  10.880  2.3638  0.2781 -1.1775
17108TIP3    H272816   2.509   2.734  10.989 -0.5407 -1.0003 -1.7181
17109TIP3   OH272817   4.318   3.671   2.101 -0.4945 -0.1586  0.0979
17109TIP3    H172818   4.234   3.633   2.128 -0.8552  1.5179  1.5222
17109TIP3    H272819   4.337   3.736   2.168  2.2382 -0.8580  0.1002
17110TIP3   OH272820   0.253   2.862   0.286  0.2092  0.1393 -0.9601
17110TIP3    H172821   0.346   2.841   0.280  0.4249  0.7057  0.1224
17110TIP3    H272822   0.212   2.782   0.318  1.0640  1.2211  3.4413
17111TIP3   OH272823   6.464   4.574  14.680  0.2916 -0.5822  0.1924
17111TIP3    H172824   6.558   4.595  14.673  0.3282 -1.2091 -1.9166
17111TIP3    H272825   6.424   4.654  14.712  1.1281  0.9932 -2.4035
17112TIP3   OH272826   0.336   6.708   0.782  0.9024 -0.2448 -0.3558
17112TIP3    H172827   0.401   6.652   0.739  3.0601  0.5649  1.6259
17112TIP3    H272828   0.273   6.646   0.821  2.2273 -1.2560  0.2728
17113TIP3   OH272829   5.324   0.156   4.582  0.0549 -0.1092 -0.5096
17113TIP3    H172830   5.283   0.237   4.612  0.4448  0.1924 -0.7810
17113TIP3    H272831   5.406   0.150   4.631  0.6278  0.3169 -1.4001
17114TIP3   OH272832   4.275   1.678   1.410  0.0418  0.2216  0.0040
17114TIP3    H172833   4.208   1.716   1.466 -0.0111 -0.5765  0.4882
17114TIP3    H272834   4.238   1.683   1.322 -0.5547 -0.0069  0.2410
17115TIP3   OH272835   2.196   6.300  13.013 -0.5820 -0.0971 -0.0364
17115TIP3    H172836   2.112   6.260  13.035 -1.7674  1.6102 -1.1906
17115TIP3    H272837   2.244   6.230  12.969 -0.7952 -1.5276  1.8773
17116TIP3   OH272838   0.074   2.893  15.353  0.0428 -0.5563  0.4848
17116TIP3    H172839   0.057   2.834  15.279 -0.5885 -0.6478  0.6964
17116TIP3    H272840   0.051   2.841  15.430  1.1208 -0.6208  0.7896
17117TIP3   OH272841   4.332   5.595   3.641 -0.3297 -0.1664 -0.5761
17117TIP3    H172842   4.315   5.564   3.552  2.0550 -0.8309 -0.8716
17117TIP3    H272843   4.250   5.580   3.688 -1.1355 -1.3373 -2.2591
17118TIP3   OH272844   0.293   1.557  16.441 -0.0633 -0.2808 -0.6740
17118TIP3    H172845   0.327   1.537  16.528  0.8862  0.3500 -0.8835
17118TIP3    H272846   0.268   1.472  16.405 -1.7208 -0.4307  0.6861
17119TIP3   OH272847   2.500   3.073   2.524  0.6345  0.3642  0.3934
17119TIP3    H172848   2.528   3.034   2.607 -0.0536 -0.4826  0.2468
17119TIP3    H272849   2.412   3.107   2.542 -1.4545 -3.5570 -0.9483
17120TIP3   OH272850   5.597   0.211  15.189  0.4252  0.0919 -0.2517
17120TIP3    H172851   5.653   0.135  15.206 -0.8947 -0.7870  0.3580
17120TIP3    H272852   5.526   0.175  15.136  0.5177  1.2283 -1.1816
17121TIP3   OH272853   1.053   4.936  14.887  0.5982 -0.4662  0.1492
17121TIP3    H172854   1.022   4.979  14.807 -0.2068  1.6986  1.5501
17121TIP3    H272855   0.981   4.878  14.913  0.3850 -0.2867 -0.0451
17122TIP3   OH272856   4.018   2.773  14.549  0.6407 -0.2144  0.0082
17122TIP3    H172857   4.083   2.794  14.615  0.9397 -0.9623 -0.0454
17122TIP3    H272858   3.947   2.836  14.565  0.6642 -0.4411  1.0975
17123TIP3   OH272859   5.968   0.750  15.357  0.3534  0.0017  0.3309
17123TIP3    H172860   6.055   0.740  15.320 -0.1111  0.8413 -1.0501
17123TIP3    H272861   5.908   0.723  15.288 -0.5159  0.3810  0.9044
17124TIP3   OH272862   4.110   6.728  10.805 -0.3287 -0.3520 -0.7771
17124TIP3    H172863   4.196   6.693  10.779 -0.9378 -3.0011  0.3759
17124TIP3    H272864   4.047   6.671  10.761 -1.3942 -1.8836  2.4164
17125TIP3   OH272865   0.849   2.045   6.102 -0.1136 -0.6853 -0.2700
17125TIP3    H172866   0.891   2.064   6.186  0.2331  0.2093 -0.6294
17125TIP3    H272867   0.766   2.092   6.107  0.2421  0.0017 -0.7204
17126TIP3   OH272868   4.010   6.735   4.004  0.0343 -0.1460 -0.2670
17126TIP3    H172869   4.003   6.822   3.964  0.9628 -0.2641 -0.7224
17126TIP3    H272870   3.952   6.739   4.080  2.1985  1.8668  1.4204
17127TIP3   OH272871   0.287   3.459   5.228 -0.0486 -0.0007 -0.2166
17127TIP3    H172872   0.271   3.379   5.178 -0.5038 -0.2825  0.3610
17127TIP3    H272873   0.272   3.530   5.166 -1.6610 -0.3109 -0.2192
17128TIP3   OH272874   6.620   2.333   4.922 -0.0650 -0.1888 -0.0323
17128TIP3    H172875   6.674   2.348   4.844  0.6636 -2.7524 -0.1327
17128TIP3    H272876   6.530   2.342   4.891  0.2130 -1.2251 -1.2255
17129TIP3   OH272877   0.023   6.687   5.609  0.7419 -0.0871  0.5659
17129TIP3    H172878   0.101   6.719   5.654  1.4201  0.2675 -0.8263
17129TIP3    H272879  -0.048   6.701   5.672  1.6591  0.3898  1.5192
17130TIP3   OH272880   3.589   0.288   1.737 -0.0485  0.2237 -0.0202
17130TIP3    H172881   3.543   0.354   1.789  0.4895  0.7051 -0.1431
17130TIP3    H272882   3.636   0.338   1.671  2.0694 -0.0744  1.1673
17131TIP3   OH272883   5.434   3.853  11.985  0.4699 -0.4089 -0.8309
17131TIP3    H172884   5.415   3.870  12.077  0.8486 -0.2594 -0.7773
17131TIP3    H272885   5.527   3.874  11.975  0.3516 -0.0838 -1.3229
17132TIP3   OH272886   1.191   4.745  13.808 -0.2052 -0.5077  0.0660
17132TIP3    H172887   1.157   4.677  13.866 -0.8750 -0.0080  0.2754
17132TIP3    H272888   1.167   4.828  13.851 -1.4248 -0.1205 -1.2957
17133TIP3   OH272889   3.925   4.943   4.259 -0.5670  0.1826  0.1118
17133TIP3    H172890   3.856   4.891   4.300 -1.3538 -0.3210 -1.7648
17133TIP3    H272891   3.997   4.881   4.245 -0.2545  0.3807  0.7968
17134TIP3   OH272892   5.397   6.223   2.491  0.5811 -0.4992  0.6300
17134TIP3    H172893   5.337   6.277   2.440  0.1059 -0.4080  1.2873
17134TIP3    H272894   5.416   6.148   2.433  2.5204  1.1007 -0.9639
17135TIP3   OH272895   2.494   5.073   4.906  0.0831 -0.2666 -0.4480
17135TIP3    H172896   2.423   5.129   4.874  0.4246  0.2824 -0.2523
17135TIP3    H272897   2.570   5.131   4.911  0.3052 -0.6155  0.2862
17136TIP3   OH272898   3.022   4.955  14.944 -0.8296 -0.3382  0.2733
17136TIP3    H172899   3.115   4.974  14.945 -0.9782  0.3969  0.9873
17136TIP3    H272900   2.983   5.026  14.894 -0.7418 -2.1053 -2.5013
17137TIP3   OH272901   5.343   0.255   1.380  0.2390 -0.0549  0.2201
17137TIP3    H172902   5.337   0.161   1.399 -0.0586 -0.0887 -0.0354
17137TIP3    H272903   5.366   0.295   1.464 -0.4465 -0.2760  0.5225
17138TIP3   OH272904   0.201   2.704   3.642  0.2328 -0.0353  0.3282
17138TIP3    H172905   0.126   2.646   3.653  0.9682 -0.9650  0.5548
17138TIP3    H272906   0.181   2.755   3.564 -0.3519 -0.7324  0.0143
17139TIP3   OH272907   1.149   5.529  14.082 -0.3602 -0.1070 -0.0463
17139TIP3    H172908   1.101   5.610  14.062  1.4397  1.3369  1.1981
17139TIP3    H272909   1.191   5.506  13.999  0.3127  1.1091 -0.0760
17140TIP3   OH272910   3.619   3.966   2.989  0.3639 -0.0842  0.3788
17140TIP3    H172911   3.629   3.915   3.069  1.3967 -1.2189 -0.4235
17140TIP3    H272912   3.697   4.022   2.986 -0.4285  1.0845  0.9101
17141TIP3   OH272913   1.748   0.305  14.744  0.1154 -0.0009 -0.2224
17141TIP3    H172914   1.753   0.308  14.649 -1.5901  0.4457 -0.3262
17141TIP3    H272915   1.732   0.213  14.764  1.2121 -0.2187 -0.3093
17142TIP3   OH272916   4.879   5.291   2.826  0.2522 -0.1566 -0.2849
17142TIP3    H172917   4.850   5.260   2.741 -2.7227  0.2779  0.4574
17142TIP3    H272918   4.942   5.226   2.856 -0.4875 -1.6149 -1.7783
17143TIP3   OH272919   0.596   4.860  16.768 -0.3160 -0.2466 -0.2886
17143TIP3    H172920   0.682   4.822  16.749 -0.1249  1.2991 -2.9741
17143TIP3    H272921   0.615   4.939  16.817 -0.3247 -0.6237  0.3328
17144TIP3   OH272922   3.443   5.245   0.254  0.3252  0.3140 -0.2251
17144TIP3    H172923   3.386   5.272   0.182 -1.5608 -0.8122  0.7818
17144TIP3    H272924   3.438   5.316   0.317 -0.8821 -0.2428  0.3388
17145TIP3   OH272925   0.839   2.743   3.897 -0.0268 -0.0429 -0.1959
17145TIP3    H172926   0.747   2.721   3.884  0.2613 -0.4630 -1.6614
17145TIP3    H272927   0.875   2.754   3.809  1.3455  0.0752  0.3403
17146TIP3   OH272928   0.274   3.757  14.672  0.3485  0.1496 -0.1012
17146TIP3    H172929   0.283   3.754  14.576  0.4323  0.0124 -0.0884
17146TIP3    H272930   0.284   3.850  14.693 -1.5271  0.4788 -0.4114
17147TIP3   OH272931   4.268   0.591   3.709  0.0494  0.1543  0.0686
17147TIP3    H172932   4.283   0.534   3.784  2.4095  0.6817  0.0694
17147TIP3    H272933   4.343   0.650   3.708 -0.1626  0.4870 -2.4052
17148TIP3   OH272934   3.302   6.757   2.704 -0.4371 -0.3418  0.0104
17148TIP3    H172935   3.216   6.720   2.686 -0.3200 -0.1497 -0.9687
17148TIP3    H272936   3.299   6.780   2.797 -1.8876  0.8425 -0.2984
17149TIP3   OH272937   6.198   6.606   1.116  0.7453 -0.8032 -0.0186
17149TIP3    H172938   6.127   6.670   1.119 -2.0478 -3.6837  0.3115
17149TIP3    H272939   6.246   6.627   1.036  0.0347  1.6702  0.1155
17150TIP3   OH272940   1.455   4.906  13.244 -0.3171 -0.6940 -0.1766
17150TIP3    H172941   1.456   4.921  13.150 -0.8876  1.2120  0.0762
17150TIP3    H272942   1.519   4.837  13.258  0.6398 -0.2023 -1.8439
17151TIP3   OH272943   2.431   4.737   0.514  0.1141 -0.2416  0.3325
17151TIP3    H172944   2.503   4.731   0.577 -1.6177 -1.1020  2.3722
17151TIP3    H272945   2.400   4.646   0.506 -1.5056  0.2722  0.4965
17152TIP3   OH272946   5.370   1.346  12.557  0.3447 -0.5923  0.4508
17152TIP3    H172947   5.300   1.380  12.614  0.9567  0.2328  0.7222
17152TIP3    H272948   5.446   1.340  12.614  0.7370 -0.6197 -0.0725
17153TIP3   OH272949   1.679   2.330   5.264  0.0282  0.2035 -0.1877
17153TIP3    H172950   1.773   2.333   5.280  0.1874  0.1339 -1.0475
17153TIP3    H272951   1.639   2.354   5.347  0.7882 -0.6387  0.4365
17154TIP3   OH272952   2.821   1.804  14.671 -0.5660 -0.3941  0.6012
17154TIP3    H172953   2.835   1.896  14.650 -1.6559 -0.1855  0.7011
17154TIP3    H272954   2.800   1.805  14.765 -0.1991 -0.7895  0.6879
17155TIP3   OH272955   2.448   3.485  16.963 -0.0333  0.4169  0.2745
17155TIP3    H172956   2.499   3.451  16.890  1.0352  2.3063  0.0893
17155TIP3    H272957   2.437   3.410  17.022  1.5146 -0.4295 -0.4715
17156TIP3   OH272958   2.842   4.083   0.952 -0.1342  1.1406  0.0449
17156TIP3    H172959   2.762   4.031   0.949  0.9758 -0.6565 -0.4218
17156TIP3    H272960   2.867   4.093   0.860  1.0319  0.2399  0.2473
17157TIP3   OH272961   1.339   2.684  13.786  0.3818  0.1531  0.3629
17157TIP3    H172962   1.344   2.774  13.819  0.1458  0.5974 -0.7647
17157TIP3    H272963   1.250   2.656  13.805  0.7216 -0.1868  1.5373
17158TIP3   OH272964   3.443   2.886  11.411  0.1165  0.2433  0.5450
17158TIP3    H172965   3.394   2.963  11.383 -0.9893 -0.3199  0.8828
17158TIP3    H272966   3.519   2.883  11.352  0.3018  1.6959  0.6677
17159TIP3   OH272967   1.850   6.750   0.226  0.4563 -0.2676 -0.4049
17159TIP3    H172968   1.939   6.723   0.248  0.2178 -0.8561 -0.1515
17159TIP3    H272969   1.825   6.694   0.153 -0.3069 -1.2894  0.5929
17160TIP3   OH272970   4.016   3.298   1.901  0.3126 -0.1772 -0.2778
17160TIP3    H172971   4.020   3.328   1.810 -0.8742  0.7767 -0.0506
17160TIP3    H272972   3.942   3.347   1.938  1.7006  0.5604  1.6220
17161TIP3   OH272973   4.457   1.502  11.813 -0.2306 -0.2240 -0.4112
17161TIP3    H172974   4.486   1.514  11.903 -2.7853  0.1559  0.4578
17161TIP3    H272975   4.407   1.581  11.793  0.8580  0.0099 -2.4468
17162TIP3   OH272976   2.242   5.776  15.695  0.0561 -0.3573  0.3181
17162TIP3    H172977   2.212   5.685  15.690 -2.9244  0.4735  1.1830
17162TIP3    H272978   2.238   5.798  15.787  2.2866  0.2768  0.3312
17163TIP3   OH272979   1.200   3.498  15.417  0.6537 -0.1284 -0.4061
17163TIP3    H172980   1.272   3.517  15.356 -0.9663  1.6435 -1.8886
17163TIP3    H272981   1.129   3.555  15.388 -0.5263  0.0617  2.6033
17164TIP3   OH272982   3.529   3.215   5.433 -0.7010 -0.3725  0.7792
17164TIP3    H172983   3.613   3.169   5.431 -0.5803 -0.1651  0.9771
17164TIP3    H272984   3.548   3.299   5.389 -1.6727 -1.7173 -2.5499
17165TIP3   OH272985   0.778   4.208   0.389  0.0501 -0.0025  0.5135
17165TIP3    H172986   0.765   4.203   0.483 -1.1293  1.7752  0.5072
17165TIP3    H272987   0.700   4.166   0.352  0.0374  0.1472  0.3653
17166TIP3   OH272988   0.980   3.806  14.060 -0.0822 -0.3243  0.0191
17166TIP3    H172989   0.934   3.810  14.144  0.6464 -1.7440  0.5021
17166TIP3    H272990   1.044   3.736  14.070  1.9265  1.3010 -0.7792
17167TIP3   OH272991   4.010   0.373  15.429  0.0602  0.1143 -0.2177
17167TIP3    H172992   3.920   0.353  15.454 -0.1925  0.5026 -0.7879
17167TIP3    H272993   4.047   0.289  15.403  0.1540 -0.2049  0.8767
17168TIP3   OH272994   0.304   4.668  12.512 -0.0373 -0.0138  0.2614
17168TIP3    H172995   0.214   4.635  12.509  1.0896 -3.8258  1.7618
17168TIP3    H272996   0.309   4.714  12.596 -0.3728 -0.6922  0.6669
17169TIP3   OH272997   5.419   4.481   3.963 -0.3051  0.3175  0.2479
17169TIP3    H172998   5.386   4.570   3.954 -0.8350  0.4181  2.5217
17169TIP3    H272999   5.504   4.482   3.921 -0.2594  1.9332  0.3280
17170TIP3   OH273000   2.065   4.673   0.157 -0.1062  0.6998  0.3390
17170TIP3    H173001   1.999   4.636   0.099 -0.2223 -0.7874  1.3457
17170TIP3    H273002   2.017   4.701   0.234  0.1129  2.1497 -0.0291
17171TIP3   OH273003   2.181   6.715  14.420  0.3224  0.0083 -0.3938
17171TIP3    H173004   2.261   6.678  14.383  1.5936 -1.4155  3.2991
17171TIP3    H273005   2.111   6.680  14.365  2.0566 -0.7623 -2.2308
17172TIP3   OH273006   3.339   0.080   0.585  0.3566 -0.7658 -0.0000
17172TIP3    H173007   3.307   0.149   0.527 -0.0783 -2.5450 -2.0187
17172TIP3    H273008   3.346   0.003   0.528  3.0452 -1.8391  1.6127
17173TIP3   OH273009   2.276   5.189  14.863 -0.0750  0.0157  0.1186
17173TIP3    H173010   2.282   5.132  14.940  2.3916  0.2840  0.1941
17173TIP3    H273011   2.197   5.240  14.878 -0.8529 -1.4614  1.3908
17174TIP3   OH273012   6.283   3.470   5.905 -0.1484 -0.4611  0.3848
17174TIP3    H173013   6.270   3.536   5.837  1.0773  0.0497  0.6350
17174TIP3    H273014   6.300   3.389   5.857  1.3001  0.0151  0.0652
17175TIP3   OH273015   3.976   1.724  15.940  0.7371  0.3304  0.1522
17175TIP3    H173016   3.886   1.749  15.963  0.6201 -0.6481  0.7803
17175TIP3    H273017   3.967   1.674  15.858  0.8048  0.9200 -0.2234
17176TIP3   OH273018   4.073   4.930   3.443  0.4282 -0.1513  0.4824
17176TIP3    H173019   4.156   4.976   3.452 -0.5500  1.4704  1.7558
17176TIP3    H273020   4.064   4.915   3.349  2.5041 -1.1012  0.3939
17177TIP3   OH273021   3.133   5.756  13.522 -0.3668 -0.2167 -0.2153
17177TIP3    H173022   3.065   5.756  13.590 -0.0972 -0.6068  0.0577
17177TIP3    H273023   3.086   5.778  13.442 -0.8192 -0.4831 -0.0265
17178TIP3   OH273024   1.416   0.732   6.019  0.3148  0.8740  0.1804
17178TIP3    H173025   1.386   0.672   6.087  0.0317  0.3180 -0.4276
17178TIP3    H273026   1.343   0.791   6.005  0.4935  1.2009  0.5825
17179TIP3   OH273027   3.973   5.218   6.042 -0.7399  0.2806  0.0577
17179TIP3    H173028   4.010   5.242   5.957 -0.0043  1.8088  0.7801
17179TIP3    H273029   4.048   5.186   6.093 -1.1544 -0.5016  0.1932
17180TIP3   OH273030   5.144   0.922   0.034  0.2551  0.3230 -0.0130
17180TIP3    H173031   5.154   0.827   0.046  0.1035  0.3247  0.1296
17180TIP3    H273032   5.051   0.939   0.050  0.4331  0.6125  0.7847
17181TIP3   OH273033   1.740   1.160  16.936 -0.0389 -0.4806  0.3058
17181TIP3    H173034   1.779   1.077  16.964  1.6529 -0.2100 -1.0678
17181TIP3    H273035   1.814   1.211  16.903 -1.5319  0.0772 -2.4582
17182TIP3   OH273036   5.237   0.719   5.055  0.3113 -0.1473 -0.0604
17182TIP3    H173037   5.191   0.766   4.986 -0.3258 -2.4471 -1.2822
17182TIP3    H273038   5.174   0.715   5.127  0.5033  1.1122  0.2026
17183TIP3   OH273039   4.413   0.610  16.291 -0.7446 -0.9517 -0.2953
17183TIP3    H173040   4.443   0.698  16.270 -0.5178 -0.6650  1.1727
17183TIP3    H273041   4.322   0.622  16.318 -0.0801 -0.8115  2.0746
17184TIP3   OH273042   2.706   3.812   1.476 -0.2430  0.3614  0.0202
17184TIP3    H173043   2.745   3.826   1.389 -0.2593  4.0364  0.4628
17184TIP3    H273044   2.624   3.861   1.474 -1.2457 -1.1623  1.5213
17185TIP3   OH273045   4.642   1.470   3.143  0.1897  0.4880  0.3146
17185TIP3    H173046   4.695   1.502   3.216  0.4327  1.7422 -0.3891
17185TIP3    H273047   4.564   1.524   3.144 -0.2589 -0.1511  0.2394
17186TIP3   OH273048   0.201   5.769  12.840 -0.5715 -0.3066  0.3883
17186TIP3    H173049   0.139   5.841  12.848  0.6511  1.0956 -1.6540
17186TIP3    H273050   0.249   5.788  12.759  2.6468 -1.1830  1.9377
17187TIP3   OH273051   6.058   3.685   0.064  0.1031  0.0806  0.5334
17187TIP3    H173052   5.968   3.657   0.082  0.0874  0.5497  1.2059
17187TIP3    H273053   6.063   3.688  -0.031  0.1933 -2.4929  0.3771
17188TIP3   OH273054   2.111   5.277   4.933 -0.0329  0.0887 -0.0699
17188TIP3    H173055   2.179   5.283   5.000  0.6530 -3.4485 -0.2919
17188TIP3    H273056   2.143   5.332   4.862  1.7913 -0.1707  0.4919
17189TIP3   OH273057   0.328   6.275  12.623  0.5465  0.0839 -1.0365
17189TIP3    H173058   0.262   6.228  12.572  0.4169  0.2757 -1.0468
17189TIP3    H273059   0.401   6.287  12.562  1.3033 -1.6172 -0.5513
17190TIP3   OH273060   4.562   2.682   2.833 -0.7634 -0.2805  0.0843
17190TIP3    H173061   4.527   2.708   2.918 -2.0846  1.1852 -0.8408
17190TIP3    H273062   4.549   2.759   2.777  1.6242 -0.5926 -1.0410
17191TIP3   OH273063   1.003   4.925  12.278  0.3581  0.6416  0.4998
17191TIP3    H173064   0.992   4.849  12.222  2.3186  1.3992 -1.0644
17191TIP3    H273065   0.915   4.946  12.310 -1.0859  0.7049 -3.0626
17192TIP3   OH273066   6.189   6.071  13.343 -0.6828 -0.8922  0.5269
17192TIP3    H173067   6.125   6.070  13.272  1.0403  0.7866 -1.1782
17192TIP3    H273068   6.157   6.137  13.404 -0.5823 -0.0150 -0.3477
17193TIP3   OH273069   0.195   5.251  13.463  0.4643 -0.7105  0.6345
17193TIP3    H173070   0.114   5.288  13.428  0.8888 -0.4896 -0.1566
17193TIP3    H273071   0.250   5.327  13.483  0.8665 -0.8643  0.1634
17194TIP3   OH273072   3.973   6.697   6.651  0.3758 -0.0383 -0.4556
17194TIP3    H173073   4.062   6.716   6.683  0.3078  1.1639 -0.9429
17194TIP3    H273074   3.987   6.635   6.580  0.8380  0.2260 -0.6021
17195TIP3   OH273075   0.757   5.411   6.037  0.2105 -0.2805 -0.1171
17195TIP3    H173076   0.838   5.399   6.088  1.8597 -1.4397 -2.7823
17195TIP3    H273077   0.726   5.322   6.021  0.5064 -0.0425 -2.2003
17196TIP3   OH273078   5.937   4.836  14.294  0.1960  0.4184  0.0507
17196TIP3    H173079   5.897   4.889  14.225 -0.4405 -0.6458 -0.4214
17196TIP3    H273080   6.031   4.841  14.275  0.2186  1.8378  0.3731
17197TIP3   OH273081   3.862   1.427   1.957  0.7035 -0.1006 -0.4003
17197TIP3    H173082   3.932   1.364   1.939  1.5995  0.9110 -0.5319
17197TIP3    H273083   3.786   1.393   1.908  1.2470 -0.9195 -0.6972
17198TIP3   OH273084   0.827   4.337  12.318  0.0087  0.8641 -0.5588
17198TIP3    H173085   0.849   4.305  12.230 -0.7245 -1.2020 -0.0350
17198TIP3    H273086   0.906   4.320  12.370 -1.1586 -2.6712  0.3197
17199TIP3   OH273087   2.355   0.042   0.553 -0.0797 -0.2822  0.2284
17199TIP3    H173088   2.395  -0.016   0.488 -2.5252 -1.9992  0.1183
17199TIP3    H273089   2.403   0.024   0.634  0.7203 -0.7211 -0.3290
17200TIP3   OH273090   4.983   3.965  14.365  0.2568  0.2640  0.2400
17200TIP3    H173091   5.021   4.047  14.394  0.0308 -0.0745  1.5540
17200TIP3    H273092   4.983   3.971  14.269  0.9528  1.4536  0.2950
17201TIP3   OH273093   4.069   6.695   4.807 -0.1396  0.2380 -0.0467
17201TIP3    H173094   4.064   6.621   4.868 -1.3668  0.1533 -0.2206
17201TIP3    H273095   4.078   6.771   4.864 -3.7718  0.4391  0.5158
17202TIP3   OH273096   5.115   0.741   5.307  0.1892  0.2790 -0.1695
17202TIP3    H173097   5.022   0.753   5.328  0.2161 -0.2676  0.2780
17202TIP3    H273098   5.161   0.785   5.378  0.2761 -0.5863  0.3205
17203TIP3   OH273099   6.084   0.932  14.831  0.0751 -0.4207  0.3323
17203TIP3    H173100   6.096   1.007  14.889 -1.5265  0.1411 -0.0326
17203TIP3    H273101   6.083   0.969  14.743 -0.3140 -0.9197  0.1232
17204TIP3   OH273102   6.576   6.062   0.007 -0.0231  0.5828  0.7291
17204TIP3    H173103   6.534   6.148   0.006 -0.0318  0.5882 -1.1013
17204TIP3    H273104   6.544   6.019  -0.072  0.3503 -0.9383  1.3814
17205TIP3   OH273105   0.548   1.684  13.774  0.0527 -0.4054  0.6089
17205TIP3    H173106   0.592   1.649  13.851  0.5432 -0.9151  0.1104
17205TIP3    H273107   0.586   1.635  13.701 -0.4864 -0.0112  0.0565
17206TIP3   OH273108   4.063   0.917  10.846  0.0339 -0.3146 -0.0210
17206TIP3    H173109   4.005   0.978  10.800  0.8552  0.3284 -0.2242
17206TIP3    H273110   4.054   0.835  10.797  1.7142  0.6320 -2.0839
17207TIP3   OH273111   1.367   0.009  15.537  0.1826 -0.0672 -0.2392
17207TIP3    H173112   1.377   0.051  15.622  1.3289  0.4873 -0.6242
17207TIP3    H273113   1.278   0.030  15.509  0.6835  2.1103 -0.3974
17208TIP3   OH273114   5.372   1.039   4.485 -0.0787 -0.7545  0.0159
17208TIP3    H173115   5.360   1.087   4.567  0.9317 -2.7148  1.4085
17208TIP3    H273116   5.288   0.996   4.470  0.1885 -1.6483  0.9362
17209TIP3   OH273117   5.440   3.565  14.885  0.3391 -0.3835  0.0890
17209TIP3    H173118   5.532   3.583  14.903 -0.1700  1.2683  1.3022
17209TIP3    H273119   5.397   3.575  14.970 -0.9858 -0.9268 -0.4944
17210TIP3   OH273120   6.191   5.679   0.536  0.7006  0.0470 -0.4437
17210TIP3    H173121   6.187   5.653   0.628  1.3776 -0.6866 -0.6022
17210TIP3    H273122   6.131   5.753   0.528 -1.1244 -1.3258  0.0894
17211TIP3   OH273123   6.698   3.855  12.603  0.4314 -0.1090  0.0509
17211TIP3    H173124   6.617   3.815  12.573  0.1922  0.6672 -0.3527
17211TIP3    H273125   6.687   3.864  12.698 -0.0840  0.2828 -0.0459
17212TIP3   OH273126   0.708   4.165  14.153 -0.2354  0.3471 -0.4056
17212TIP3    H173127   0.647   4.103  14.192 -0.4962  0.3108 -0.8600
17212TIP3    H273128   0.758   4.113  14.091  0.9913  0.1502  0.7058
17213TIP3   OH273129   5.736   4.882   0.835 -0.0363  0.5733 -0.2743
17213TIP3    H173130   5.667   4.875   0.769  0.9098 -2.3190 -1.1073
17213TIP3    H273131   5.712   4.818   0.902 -0.1037  2.2868  1.4391
17214TIP3   OH273132   6.462   4.316  16.112 -0.1469  0.2169 -0.2630
17214TIP3    H173133   6.553   4.339  16.132 -0.2698 -0.0946  0.7000
17214TIP3    H273134   6.423   4.398  16.083  0.4747  0.3255 -0.8066
17215TIP3   OH273135   4.706   5.081  14.411 -0.1148  0.3515  0.0463
17215TIP3    H173136   4.685   5.037  14.329  1.8988  1.1394 -0.9537
17215TIP3    H273137   4.775   5.028  14.450  1.3843  1.8212 -0.5127
17216TIP3   OH273138   5.159   0.283   2.863 -0.5224  0.2529  0.5665
17216TIP3    H173139   5.178   0.305   2.772 -0.3047 -2.1787 -0.0432
17216TIP3    H273140   5.084   0.339   2.886 -1.5962 -0.1827 -1.6318
17217TIP3   OH273141   6.453   5.710  14.577 -0.0204 -0.2883 -0.3495
17217TIP3    H173142   6.412   5.759  14.648 -1.0070 -0.4577 -0.7894
17217TIP3    H273143   6.384   5.652  14.545  0.6697 -0.8323 -0.8761
17218TIP3   OH273144   5.664   2.047  13.825 -0.1254  0.0881 -0.1675
17218TIP3    H173145   5.738   2.107  13.818  0.1893 -0.2028  0.5825
17218TIP3    H273146   5.588   2.099  13.796  0.5015  0.0616 -2.0052
17219TIP3   OH273147   3.425   3.511   0.456  0.0500 -0.4309  0.3125
17219TIP3    H173148   3.379   3.533   0.537 -0.4721  1.5872 -0.4898
17219TIP3    H273149   3.467   3.427   0.475 -0.4361 -0.2346  2.5105
17220TIP3   OH273150   3.247   6.423  14.075 -0.0447  0.2082 -0.3286
17220TIP3    H173151   3.230   6.333  14.102  0.0666  0.5237  0.8397
17220TIP3    H273152   3.338   6.422  14.045 -0.1717 -0.1454 -0.7196
17221TIP3   OH273153   0.441   4.195   2.169 -0.4081  0.5462  0.2118
17221TIP3    H173154   0.362   4.156   2.133 -1.0642  0.5707  1.5419
17221TIP3    H273155   0.498   4.120   2.190 -1.1538  0.3242  1.6023
17222TIP3   OH273156   6.298   4.351  16.637  0.9443  0.2365  0.2156
17222TIP3    H173157   6.328   4.350  16.547 -0.3671 -1.2329 -0.2495
17222TIP3    H273158   6.268   4.440  16.652  1.7250  0.6459 -0.5877
17223TIP3   OH273159   2.302   6.500   6.455  0.3131 -0.0507  0.6161
17223TIP3    H173160   2.338   6.507   6.367 -2.5069  4.1612 -0.5541
17223TIP3    H273161   2.363   6.548   6.511  0.6140 -0.0685  0.2993
17224TIP3   OH273162   2.380   3.147  16.442  0.5310 -0.2429 -0.0609
17224TIP3    H173163   2.350   3.061  16.472  1.4135  0.5122  3.4920
17224TIP3    H273164   2.303   3.203  16.449  1.1421  0.4250  3.5078
17225TIP3   OH273165   0.517   5.023  16.410 -0.1341 -0.1529  0.5693
17225TIP3    H173166   0.588   5.055  16.465 -0.0877 -0.1835  0.5269
17225TIP3    H273167   0.560   4.979  16.337 -0.1619  0.9447 -0.1479
17226TIP3   OH273168   4.092   5.937  11.750  0.2371  0.7692 -0.1378
17226TIP3    H173169   4.024   6.005  11.759 -2.7952 -1.8014 -1.5913
17226TIP3    H273170   4.117   5.917  11.840 -0.5570  2.1920  0.4325
17227TIP3   OH273171   2.740   1.868   4.822  0.5982 -0.3666  0.3962
17227TIP3    H173172   2.746   1.859   4.917 -0.1819 -1.0053  0.3962
17227TIP3    H273173   2.827   1.899   4.795  0.3560  1.3895  1.4786
17228TIP3   OH273174   5.011   3.143  15.503  0.5650  0.0885 -0.0749
17228TIP3    H173175   5.023   3.070  15.564 -1.0073 -1.5286 -1.5979
17228TIP3    H273176   5.071   3.125  15.431  0.4449  0.5276 -0.2897
17229TIP3   OH273177   0.922   1.225   0.178 -0.5022 -0.3003  0.0642
17229TIP3    H173178   0.837   1.263   0.200  0.4209  1.3775  0.9093
17229TIP3    H273179   0.961   1.205   0.262  0.9575  1.3447 -0.1623
17230TIP3   OH273180   4.831   0.522  12.155  0.8177  0.2967  0.0093
17230TIP3    H173181   4.877   0.583  12.212 -0.9389  0.7872  0.9817
17230TIP3    H273182   4.876   0.439  12.166  1.6197  0.8094  0.7135
17231TIP3   OH273183   2.932   3.897  16.750  0.0666 -0.8626 -0.4166
17231TIP3    H173184   2.971   3.860  16.830  0.3241 -1.2117 -0.6965
17231TIP3    H273185   2.857   3.841  16.732 -0.1921 -0.5761 -0.2310
17232TIP3   OH273186   5.177   3.127   4.715 -0.4271 -0.6558  0.2437
17232TIP3    H173187   5.102   3.092   4.665 -0.8028 -0.8942  0.9548
17232TIP3    H273188   5.246   3.062   4.702  0.0266  0.1010 -1.3017
17233TIP3   OH273189   3.526   0.357   1.431 -0.0508  0.3075 -0.8240
17233TIP3    H173190   3.493   0.335   1.518  0.5992  1.2450 -0.3178
17233TIP3    H273191   3.620   0.340   1.436  0.0896  0.9538 -1.1339
17234TIP3   OH273192   1.746   0.890  11.795 -0.1767  0.2067 -0.1017
17234TIP3    H173193   1.721   0.798  11.799  1.9431 -0.4253 -0.1738
17234TIP3    H273194   1.698   0.932  11.866 -0.0596 -1.2361  0.8534
17235TIP3   OH273195   3.396   5.705   1.925 -0.3603 -0.0900 -0.2746
17235TIP3    H173196   3.418   5.774   1.864  1.6599  0.2695  0.7651
17235TIP3    H273197   3.392   5.748   2.010 -1.0726 -0.9136  0.1291
17236TIP3   OH273198   4.656   4.960   3.243  0.5443  0.8737 -0.1202
17236TIP3    H173199   4.610   5.044   3.242  0.7576  0.9934 -1.2212
17236TIP3    H273200   4.741   4.979   3.203  0.7235  0.1973 -0.0756
17237TIP3   OH273201   6.194   2.238   4.294  0.2156  0.5184  0.0275
17237TIP3    H173202   6.249   2.159   4.292 -0.3662  0.0769  0.7155
17237TIP3    H273203   6.144   2.235   4.213  1.5788  1.2092 -0.8630
17238TIP3   OH273204   6.288   3.840  13.057  0.1819  0.5013 -1.0029
17238TIP3    H173205   6.213   3.782  13.045 -0.2629  0.9097 -0.2220
17238TIP3    H273206   6.270   3.915  12.999  0.2377  0.3690 -1.1946
17239TIP3   OH273207   4.231   0.743   2.980  0.1432 -0.6364 -0.6381
17239TIP3    H173208   4.169   0.720   3.050 -1.3186  0.2940 -1.5846
17239TIP3    H273209   4.219   0.837   2.967  2.9176 -0.0664  0.2038
17240TIP3   OH273210   6.165   4.234   0.819  0.0017 -0.3626 -0.1740
17240TIP3    H173211   6.139   4.269   0.734 -0.5882 -1.6711 -0.5633
17240TIP3    H273212   6.261   4.231   0.815  0.0336  0.5496 -0.3716
17241TIP3   OH273213   6.773   5.958   0.408  0.4451 -0.2748  0.4110
17241TIP3    H173214   6.806   5.879   0.451 -1.2251 -1.6058 -0.5843
17241TIP3    H273215   6.678   5.949   0.412  0.1801 -0.1221 -2.7935
17242TIP3   OH273216   3.902   4.206  12.208 -0.5163  0.2765 -0.9321
17242TIP3    H173217   3.867   4.153  12.280  0.2214 -1.9263 -2.1205
17242TIP3    H273218   3.957   4.272  12.252 -0.3240 -0.8164  0.5492
17243TIP3   OH273219   4.126   0.361  11.920  0.2476  0.0651 -0.1428
17243TIP3    H173220   4.056   0.410  11.963 -0.5741 -0.8427 -0.4180
17243TIP3    H273221   4.205   0.388  11.966 -0.3316  0.7952  0.4521
17244TIP3   OH273222   5.406   6.500  10.533  0.3641  0.2554 -0.1504
17244TIP3    H173223   5.329   6.447  10.512  0.9745 -1.3027  1.2662
17244TIP3    H273224   5.446   6.519  10.448 -1.2491  0.5917 -0.8580
17245TIP3   OH273225   0.088   1.099  15.639  0.0881  0.3603 -0.2256
17245TIP3    H173226   0.113   1.088  15.548  0.0555  2.2078 -0.4942
17245TIP3    H273227   0.006   1.051  15.648  0.8599 -1.1184 -0.7435
17246TIP3   OH273228   0.984   0.967   5.433  0.3607  0.5108  0.4048
17246TIP3    H173229   0.906   0.988   5.484  0.2349 -0.7237  0.7424
17246TIP3    H273230   0.955   0.969   5.342 -0.7444 -2.3586  0.5954
17247TIP3   OH273231   5.741   2.862  14.281  0.1803  0.0955  0.4859
17247TIP3    H173232   5.816   2.884  14.226  0.2029 -0.5586  0.2458
17247TIP3    H273233   5.672   2.839  14.219  0.3311 -1.0544  0.7148
17248TIP3   OH273234   6.716   6.774   3.617  0.3426 -0.4798 -0.3442
17248TIP3    H173235   6.646   6.709   3.611 -2.1341  1.9985 -0.6664
17248TIP3    H273236   6.722   6.793   3.711 -2.7063  2.3213 -0.4973
17249TIP3   OH273237   1.542   4.695  11.789 -0.2886  0.3301  0.2306
17249TIP3    H173238   1.491   4.711  11.869 -1.3340 -0.6206 -0.2184
17249TIP3    H273239   1.479   4.656  11.728  0.9469 -0.7518 -0.3961
17250TIP3   OH273240   0.954   5.899  15.405 -0.3029 -0.1624  0.1433
17250TIP3    H173241   0.889   5.837  15.372  0.7229 -1.2472  0.0887
17250TIP3    H273242   1.036   5.873  15.361  0.0088  1.7047 -0.4497
17251TIP3   OH273243   5.268   6.777  17.184 -0.2976  0.1594 -0.4513
17251TIP3    H173244   5.228   6.711  17.240 -0.4808 -0.3157 -1.1325
17251TIP3    H273245   5.270   6.856  17.238 -0.6648 -0.2295  0.1477
17252TIP3   OH273246   2.129   4.469  13.812  0.3278  0.4190 -0.3668
17252TIP3    H173247   2.132   4.514  13.728 -0.8279 -0.0324 -0.6697
17252TIP3    H273248   2.041   4.485  13.845  0.0455 -1.1698 -0.2477
17253TIP3   OH273249   2.056   2.363   1.672 -0.5789 -0.1711  0.2338
17253TIP3    H173250   2.147   2.362   1.643 -0.1117  2.1618  1.3854
17253TIP3    H273251   2.010   2.414   1.605 -0.4801  0.8938  0.9444
17254TIP3   OH273252   5.120   1.312   2.721 -0.4207  0.3102  0.1171
17254TIP3    H173253   5.203   1.296   2.676 -0.3227  2.4599 -0.5822
17254TIP3    H273254   5.057   1.255   2.677  0.0983  0.8366 -1.3679
17255TIP3   OH273255   2.815   2.105  14.205 -0.6922  0.9975  0.2052
17255TIP3    H173256   2.835   2.090  14.112 -0.8538  0.5190  0.2483
17255TIP3    H273257   2.873   2.177  14.230 -1.3602  1.8192 -0.5305
17256TIP3   OH273258   3.626   0.498  16.216 -0.3264  0.2867 -0.0931
17256TIP3    H173259   3.634   0.495  16.120  1.5620  0.3485  0.0278
17256TIP3    H273260   3.538   0.531  16.231 -1.5327 -1.8173 -1.7826
17257TIP3   OH273261   4.875   1.510  15.635 -0.3335 -0.2800  0.1774
17257TIP3    H173262   4.955   1.470  15.600  0.4994  1.5826 -0.1868
17257TIP3    H273263   4.854   1.458  15.713  0.7132 -1.3517 -0.2199
17258TIP3   OH273264   5.977   6.359  14.904 -0.1157  0.2024 -0.1989
17258TIP3    H173265   5.996   6.303  14.829  0.1706  0.0271 -0.0002
17258TIP3    H273266   6.061   6.402  14.923 -0.1208  0.0467  0.1811
17259TIP3   OH273267   5.124   1.334   1.973 -0.3705  0.2087 -0.4271
17259TIP3    H173268   5.146   1.372   1.888 -0.4982 -2.8155 -1.9593
17259TIP3    H273269   5.054   1.271   1.953 -0.0162 -0.9982  1.8268
17260TIP3   OH273270   5.987   3.306  12.211  0.2737  0.3408 -0.2108
17260TIP3    H173271   5.987   3.243  12.138 -2.3015 -0.0189 -0.0069
17260TIP3    H273272   6.076   3.340  12.213  1.2501 -1.8602 -1.5821
17261TIP3   OH273273   0.579   2.938  11.724 -0.8322  0.2085 -0.1376
17261TIP3    H173274   0.567   3.014  11.780 -1.5583 -0.4648  0.6554
17261TIP3    H273275   0.490   2.907  11.707 -0.7259  1.0260 -2.5837
17262TIP3   OH273276   2.282   1.516   2.043 -0.3848  0.2067  0.2760
17262TIP3    H173277   2.272   1.426   2.073 -2.6295  0.7446  1.3515
17262TIP3    H273278   2.323   1.562   2.117 -1.3741  0.5135  0.6525
17263TIP3   OH273279   2.595   1.890  17.039 -0.1809 -0.3956 -0.1575
17263TIP3    H173280   2.579   1.818  16.979  1.5754  0.5707 -1.8956
17263TIP3    H273281   2.658   1.855  17.103  0.1897 -0.6082 -0.6335
17264TIP3   OH273282   0.918   5.049   6.288  0.0701  0.0410  0.6312
17264TIP3    H173283   0.935   5.062   6.195  0.0220  2.5620  0.9167
17264TIP3    H273284   0.825   5.067   6.299  0.3262  1.0376  1.3359
17265TIP3   OH273285   2.279   2.869   0.114  0.2127 -0.3684  0.0734
17265TIP3    H173286   2.327   2.801   0.068 -0.9527 -0.3856 -1.1771
17265TIP3    H273287   2.261   2.832   0.201 -1.6112 -2.2834 -1.0231
17266TIP3   OH273288   1.163   5.204  15.270 -0.2258 -0.4020  0.5490
17266TIP3    H173289   1.125   5.186  15.184  0.1867  1.2164 -0.0103
17266TIP3    H273290   1.118   5.143  15.329 -1.7439 -0.3821 -0.5225
17267TIP3   OH273291   3.664   4.776  12.521 -0.5490 -0.0353 -0.1733
17267TIP3    H173292   3.753   4.767  12.553 -0.4523  1.0708 -0.0701
17267TIP3    H273293   3.661   4.864  12.483 -1.1145 -0.7077 -1.7737
17268TIP3   OH273294   2.144   4.349   4.784  0.4561  0.7173 -0.1436
17268TIP3    H173295   2.126   4.271   4.731  1.3757  0.2363  0.2207
17268TIP3    H273296   2.230   4.379   4.752  0.9781  0.4774  0.9846
17269TIP3   OH273297   6.026   1.580  11.809  0.1890 -0.1857  0.2392
17269TIP3    H173298   6.033   1.589  11.904  0.7487 -0.3342  0.2174
17269TIP3    H273299   5.934   1.560  11.793 -0.2810  1.4780  0.6237
17270TIP3   OH273300   5.606   2.251   5.846 -0.2498  0.1158 -0.0510
17270TIP3    H173301   5.608   2.165   5.805 -0.2542  0.4633 -0.8036
17270TIP3    H273302   5.514   2.267   5.864 -0.0573 -0.9559  2.1226
17271TIP3   OH273303   5.765   0.491   2.678 -0.3004  0.0684 -0.5981
17271TIP3    H173304   5.757   0.510   2.771 -0.1759  0.1127 -0.5962
17271TIP3    H273305   5.693   0.539   2.637 -0.3896  0.0031 -0.5193
17272TIP3   OH273306   2.207   0.523  13.313  0.4627 -0.3157  0.2760
17272TIP3    H173307   2.136   0.459  13.309  1.1939 -1.1252  0.0028
17272TIP3    H273308   2.214   0.558  13.224 -1.3846  1.8023  0.8731
17273TIP3   OH273309   5.210   5.918   3.084  0.0887  0.3762  0.0195
17273TIP3    H173310   5.158   5.947   3.159  0.4683  0.0024  0.4307
17273TIP3    H273311   5.220   5.824   3.096 -0.9237  0.0831 -1.1764
17274TIP3   OH273312   5.230   3.485   3.126  0.7592  0.5056 -0.2925
17274TIP3    H173313   5.240   3.423   3.198 -2.7961 -0.8689 -0.7629
17274TIP3    H273314   5.246   3.571   3.164 -0.0889 -0.2599  1.9299
17275TIP3   OH273315   2.254   3.785   2.645 -0.0648  0.4135 -0.1609
17275TIP3    H173316   2.179   3.754   2.594  0.7967  0.1571 -1.2915
17275TIP3    H273317   2.222   3.784   2.736 -1.0910 -0.7367 -0.5000
17276TIP3   OH273318   2.227   4.410   2.014 -0.0163 -0.8516  0.4023
17276TIP3    H173319   2.132   4.395   2.014 -0.0640 -0.5993  1.3155
17276TIP3    H273320   2.256   4.376   2.098  1.0779 -3.1023 -0.7929
17277TIP3   OH273321   4.749   3.363   4.395 -0.4044 -0.0043 -0.2256
17277TIP3    H173322   4.708   3.432   4.448 -1.8881 -1.4498  0.6238
17277TIP3    H273323   4.826   3.337   4.445  0.4833  1.3541 -0.8209
17278TIP3   OH273324   3.759   5.483   3.099  0.2103 -1.1191 -0.1696
17278TIP3    H173325   3.726   5.395   3.121 -1.0475 -0.0877  2.4718
17278TIP3    H273326   3.853   5.478   3.116  0.3107 -2.1848 -0.9377
17279TIP3   OH273327   2.066   1.152   2.303 -0.4993  0.6451 -0.8561
17279TIP3    H173328   2.151   1.118   2.276  0.6516  3.2149 -0.6787
17279TIP3    H273329   2.026   1.080   2.352  1.1151 -0.9587 -1.7735
17280TIP3   OH273330   3.098   6.455   4.751 -0.2523 -0.2205 -0.0471
17280TIP3    H173331   3.044   6.494   4.682 -0.6137 -1.9092 -0.7589
17280TIP3    H273332   3.165   6.521   4.768 -1.3697  1.0880 -0.5421
17281TIP3   OH273333   5.255   4.017   1.867 -0.7188 -0.1552  0.2171
17281TIP3    H173334   5.322   4.068   1.821 -2.2402  1.1923 -0.5983
17281TIP3    H273335   5.271   4.035   1.960  0.6685 -0.7091  0.1204
17282TIP3   OH273336   5.890   4.026  11.988 -0.6906 -0.3267 -0.0082
17282TIP3    H173337   5.881   4.121  11.998  1.1965 -0.3261  2.7169
17282TIP3    H273338   5.817   3.990  12.038 -0.1040 -0.2826  0.9013
17283TIP3   OH273339   1.059   3.145  11.375 -0.0298  0.5558  0.2986
17283TIP3    H173340   1.018   3.184  11.452  1.2117 -0.9857  1.8268
17283TIP3    H273341   0.998   3.077  11.347  0.1732  0.1353  0.8517
17284TIP3   OH273342   4.256   1.839  16.808  0.3442 -0.0234  0.3836
17284TIP3    H173343   4.341   1.801  16.830  0.5326  0.2880  0.1900
17284TIP3    H273344   4.268   1.933  16.815 -0.3464  0.0010  1.6758
17285TIP3   OH273345   0.790   6.409   3.161  0.0688  0.1414 -0.7241
17285TIP3    H173346   0.793   6.345   3.232 -0.4712  2.6529  1.7258
17285TIP3    H273347   0.706   6.393   3.118 -0.9930  0.4415  1.1382
17286TIP3   OH273348   6.555   3.210  12.136  0.4110 -0.2623 -0.7563
17286TIP3    H173349   6.467   3.227  12.101  0.1058  0.1953  0.1932
17286TIP3    H273350   6.613   3.260  12.079 -0.2383  1.8924  0.3458
17287TIP3   OH273351   3.120   1.140   1.534  0.2515 -0.3125  0.0190
17287TIP3    H173352   3.208   1.140   1.498  0.2956  1.8282 -0.0240
17287TIP3    H273353   3.132   1.135   1.629  0.3899 -0.3409 -0.0001
17288TIP3   OH273354   1.099   2.558  14.278  0.5000  0.5439  0.2017
17288TIP3    H173355   1.043   2.481  14.282  0.5773  0.4163 -0.9042
17288TIP3    H273356   1.057   2.615  14.213  0.5683  1.3396  0.8378
17289TIP3   OH273357   6.145   6.789   0.692 -0.1350 -0.8096  0.5583
17289TIP3    H173358   6.092   6.855   0.735  1.4864  0.2212  1.0334
17289TIP3    H273359   6.176   6.831   0.612  1.3419 -0.7810  1.1233
17290TIP3   OH273360   5.083   5.634  12.704 -0.4081  0.7057 -0.4174
17290TIP3    H173361   5.060   5.614  12.794 -2.1366  3.3198 -0.1624
17290TIP3    H273362   5.168   5.676  12.709  0.3265 -0.7253 -0.2763
17291TIP3   OH273363   1.406   2.480   3.599  0.0025  0.2083  0.1058
17291TIP3    H173364   1.322   2.438   3.578 -0.7393  1.8719 -0.4450
17291TIP3    H273365   1.386   2.539   3.672  0.4687  1.2959 -0.6249
17292TIP3   OH273366   5.547   4.280  10.846  0.7554 -1.0159 -0.0118
17292TIP3    H173367   5.492   4.359  10.857 -0.1656 -1.8854  2.2421
17292TIP3    H273368   5.631   4.304  10.884  0.6557 -0.9280  0.1557
17293TIP3   OH273369   5.597   4.422  11.465 -0.1230  0.2648  0.2923
17293TIP3    H173370   5.600   4.459  11.553  0.8350  0.8151  0.0368
17293TIP3    H273371   5.588   4.498  11.408 -1.2488 -0.1218 -0.0753
17294TIP3   OH273372   1.867   1.568   1.814  0.6448 -0.0288 -0.5491
17294TIP3    H173373   1.955   1.601   1.834  1.1054 -0.8402 -1.1424
17294TIP3    H273374   1.845   1.511   1.887  0.7278 -0.0186 -0.5162
17295TIP3   OH273375   4.970   2.536   4.000  0.3976  0.6129 -0.1385
17295TIP3    H173376   4.940   2.578   4.080  2.1218  0.3648  0.6667
17295TIP3    H273377   5.016   2.458   4.029  0.2136 -0.0140 -1.4391
17296TIP3   OH273378   0.125   5.799  17.161 -0.6630  0.9491  0.3305
17296TIP3    H173379   0.076   5.755  17.091 -0.7851  1.9607 -0.2471
17296TIP3    H273380   0.217   5.789  17.136 -0.5117 -1.1330  1.5230
17297TIP3   OH273381   5.967   2.485  11.648 -0.1722 -0.5281 -0.5121
17297TIP3    H173382   6.053   2.497  11.607 -0.5558  2.1451 -0.6999
17297TIP3    H273383   5.905   2.516  11.583 -1.3018 -1.9482 -0.1701
17298TIP3   OH273384   4.154   2.586  14.373 -0.1081 -0.3974  0.9548
17298TIP3    H173385   4.243   2.623  14.368 -0.6105  0.8448  0.9434
17298TIP3    H273386   4.106   2.646  14.430 -0.5069 -1.9903  2.3596
17299TIP3   OH273387   1.366   5.376   5.293 -0.0902  0.1315 -0.3206
17299TIP3    H173388   1.409   5.458   5.270 -1.6657  0.8589 -0.7923
17299TIP3    H273389   1.389   5.316   5.222  1.8716 -0.1875  0.5147
17300TIP3   OH273390   3.440   2.123   1.765  0.3105 -0.3264 -0.3385
17300TIP3    H173391   3.512   2.165   1.718  0.3546 -0.2890 -0.2380
17300TIP3    H273392   3.375   2.193   1.776  0.1067 -0.4499 -0.7400
17301TIP3   OH273393   0.719   4.952   4.342  0.4536  0.2109 -0.0227
17301TIP3    H173394   0.672   5.028   4.377  2.3540  0.4438  2.2375
17301TIP3    H273395   0.810   4.965   4.368  1.1465 -2.0203 -1.0575
17302TIP3   OH273396   3.635   6.765  16.007 -0.0826  0.0075  0.1903
17302TIP3    H173397   3.715   6.729  15.967 -0.6942 -0.6307 -0.4779
17302TIP3    H273398   3.652   6.760  16.101  0.6488 -0.1727  0.0591
17303TIP3   OH273399   0.911   3.921  16.512  0.2881  0.5492 -0.0364
17303TIP3    H173400   0.980   3.987  16.524  1.1069 -0.3024  0.0345
17303TIP3    H273401   0.829   3.972  16.513  0.8988  1.5634 -0.0124
17304TIP3   OH273402   2.939   0.620  16.730  0.7278  0.1846 -0.0985
17304TIP3    H173403   2.855   0.590  16.697  1.5903 -0.8572 -1.4673
17304TIP3    H273404   2.966   0.689  16.670  2.4898 -1.9950 -2.0449
17305TIP3   OH273405   1.870   1.084   5.054 -0.4361  0.5474  0.3412
17305TIP3    H173406   1.832   1.128   4.979  0.1092 -0.0002 -0.2640
17305TIP3    H273407   1.795   1.069   5.113 -0.9272  0.6738 -0.2373
17306TIP3   OH273408   2.341   1.586  10.233 -0.2184  0.6588 -0.2258
17306TIP3    H173409   2.436   1.580  10.223 -0.2153 -3.5136  0.6030
17306TIP3    H273410   2.320   1.677  10.211  4.0131  1.9794  0.4093
17307TIP3   OH273411   3.332   1.396   0.158  0.0343 -0.3655 -0.0208
17307TIP3    H173412   3.366   1.379   0.246  1.6531 -0.1734 -0.5612
17307TIP3    H273413   3.401   1.448   0.116 -0.3063 -1.2024 -1.6851
17308TIP3   OH273414   3.133   1.880   2.483 -0.4304  0.4806 -0.6118
17308TIP3    H173415   3.197   1.856   2.416  0.5935  0.6725  0.2699
17308TIP3    H273416   3.074   1.941   2.438 -0.7003 -0.5771 -1.7576
17309TIP3   OH273417   2.933   3.105  11.775 -0.0052 -0.4036  0.6152
17309TIP3    H173418   2.977   3.161  11.839 -0.0035 -0.5574  0.7461
17309TIP3    H273419   2.980   3.122  11.693  0.9616 -1.3301  0.9650
17310TIP3   OH273420   6.713   0.547  11.420 -0.2622 -0.1716  0.0987
17310TIP3    H173421   6.629   0.531  11.376  0.5696 -0.8803 -1.3268
17310TIP3    H273422   6.770   0.580  11.351  0.2854  1.6496  1.3459
17311TIP3   OH273423   0.294   4.738   1.026  0.1883 -0.2695 -0.4120
17311TIP3    H173424   0.252   4.814   1.066  1.0968  0.4184 -0.7346
17311TIP3    H273425   0.322   4.768   0.940  1.4127 -0.6756 -0.1708
17312TIP3   OH273426   2.422   6.105  10.995  0.0228 -0.8254  0.5025
17312TIP3    H173427   2.352   6.070  10.939  1.4531  0.2781 -2.1532
17312TIP3    H273428   2.503   6.082  10.949  1.2793  0.4255  1.9797
17313TIP3   OH273429   0.751   4.051   4.308 -0.2234  0.0721 -0.1447
17313TIP3    H173430   0.681   4.089   4.362  1.5906  2.0501  0.9645
17313TIP3    H273431   0.832   4.083   4.348  1.3809 -2.5859 -1.0377
17314TIP3   OH273432   0.612   3.732  12.196  0.2812 -0.2405  0.2278
17314TIP3    H173433   0.688   3.692  12.239  0.8302 -0.5269 -0.9450
17314TIP3    H273434   0.561   3.771  12.267  0.3156 -2.0463  1.2950
17315TIP3   OH273435   4.051   2.221  13.199  0.3761 -0.2452 -0.4297
17315TIP3    H173436   4.126   2.174  13.234 -0.3390 -1.0820  0.0237
17315TIP3    H273437   3.977   2.194  13.254 -0.6449 -0.9914 -2.0478
17316TIP3   OH273438   5.360   0.683   4.161 -0.3349  0.1371 -0.2749
17316TIP3    H173439   5.314   0.767   4.165 -0.8499 -0.1712  1.6737
17316TIP3    H273440   5.439   0.697   4.214 -0.1761 -0.4472 -0.3469
17317TIP3   OH273441   0.499   4.571  11.899  0.1313 -0.5939 -0.3583
17317TIP3    H173442   0.506   4.613  11.813 -1.3032  2.2032  0.7938
17317TIP3    H273443   0.409   4.541  11.905  0.3590 -1.2440  0.0051
17318TIP3   OH273444   5.356   0.308  11.986  0.5747  0.1625 -0.2002
17318TIP3    H173445   5.299   0.263  12.048 -0.9549  4.2091  1.6162
17318TIP3    H273446   5.422   0.351  12.040  2.3483 -0.2586 -1.8945
17319TIP3   OH273447   3.529   4.855   2.437  0.3471 -0.1643 -0.1807
17319TIP3    H173448   3.582   4.934   2.428 -2.9847  2.4233  0.9897
17319TIP3    H273449   3.539   4.829   2.528 -1.0689  0.9443  0.3223
17320TIP3   OH273450   4.489   3.144  16.365 -0.3410  0.2493 -0.4671
17320TIP3    H173451   4.474   3.116  16.275 -0.1555 -0.4365 -0.2874
17320TIP3    H273452   4.486   3.063  16.417 -0.2106  0.6071  0.1110
17321TIP3   OH273453   5.491   3.536   2.563  0.0392  0.5113  0.1068
17321TIP3    H173454   5.500   3.469   2.495  0.4416 -0.3527  0.9819
17321TIP3    H273455   5.575   3.535   2.609 -0.4418  0.6228  1.0169
17322TIP3   OH273456   0.516   4.241  16.790 -0.2411 -0.3760 -0.1075
17322TIP3    H173457   0.509   4.275  16.701 -0.2635  2.9178  1.0466
17322TIP3    H273458   0.540   4.149  16.777  0.7639  0.1883 -3.4926
17323TIP3   OH273459   6.626   4.147  15.351  0.1285  0.4622  1.1853
17323TIP3    H173460   6.572   4.085  15.399 -1.4756  0.5350 -0.4293
17323TIP3    H273461   6.659   4.097  15.276 -0.5828  1.3245  0.2692
17324TIP3   OH273462   5.088   0.484  12.252 -0.1748 -0.0039 -0.1282
17324TIP3    H173463   5.053   0.490  12.341 -0.5605 -0.9520 -0.2055
17324TIP3    H273464   5.168   0.537  12.255 -0.4607  0.4091  0.6336
17325TIP3   OH273465   4.833   6.213   5.063  0.0697  0.0497  0.7251
17325TIP3    H173466   4.879   6.156   5.001  0.7401 -0.7156  1.8680
17325TIP3    H273467   4.866   6.185   5.149 -0.0268  1.7935  1.3601
17326TIP3   OH273468   0.822   3.674   4.658  0.3675 -0.4077  0.9071
17326TIP3    H173469   0.785   3.726   4.730  0.3446 -0.1817  0.7343
17326TIP3    H273470   0.746   3.633   4.617  0.2960  0.1492  0.4804
17327TIP3   OH273471   1.891   3.771   0.119 -0.0638  0.3125  0.3332
17327TIP3    H173472   1.896   3.703   0.186 -0.5609  1.4159  1.5358
17327TIP3    H273473   1.981   3.778   0.086  0.0819 -0.6095  0.5024
17328TIP3   OH273474   5.275   2.982  14.096 -0.4683  0.3969  0.1692
17328TIP3    H173475   5.198   2.989  14.039 -1.6550  2.1513  1.8851
17328TIP3    H273476   5.240   2.989  14.185  1.6004  0.3600  1.0348
17329TIP3   OH273477   3.201   2.747   0.767 -0.1460 -0.1744 -0.0289
17329TIP3    H173478   3.205   2.841   0.782 -1.0343 -0.2717  0.8780
17329TIP3    H273479   3.163   2.738   0.680  2.8049  0.3411 -1.5125
17330TIP3   OH273480   3.637   5.548   2.557  0.1904 -0.0306  0.1289
17330TIP3    H173481   3.646   5.566   2.650  0.2529 -1.4982  0.4305
17330TIP3    H273482   3.655   5.632   2.514  0.6976  0.5314  1.4047
17331TIP3   OH273483   3.108   2.648  15.194 -0.5233  0.1872  0.5491
17331TIP3    H173484   3.151   2.564  15.211 -1.2544 -0.1061  1.0045
17331TIP3    H273485   3.014   2.627  15.196 -0.6892  0.7703 -0.6432
17332TIP3   OH273486   0.792   0.698  14.489  0.4127 -0.5040 -0.2060
17332TIP3    H173487   0.846   0.659  14.420  2.8503  0.5240  1.0003
17332TIP3    H273488   0.818   0.651  14.569 -1.5593 -0.9314  0.2330
17333TIP3   OH273489   4.232   2.960   4.927 -0.7545  0.1192  0.5462
17333TIP3    H173490   4.246   3.026   4.994  0.7185 -0.5252  0.9177
17333TIP3    H273491   4.278   2.994   4.850 -2.0064  0.6145 -0.0104
17334TIP3   OH273492   3.978   2.814  15.707  0.1191 -0.2888 -0.0770
17334TIP3    H173493   3.886   2.820  15.732  0.0641  1.6669 -0.6504
17334TIP3    H273494   4.026   2.858  15.777  0.4380  0.4668 -0.7623
17335TIP3   OH273495   0.982   6.481   1.629  0.2265 -0.6739 -0.2510
17335TIP3    H173496   0.999   6.551   1.565 -0.4403  0.3341  0.6241
17335TIP3    H273497   0.899   6.442   1.600 -2.4337  2.5682  2.1613
17336TIP3   OH273498   3.535   4.761  14.384  0.4751  0.5503 -0.3009
17336TIP3    H173499   3.597   4.833  14.393 -0.1188  0.8453  2.6803
17336TIP3    H273500   3.589   4.686  14.360  1.6537  1.2726 -0.0202
17337TIP3   OH273501   4.664   3.512   5.067  0.0296 -0.5627  0.2356
17337TIP3    H173502   4.609   3.495   4.991  1.3411 -3.0815 -0.2636
17337TIP3    H273503   4.603   3.530   5.139 -1.2586  0.3433 -1.0408
17338TIP3   OH273504   3.645   0.122  14.145  0.9635 -0.2458 -0.3814
17338TIP3    H173505   3.685   0.194  14.097  1.5667 -0.3391 -0.0436
17338TIP3    H273506   3.683   0.128  14.233  1.0252 -0.9678 -0.3512
17339TIP3   OH273507   6.738   0.603  11.691  0.1704 -0.2795  0.3919
17339TIP3    H173508   6.738   0.586  11.597  0.8339 -0.2848  0.3889
17339TIP3    H273509   6.793   0.681  11.701 -0.2288 -0.0358  0.7363
17340TIP3   OH273510   0.939   6.766  15.147  0.1393 -0.3164 -0.4991
17340TIP3    H173511   0.948   6.852  15.189 -2.7184 -0.1829  0.0377
17340TIP3    H273512   0.899   6.711  15.215 -2.0277 -0.8577 -2.1144
17341TIP3   OH273513   5.191   4.485   6.301  0.0894 -0.5131 -0.5158
17341TIP3    H173514   5.205   4.398   6.339  1.6039  0.0104  0.1997
17341TIP3    H273515   5.244   4.485   6.221  1.6463  0.3397  0.4544
17342TIP3   OH273516   5.362   3.722   1.359  0.2379 -0.4108 -0.4215
17342TIP3    H173517   5.361   3.814   1.386 -0.4387 -0.5709  0.1099
17342TIP3    H273518   5.352   3.725   1.264 -0.7035  0.0364 -0.3209
17343TIP3   OH273519   5.490   6.796  11.672  0.6108 -0.3591  0.7764
17343TIP3    H173520   5.530   6.731  11.729  2.9163 -0.0426 -0.3629
17343TIP3    H273521   5.514   6.768  11.584 -0.1988  0.8629  0.1498
17344TIP3   OH273522   4.296   0.313   6.023  0.3797  0.4042 -0.1676
17344TIP3    H173523   4.284   0.233   5.972  1.0341 -0.5846  1.1766
17344TIP3    H273524   4.391   0.329   6.021  0.4498  0.2211  0.8912
17345TIP3   OH273525   4.200   3.950   5.099  0.0122 -0.0731  0.3084
17345TIP3    H173526   4.258   3.965   5.025 -0.7756  2.4244  0.1036
17345TIP3    H273527   4.257   3.918   5.169  1.1482 -0.2564 -0.6820
17346TIP3   OH273528   1.355   0.053   0.558  0.3308 -0.3781 -0.0712
17346TIP3    H173529   1.311   0.114   0.617 -1.6880 -1.1346 -0.7164
17346TIP3    H273530   1.380  -0.020   0.614 -0.2378 -0.4363  0.1110
17347TIP3   OH273531   2.570   1.458   0.362  0.1922 -0.4955 -0.5762
17347TIP3    H173532   2.587   1.407   0.441 -0.1230 -0.3908 -0.4363
17347TIP3    H273533   2.648   1.513   0.352 -0.0407 -0.0342  0.0429
17348TIP3   OH273534   0.447   0.619  14.310 -0.2184  0.0735  0.2366
17348TIP3    H173535   0.380   0.566  14.353  0.3398 -0.5439  0.3586
17348TIP3    H273536   0.527   0.602  14.360 -0.7272  4.0942  2.8690
17349TIP3   OH273537   1.546   2.602  12.319  0.0555  0.0904 -0.1910
17349TIP3    H173538   1.597   2.682  12.331  0.8048 -0.5754  1.2741
17349TIP3    H273539   1.607   2.540  12.278  0.3392 -0.5788  1.1902
17350TIP3   OH273540   2.315   6.145  17.156  0.3138  0.6361  0.4078
17350TIP3    H173541   2.225   6.174  17.174 -0.1675 -0.3303 -0.2928
17350TIP3    H273542   2.303   6.064  17.105  1.5728 -0.5953  1.9799
17351TIP3   OH273543   5.219   0.267   4.286  0.4462 -0.5024  0.2896
17351TIP3    H173544   5.218   0.342   4.344 -1.8934  0.7648 -1.2451
17351TIP3    H273545   5.312   0.244   4.279  1.1916  1.9094  1.2159
17352TIP3   OH273546   1.748   3.795  17.098  0.1272  0.4412  0.0975
17352TIP3    H173547   1.735   3.751  17.182 -0.2658  0.8211  0.2387
17352TIP3    H273548   1.843   3.798  17.087  0.1689 -0.2143  0.1979
17353TIP3   OH273549   2.615   4.391  16.066  0.0352 -0.0984 -0.0705
17353TIP3    H173550   2.579   4.434  16.144  1.0022 -0.4181  0.5792
17353TIP3    H273551   2.709   4.387  16.083  0.2275 -0.4216 -1.1497
17354TIP3   OH273552   6.414   4.984   0.320  0.6665 -0.3594  0.0927
17354TIP3    H173553   6.498   4.947   0.292  0.5318 -1.6592  1.2628
17354TIP3    H273554   6.350   4.942   0.263  0.6969 -0.3847  0.0773
17355TIP3   OH273555   0.731   6.228   1.632 -0.1568  0.3865  0.1629
17355TIP3    H173556   0.727   6.281   1.712  0.9633 -0.3501  0.7203
17355TIP3    H273557   0.824   6.221   1.613 -0.2057 -2.0425  0.5608
17356TIP3   OH273558   6.693   1.234  10.583 -0.4794 -0.2498 -0.7676
17356TIP3    H173559   6.646   1.239  10.666  0.8425  0.0434 -0.0178
17356TIP3    H273560   6.734   1.319  10.573 -0.2196 -0.4492 -1.4863
17357TIP3   OH273561   1.622   6.725   2.273  0.0288  0.5406  0.5652
17357TIP3    H173562   1.704   6.684   2.302  0.4760 -0.1931 -1.5868
17357TIP3    H273563   1.650   6.795   2.214 -0.7897 -1.9532 -3.1084
17358TIP3   OH273564   4.189   5.474  10.866 -0.3872  0.3564 -0.6544
17358TIP3    H173565   4.097   5.469  10.892  0.4477  0.2753  2.5997
17358TIP3    H273566   4.207   5.388  10.828 -1.3807 -0.0221 -0.3124
17359TIP3   OH273567   6.396   2.483   3.322 -0.0597  0.2257 -0.0446
17359TIP3    H173568   6.308   2.520   3.316 -0.6761 -1.2171 -0.4335
17359TIP3    H273569   6.421   2.494   3.414 -1.5465 -1.2310  0.5792
17360TIP3   OH273570   5.852   5.438  15.308 -0.0927  0.5324 -0.4058
17360TIP3    H173571   5.823   5.367  15.252 -0.9880  0.0405  0.6500
17360TIP3    H273572   5.794   5.511  15.286  0.0871  0.5944 -0.6816
17361TIP3   OH273573   1.941   6.254  10.639 -0.3018  0.4436  0.2941
17361TIP3    H173574   1.891   6.318  10.588  1.0689  0.9519 -0.4667
17361TIP3    H273575   2.031   6.289  10.639  0.0622 -0.4272  1.6254
17362TIP3   OH273576   3.008   0.215  12.494 -0.4516  0.5332  0.5529
17362TIP3    H173577   2.983   0.122  12.497 -0.7674  0.6070  0.2758
17362TIP3    H273578   2.959   0.250  12.420  0.6257  0.6452 -0.1197
17363TIP3   OH273579   0.894   6.418   1.911 -0.1833  0.6139  0.1410
17363TIP3    H173580   0.914   6.468   1.832 -0.9803 -0.2227 -0.6131
17363TIP3    H273581   0.970   6.361   1.923  0.0529  0.9226  0.1335
17364TIP3   OH273582   5.444   5.185  13.899  0.3540  0.2589 -0.3339
17364TIP3    H173583   5.415   5.216  13.984  1.5845  0.2760  0.0979
17364TIP3    H273584   5.521   5.238  13.879  1.6142 -1.4467 -0.2582
17365TIP3   OH273585   1.989   1.171   4.356  0.2835  0.0136 -0.8387
17365TIP3    H173586   1.986   1.211   4.443 -1.5516 -0.2863 -0.7239
17365TIP3    H273587   2.066   1.115   4.358  0.3870  0.1726  0.5349
17366TIP3   OH273588   2.565   0.462  14.176 -0.3507  0.1822  0.4908
17366TIP3    H173589   2.471   0.466  14.197 -0.6047 -0.1362 -0.5220
17366TIP3    H273590   2.604   0.415  14.249 -1.0673 -0.1154  0.6905
17367TIP3   OH273591   3.868   1.969  15.464 -0.0892 -0.0926  0.0735
17367TIP3    H173592   3.961   1.975  15.484 -0.0240  0.0248 -0.2576
17367TIP3    H273593   3.853   2.038  15.399 -1.0736  2.1782  2.5026
17368TIP3   OH273594   3.366   4.027  16.394 -0.5177  0.2896  0.0382
17368TIP3    H173595   3.317   4.082  16.332 -0.2519  0.5908  0.0973
17368TIP3    H273596   3.298   3.982  16.444 -0.7529 -0.4946 -0.9348
17369TIP3   OH273597   6.640   0.329   1.637  0.6978  0.1316  0.2049
17369TIP3    H173598   6.735   0.333   1.637  0.6912  0.3506  0.5755
17369TIP3    H273599   6.618   0.271   1.710  0.5351  0.5263  0.4725
17370TIP3   OH273600   2.889   5.684  11.246  0.4990  0.4884 -0.4071
17370TIP3    H173601   2.966   5.703  11.193  0.3128  1.7799 -0.2354
17370TIP3    H273602   2.871   5.765  11.294 -1.9260  0.7604 -1.6183
17371TIP3   OH273603   4.425   2.858  16.136  0.1249 -0.3924 -0.4933
17371TIP3    H173604   4.429   2.815  16.051 -1.5807 -0.7848 -0.4249
17371TIP3    H273605   4.459   2.792  16.197  1.1768 -0.1766 -0.8235
17372TIP3   OH273606   4.649   2.870  16.377  0.0827 -0.1064  0.4216
17372TIP3    H173607   4.567   2.843  16.418  0.5784 -0.3975  1.2427
17372TIP3    H273608   4.714   2.865  16.447  0.7345  0.4728 -0.1284
17373TIP3   OH273609   6.123   1.055  13.273  0.3233  0.5261  0.1545
17373TIP3    H173610   6.188   1.024  13.336 -0.5926  1.1058  1.4449
17373TIP3    H273611   6.059   1.102  13.327  1.5734  4.6921 -1.6298
17374TIP3   OH273612   0.145   2.409  14.753 -0.3608  0.7702 -0.4233
17374TIP3    H173613   0.051   2.414  14.738 -0.9272 -1.0270  1.9828
17374TIP3    H273614   0.157   2.328  14.802  2.7582 -0.2643 -2.5929
17375TIP3   OH273615   0.114   4.184   5.815 -0.0243  0.0672 -0.4672
17375TIP3    H173616   0.035   4.199   5.762 -0.9498 -1.2283  0.4814
17375TIP3    H273617   0.186   4.193   5.753 -1.0180 -0.3816 -1.7331
17376TIP3   OH273618   4.200   0.742   0.591 -0.5271  0.1097  0.0413
17376TIP3    H173619   4.260   0.772   0.660  2.2889 -2.2662 -1.1952
17376TIP3    H273620   4.196   0.647   0.601 -2.0420 -0.0541 -1.5776
17377TIP3   OH273621   2.319   1.831  12.330  0.3384  0.2465  0.4380
17377TIP3    H173622   2.363   1.898  12.278  0.6701  0.7102  1.2914
17377TIP3    H273623   2.226   1.853  12.325  0.1930 -0.5854 -1.1625
17378TIP3   OH273624   0.861   0.429   1.333  0.0572 -0.6023 -0.3367
17378TIP3    H173625   0.949   0.404   1.308  0.8910  1.8287 -0.1461
17378TIP3    H273626   0.803   0.377   1.278  1.6271 -1.5535 -1.1260
17379TIP3   OH273627   5.196   6.533  16.953 -0.3847  0.3821  0.1743
17379TIP3    H173628   5.242   6.465  16.904 -3.6751 -0.6861 -1.7762
17379TIP3    H273629   5.204   6.612  16.900 -1.3156  0.0145 -0.5414
17380TIP3   OH273630   1.829   6.169   0.422  0.5161 -0.5150 -0.5836
17380TIP3    H173631   1.748   6.195   0.377  0.5095  1.4939  0.4660
17380TIP3    H273632   1.804   6.093   0.474 -0.6314 -0.1098 -0.5036
17381TIP3   OH273633   0.717   4.304  14.389 -0.2266 -0.0072 -0.1332
17381TIP3    H173634   0.697   4.278  14.299 -0.9678  0.1095 -0.0080
17381TIP3    H273635   0.675   4.390  14.399  1.2757  0.7760 -0.2035
17382TIP3   OH273636   1.353   4.577  15.471 -0.1802 -1.0571  0.0516
17382TIP3    H173637   1.403   4.546  15.395  1.2831 -1.5215  1.1445
17382TIP3    H273638   1.364   4.673  15.468 -0.2796 -1.0577 -0.4226
17383TIP3   OH273639   0.688   5.514   5.714 -0.9058  0.2441  0.2149
17383TIP3    H173640   0.657   5.588   5.661 -2.3076 -1.2719 -1.1903
17383TIP3    H273641   0.651   5.529   5.801 -4.0000 -0.4266 -0.8895
17384TIP3   OH273642   1.999   3.697   4.718  0.0606 -1.0487 -0.1776
17384TIP3    H173643   2.029   3.760   4.783 -0.0176  0.2239 -1.3521
17384TIP3    H273644   1.909   3.678   4.743 -0.7413  1.1580 -1.1450
17385TIP3   OH273645   2.138   0.272  12.175  0.1144  0.0367  0.3372
17385TIP3    H173646   2.155   0.260  12.082 -0.1040  0.3146  0.2621
17385TIP3    H273647   2.072   0.205  12.195 -0.7708  0.7858  0.0110
17386TIP3   OH273648   1.727   3.693   4.815 -0.3606  0.5325  0.0568
17386TIP3    H173649   1.651   3.677   4.872 -1.2330  0.4091 -1.1018
17386TIP3    H273650   1.761   3.777   4.845  0.4618 -0.4383  2.0795
17387TIP3   OH273651   6.745   0.990   5.591  0.8609 -0.3143 -0.3984
17387TIP3    H173652   6.807   1.011   5.521  0.8030  1.0262 -0.0796
17387TIP3    H273653   6.723   0.898   5.578  1.4355 -0.2824 -1.6716
17388TIP3   OH273654   1.355   6.458  15.260 -0.3442  0.1810 -0.5086
17388TIP3    H173655   1.281   6.447  15.320 -0.8645 -1.0734 -1.3262
17388TIP3    H273656   1.401   6.535  15.292 -2.0119  0.9995  0.0234
17389TIP3   OH273657   6.509   5.600  12.031 -0.6209 -0.3317  0.1345
17389TIP3    H173658   6.546   5.592  11.943 -1.5529  2.1731 -0.5527
17389TIP3    H273659   6.415   5.614  12.016 -0.6877  0.8564  1.4621
17390TIP3   OH273660   3.558   5.186  15.495 -0.1061  0.0256  0.6570
17390TIP3    H173661   3.606   5.178  15.578 -0.2101  0.7178  0.7894
17390TIP3    H273662   3.508   5.267  15.504  0.3753  0.4509 -0.3365
17391TIP3   OH273663   1.207   1.522   0.461 -0.3373 -0.3764 -0.0024
17391TIP3    H173664   1.168   1.594   0.412 -1.5677 -0.5199  0.7117
17391TIP3    H273665   1.275   1.563   0.514  0.3181 -0.0670 -1.0661
17392TIP3   OH273666   1.346   4.884  15.528 -0.2377 -0.0953  0.3693
17392TIP3    H173667   1.353   4.906  15.621  0.5704 -0.0710  0.3101
17392TIP3    H273668   1.260   4.916  15.502  0.5429  2.2885  0.4679
17393TIP3   OH273669   3.356   5.738   3.008  0.1266  0.3191 -0.2457
17393TIP3    H173670   3.427   5.731   3.071  0.8928  1.4721 -0.9527
17393TIP3    H273671   3.279   5.703   3.055  0.8891  0.1697  0.9389
17394TIP3   OH273672   4.945   5.305   6.064 -0.4668 -0.0648  0.2816
17394TIP3    H173673   5.011   5.371   6.042 -1.9190  1.6392  0.8089
17394TIP3    H273674   4.872   5.323   6.004 -1.4076 -0.3331  1.3042
17395TIP3   OH273675   3.367   6.422  11.993  0.1355 -0.2069 -0.3684
17395TIP3    H173676   3.458   6.402  12.014  0.4695  1.5397  0.0037
17395TIP3    H273677   3.316   6.371  12.056  0.7886 -1.8696 -1.1273
17396TIP3   OH273678   6.816   5.467   1.586  0.6527  0.0258  0.2056
17396TIP3    H173679   6.748   5.458   1.653 -0.5424 -0.6316 -1.0322
17396TIP3    H273680   6.781   5.418   1.511  2.0549  0.5323 -0.8033
17397TIP3   OH273681   3.321   6.546   2.926  0.5407 -0.4310 -0.4801
17397TIP3    H173682   3.383   6.582   2.990  0.0332  0.6544 -0.5732
17397TIP3    H273683   3.237   6.544   2.972 -0.2874  2.3160 -1.6731
17398TIP3   OH273684   6.618   4.692   4.610  0.4321  0.0355 -0.4203
17398TIP3    H173685   6.694   4.725   4.656  2.4638  1.5342 -4.3500
17398TIP3    H273686   6.643   4.604   4.582  1.0696  0.7425 -2.2096
17399TIP3   OH273687   3.867   5.897   5.080 -0.1902  0.0965 -0.4113
17399TIP3    H173688   3.928   5.956   5.124  0.1261  0.0210 -0.7404
17399TIP3    H273689   3.923   5.834   5.035 -0.5372 -0.8654  0.4861
17400TIP3   OH273690   5.959   4.374  16.852  0.4256 -0.0859 -0.2146
17400TIP3    H173691   5.903   4.446  16.822  0.8627  0.0094 -0.8108
17400TIP3    H273692   5.925   4.352  16.939 -0.3485  0.1693 -0.4457
17401TIP3   OH273693   3.782   3.474   5.531  0.4575 -0.1684  0.2201
17401TIP3    H173694   3.753   3.450   5.618  0.5946 -0.4293  0.1966
17401TIP3    H273695   3.777   3.570   5.529  0.6683 -0.1455  0.5903
17402TIP3   OH273696   4.186   5.384  14.788  0.7065 -0.2923 -0.5575
17402TIP3    H173697   4.262   5.423  14.831  1.1301 -0.3606 -1.2283
17402TIP3    H273698   4.161   5.449  14.722 -0.7087  0.3817  0.6001
17403TIP3   OH273699   0.546   6.802   3.388  0.0458  0.1257  0.0319
17403TIP3    H173700   0.580   6.880   3.433 -1.1396 -0.4540  2.0643
17403TIP3    H273701   0.619   6.739   3.390  1.0758  1.1648 -1.7890
17404TIP3   OH273702   4.775   3.543   1.227 -0.5023  0.4693  0.3179
17404TIP3    H173703   4.865   3.511   1.213 -0.1184  0.8278  1.8378
17404TIP3    H273704   4.740   3.553   1.138 -0.4628 -3.5590 -0.3200
17405TIP3   OH273705   3.870   3.717  12.129 -0.4148 -0.0112 -0.1630
17405TIP3    H173706   3.882   3.803  12.169 -0.1387 -0.6101  1.1022
17405TIP3    H273707   3.859   3.657  12.204 -0.3375 -1.1085 -1.0045
17406TIP3   OH273708   1.832   5.436  12.367  0.0816 -0.6093  0.4621
17406TIP3    H173709   1.889   5.436  12.444  0.8378  0.2029 -0.0938
17406TIP3    H273710   1.891   5.429  12.293 -0.6423 -1.2739 -0.0682
17407TIP3   OH273711   6.789   4.768   4.808 -0.5513 -0.4007  0.0832
17407TIP3    H173712   6.876   4.730   4.816  0.1564  1.0113 -0.5128
17407TIP3    H273713   6.743   4.740   4.887  1.4629  1.3516  1.9772
17408TIP3   OH273714   1.446   0.585   0.420  0.7986  0.4977  0.4198
17408TIP3    H173715   1.383   0.559   0.352 -0.9621 -1.1704  2.5311
17408TIP3    H273716   1.487   0.502   0.446  1.5026  1.1126  1.3114
17409TIP3   OH273717   1.252   4.554   0.181  0.4494 -0.1379  0.0731
17409TIP3    H173718   1.231   4.467   0.216  3.4186 -1.7870 -1.8131
17409TIP3    H273719   1.263   4.540   0.087  0.2936  2.4769 -0.3944
17410TIP3   OH273720   1.676   1.829  17.000  0.9883  0.1559 -0.1518
17410TIP3    H173721   1.638   1.886  17.067  0.5121  1.3965 -1.4314
17410TIP3    H273722   1.768   1.820  17.024  1.2267  2.0083 -0.2610
17411TIP3   OH273723   6.464   1.543   0.206 -0.1267 -0.1648  0.7121
17411TIP3    H173724   6.486   1.450   0.216  1.2887  0.1507  0.7219
17411TIP3    H273725   6.529   1.589   0.259 -0.8101  0.8432  0.6988
17412TIP3   OH273726   2.407   5.892  16.318 -0.0314  0.2680  0.0970
17412TIP3    H173727   2.446   5.917  16.234 -0.8186 -3.2022 -1.4576
17412TIP3    H273728   2.381   5.801  16.306 -0.3616 -0.3091  4.1039
17413TIP3   OH273729   5.982   6.044  15.151 -0.0813 -0.1257  0.3249
17413TIP3    H173730   6.040   6.053  15.226  0.1322  1.9451 -0.0262
17413TIP3    H273731   6.040   6.045  15.075 -0.4594  0.9075  0.0234
17414TIP3   OH273732   4.017   2.259  13.823 -0.0386  0.1662 -0.1100
17414TIP3    H173733   4.106   2.280  13.793 -0.4708  2.6403  0.1252
17414TIP3    H273734   3.971   2.233  13.743  0.7109 -0.5402 -0.3319
17415TIP3   OH273735   3.211   4.032   5.722 -0.8931 -0.0364  0.4439
17415TIP3    H173736   3.205   4.111   5.776  0.2198 -0.3155  1.0278
17415TIP3    H273737   3.181   3.961   5.780 -1.7185 -0.0767 -0.0180
17416TIP3   OH273738   5.784   5.556   2.600  0.8974  0.2285 -0.2224
17416TIP3    H173739   5.718   5.618   2.569  1.4842  0.5813 -0.7852
17416TIP3    H273740   5.754   5.471   2.567  0.4696  0.3109 -0.0560
17417TIP3   OH273741   5.801   4.812   5.103 -0.5387  0.3160  0.2888
17417TIP3    H173742   5.858   4.843   5.174  0.2548 -0.1206 -0.1490
17417TIP3    H273743   5.769   4.893   5.062 -2.3076  0.6177  2.1290
17418TIP3   OH273744   1.000   0.561   0.246 -0.0395  0.2241  0.3708
17418TIP3    H173745   1.063   0.498   0.208 -0.8615 -0.7114  0.5162
17418TIP3    H273746   0.946   0.508   0.305 -0.5897  1.1290  0.6957
17419TIP3   OH273747   1.983   6.381  13.774  0.1380  0.2898  0.6457
17419TIP3    H173748   1.925   6.453  13.800 -1.6654 -1.0288  0.4522
17419TIP3    H273749   1.925   6.314  13.739  1.6972 -1.4909  1.2682
17420TIP3   OH273750   3.543   5.209   2.791  0.1210 -0.3811 -0.2899
17420TIP3    H173751   3.527   5.285   2.848  0.0626 -1.6438  1.4534
17420TIP3    H273752   3.630   5.225   2.754  0.0724  0.5860 -0.0128
17421TIP3   OH273753   5.055   2.882   3.664  0.3019  0.1192  0.0383
17421TIP3    H173754   4.981   2.843   3.617  1.2494  0.0390 -1.4728
17421TIP3    H273755   5.093   2.809   3.713 -0.4518  0.1046  0.6189
17422TIP3   OH273756   0.803   2.997   3.041  0.2476  0.0357 -0.4293
17422TIP3    H173757   0.796   2.974   2.949  0.7846 -1.8222 -0.0429
17422TIP3    H273758   0.853   2.925   3.081 -0.0355  0.7430  1.3188
17423TIP3   OH273759   5.724   6.751   4.549 -0.1733 -0.7320 -0.5161
17423TIP3    H173760   5.779   6.680   4.583  0.9118  0.5159  0.4135
17423TIP3    H273761   5.785   6.812   4.510 -0.7381  1.1459  1.3479
17424TIP3   OH273762   0.025   2.925  13.634 -0.2375  0.4173  0.0492
17424TIP3    H173763   0.073   2.875  13.699 -1.0401  1.0154  1.1317
17424TIP3    H273764   0.035   3.017  13.660  0.2237  0.7650 -1.2276
17425TIP3   OH273765   4.046   4.304   0.580  0.1251 -0.4932 -0.1559
17425TIP3    H173766   4.005   4.272   0.660 -1.2203 -0.0082 -0.6302
17425TIP3    H273767   4.080   4.226   0.537 -0.9359 -1.0045 -0.0925
17426TIP3   OH273768   1.587   1.758   1.545 -0.0580  0.1918  0.5790
17426TIP3    H173769   1.628   1.840   1.571 -0.8288  0.1990  1.9189
17426TIP3    H273770   1.504   1.784   1.505  0.1987  0.1053 -0.0086
17427TIP3   OH273771   0.431   1.266   0.879 -0.4335 -0.5360 -0.4056
17427TIP3    H173772   0.391   1.276   0.965  2.4045  1.2271  0.8449
17427TIP3    H273773   0.525   1.275   0.895  0.2160 -0.3981 -3.6779
17428TIP3   OH273774   2.874   1.886   1.594 -0.1270 -0.1290 -0.5634
17428TIP3    H173775   2.942   1.932   1.544  0.1051  2.7447  2.0259
17428TIP3    H273776   2.906   1.888   1.685 -3.4980  1.3285  0.7834
17429TIP3   OH273777   6.307   2.576   2.131 -0.3863 -0.0982  0.3368
17429TIP3    H173778   6.254   2.579   2.211  0.2209 -1.2989  0.8037
17429TIP3    H273779   6.333   2.485   2.123  0.5186  0.2260 -0.6198
17430TIP3   OH273780   2.427   0.351   6.318  0.1754  0.5953  0.2920
17430TIP3    H173781   2.350   0.294   6.320 -0.2906  1.2055  0.0954
17430TIP3    H273782   2.414   0.412   6.390 -0.6231  2.0742 -1.0456
17431TIP3   OH273783   1.278   2.284   5.592  0.9329  0.1101  0.2228
17431TIP3    H173784   1.191   2.318   5.570  0.9677 -1.0080 -1.9171
17431TIP3    H273785   1.266   2.239   5.676 -0.2734  0.9249  0.5070
17432TIP3   OH273786   4.189   3.106  12.543  0.2642 -0.1987  0.0696
17432TIP3    H173787   4.120   3.069  12.597 -0.0490  0.5254  0.1792
17432TIP3    H273788   4.158   3.094  12.453  0.8572 -1.5424  0.0291
17433TIP3   OH273789   3.833   4.981  12.429 -0.4153  0.4320  0.4308
17433TIP3    H173790   3.847   4.997  12.523  1.0703 -2.4539  0.8228
17433TIP3    H273791   3.917   5.002  12.389 -0.2349 -0.7115  0.1707
17434TIP3   OH273792   6.608   1.772  13.992 -0.3478  0.0265  0.1067
17434TIP3    H173793   6.679   1.818  14.038 -0.5298  0.6813 -0.2499
17434TIP3    H273794   6.612   1.806  13.903 -1.7724  0.8834  0.3298
17435TIP3   OH273795   0.415   0.442  12.530 -0.7877  0.3888  0.3636
17435TIP3    H173796   0.337   0.412  12.576 -1.3533  0.8628 -0.2638
17435TIP3    H273797   0.420   0.388  12.451 -1.0523  1.0209 -0.0957
17436TIP3   OH273798   5.128   1.556  13.482  0.5209  0.9024 -0.1891
17436TIP3    H173799   5.128   1.636  13.534  0.6467  1.6250 -1.2597
17436TIP3    H273800   5.174   1.579  13.402 -1.1641  0.3506 -1.3790
17437TIP3   OH273801   5.907   4.631  13.329 -0.4449 -0.0191 -0.5226
17437TIP3    H173802   5.948   4.545  13.342  0.2212  0.4982  1.0395
17437TIP3    H273803   5.840   4.636  13.398  0.3259  1.1574  0.1794
17438TIP3   OH273804   6.624   1.704   2.399  0.2979  0.1102 -0.3985
17438TIP3    H173805   6.637   1.725   2.491 -0.5576 -0.8072 -0.0540
17438TIP3    H273806   6.713   1.692   2.365  0.5895 -0.5603  0.5599
17439TIP3   OH273807   0.965   3.498   4.078 -0.2375  0.6703  0.2519
17439TIP3    H173808   0.931   3.513   4.166  1.2987 -0.1174  1.0231
17439TIP3    H273809   1.052   3.459   4.092 -0.4490 -0.6009 -1.6053
17440TIP3   OH273810   6.110   3.994   0.011  0.0019  0.2851 -0.5249
17440TIP3    H173811   6.105   3.922   0.074 -2.0997 -0.0457 -1.0030
17440TIP3    H273812   6.123   3.951  -0.074 -1.8385  0.3837 -0.8880
17441TIP3   OH273813   3.165   4.005   1.778 -0.7642  0.2797 -0.0794
17441TIP3    H173814   3.162   3.983   1.685  1.4555  0.6946 -0.3081
17441TIP3    H273815   3.121   3.932   1.822 -0.6398 -0.6027 -1.3668
17442TIP3   OH273816   1.622   1.852  15.481  0.1108 -0.3261 -0.2988
17442TIP3    H173817   1.672   1.925  15.443  0.0750  0.6683  1.4381
17442TIP3    H273818   1.621   1.871  15.575 -2.5500 -0.9241 -0.1367
17443TIP3   OH273819   0.362   4.226  15.779 -0.2107 -0.0002 -0.1036
17443TIP3    H173820   0.439   4.187  15.737  0.0467  1.3840 -0.9957
17443TIP3    H273821   0.344   4.305  15.727 -0.3136  1.4332  1.9774
17444TIP3   OH273822   6.594   1.360  16.592 -0.2197  0.6732 -0.0480
17444TIP3    H173823   6.526   1.425  16.576  0.6694  1.4939 -0.5879
17444TIP3    H273824   6.660   1.406  16.644  0.8494  0.5147 -1.1943
17445TIP3   OH273825   2.279   5.827  16.723 -0.0313  0.5690 -0.0011
17445TIP3    H173826   2.184   5.830  16.732 -0.3115  0.3554 -2.2700
17445TIP3    H273827   2.294   5.771  16.646  1.9005  1.0130  0.0057
17446TIP3   OH273828   5.895   3.322  16.245  0.2526  0.2119 -0.4744
17446TIP3    H173829   5.980   3.361  16.225  0.4551 -0.3609 -0.7570
17446TIP3    H273830   5.853   3.385  16.303 -0.0365  1.5808 -2.0995
17447TIP3   OH273831   0.013   3.185   5.986  0.0432  1.1840  0.1784
17447TIP3    H173832  -0.056   3.194   5.920  0.1539 -0.3615 -0.1708
17447TIP3    H273833  -0.033   3.196   6.070 -0.3807  1.4788 -0.0847
17448TIP3   OH273834   5.772   1.887  11.578  0.1558 -0.2017 -0.0469
17448TIP3    H173835   5.694   1.942  11.587  0.7115  0.5888  0.0199
17448TIP3    H273836   5.778   1.839  11.661 -2.4336 -3.2515 -1.4025
17449TIP3   OH273837   4.074   5.163   1.473 -0.2361 -0.0502  0.1437
17449TIP3    H173838   4.066   5.084   1.420 -0.9005 -0.2432  0.5205
17449TIP3    H273839   4.150   5.209   1.437  0.6271 -1.2304  0.4156
17450TIP3   OH273840   1.087   5.486   1.903 -0.2389 -0.0156 -0.3095
17450TIP3    H173841   1.180   5.467   1.905 -0.1407  0.5081  1.1383
17450TIP3    H273842   1.070   5.535   1.984 -1.7583 -0.0825 -0.5493
17451TIP3   OH273843   4.073   0.983   6.007  0.0687 -0.2226 -0.0049
17451TIP3    H173844   4.040   1.061   5.964  0.2827 -0.8355 -1.3162
17451TIP3    H273845   4.166   1.000   6.021  0.2642 -0.4932 -0.9059
17452TIP3   OH273846   0.493   1.617  12.330 -0.5917 -0.3215  0.2706
17452TIP3    H173847   0.575   1.629  12.282 -0.7112  2.6193  0.6131
17452TIP3    H273848   0.516   1.560  12.403  0.8071 -0.6396 -0.3815
17453TIP3   OH273849   3.463   2.091  11.719  0.3143  0.4232 -0.7712
17453TIP3    H173850   3.482   2.070  11.810  1.5540 -1.0330 -1.3242
17453TIP3    H273851   3.416   2.015  11.685 -1.1968  1.4441 -1.0663
17454TIP3   OH273852   4.510   6.554  13.955 -0.4837  0.6146 -0.4161
17454TIP3    H173853   4.588   6.602  13.925 -1.6009  1.3042 -2.4059
17454TIP3    H273854   4.517   6.469  13.912 -1.4124  1.1257 -1.6463
17455TIP3   OH273855   5.762   6.676  13.286  0.0523  0.0800 -0.0760
17455TIP3    H173856   5.692   6.732  13.319 -0.3716  0.8407 -2.1334
17455TIP3    H273857   5.826   6.737  13.250  1.3439 -0.6539  0.8645
17456TIP3   OH273858   4.154   5.035  12.756  0.1454 -0.0030  0.5395
17456TIP3    H173859   4.065   5.019  12.726 -0.1640 -0.9167  1.8535
17456TIP3    H273860   4.182   4.952  12.794  1.1160  0.6081  1.2130
17457TIP3   OH273861   0.263   0.902  11.962 -0.2284 -0.0838  0.0669
17457TIP3    H173862   0.240   0.860  12.045 -0.4676  1.0899  0.6234
17457TIP3    H273863   0.308   0.982  11.988  0.8625 -0.3448 -0.9732
17458TIP3   OH273864   1.446   2.342   2.918 -0.2790  0.0653 -0.2169
17458TIP3    H173865   1.454   2.342   3.013 -1.7919  0.9690 -0.0412
17458TIP3    H273866   1.536   2.348   2.885  0.5588 -3.3782  1.0283
17459TIP3   OH273867   1.908   3.611   3.137  0.2451  0.3939 -0.0384
17459TIP3    H173868   1.825   3.657   3.122  1.4818  1.9729 -2.7972
17459TIP3    H273869   1.901   3.532   3.085  0.6561  0.8024 -0.7246
17460TIP3   OH273870   5.199   6.213  15.071 -0.0488 -0.8096  0.5416
17460TIP3    H173871   5.290   6.194  15.095  0.2214 -0.7583 -0.4126
17460TIP3    H273872   5.185   6.303  15.101  0.8043 -0.1610 -0.9124
17461TIP3   OH273873   0.256   3.852  13.108  0.2371 -0.2714 -0.6669
17461TIP3    H173874   0.162   3.849  13.131  0.2872 -1.4729 -0.5422
17461TIP3    H273875   0.257   3.870  13.014  0.0068  3.8885 -0.0588
17462TIP3   OH273876   1.364   1.622  14.069 -0.2347  0.3049 -0.5888
17462TIP3    H173877   1.396   1.556  14.130 -0.4111  0.7017 -0.0668
17462TIP3    H273878   1.426   1.695  14.077 -0.7162  0.6872 -0.2779
17463TIP3   OH273879   1.644   1.410   5.959  0.3835 -0.2763  0.5570
17463TIP3    H173880   1.731   1.426   5.995 -0.3026 -0.0925  2.2436
17463TIP3    H273881   1.660   1.375   5.872  2.1224  0.4845  0.5315
17464TIP3   OH273882   4.878   2.107  12.427  0.1793  0.0463 -0.9113
17464TIP3    H173883   4.831   2.158  12.360  0.1905 -2.6345 -3.1405
17464TIP3    H273884   4.813   2.093  12.496 -0.6221  0.7939 -1.4818
17465TIP3   OH273885   0.631   1.926  16.211  0.0931  0.7604  0.2989
17465TIP3    H173886   0.691   1.959  16.279  0.0423 -0.4553  0.9733
17465TIP3    H273887   0.564   1.879  16.260 -0.6808  0.9791 -0.5378
17466TIP3   OH273888   2.743   2.852  15.172  0.2860  0.1883 -0.3210
17466TIP3    H173889   2.647   2.852  15.162  0.3054 -0.4744 -0.5655
17466TIP3    H273890   2.775   2.902  15.097  0.0774  1.5593  0.4759
17467TIP3   OH273891   0.602   5.898  13.344 -0.3439  0.3069  0.6098
17467TIP3    H173892   0.653   5.979  13.334 -1.0991  0.8021  0.7173
17467TIP3    H273893   0.666   5.833  13.373  0.1476  1.0361  1.1914
17468TIP3   OH273894   3.362   4.010   0.611  0.4832 -0.4356  0.5476
17468TIP3    H173895   3.414   3.961   0.548 -1.4891 -2.4004  0.3226
17468TIP3    H273896   3.272   4.001   0.581 -0.1916  1.5539  1.7449
17469TIP3   OH273897   2.461   4.332   1.392 -0.5638  0.7788 -0.2506
17469TIP3    H173898   2.530   4.397   1.381 -1.0797  1.2241 -0.9871
17469TIP3    H273899   2.419   4.328   1.306 -0.0189 -1.1412 -0.4820
17470TIP3   OH273900   0.627   5.632   5.953  0.0415  0.3667 -0.0467
17470TIP3    H173901   0.686   5.573   6.000 -0.4910  0.1915  0.4146
17470TIP3    H273902   0.557   5.651   6.016 -0.5338  0.3588 -0.6686
17471TIP3   OH273903   6.513   2.326   4.652 -0.3410  0.3728  0.4746
17471TIP3    H173904   6.455   2.401   4.635  0.2577  0.6246 -0.5349
17471TIP3    H273905   6.600   2.358   4.629 -0.0041 -0.4628  0.5835
17472TIP3   OH273906   6.756   0.445  12.406  0.2313 -0.2783 -1.0091
17472TIP3    H173907   6.710   0.436  12.322 -2.2300  1.0254  0.0906
17472TIP3    H273908   6.752   0.358  12.445 -2.2199 -0.0693 -0.5995
17473TIP3   OH273909   5.378   3.894   1.053  0.0076 -0.2392 -0.1573
17473TIP3    H173910   5.432   3.876   0.977  0.9089 -0.0976  0.4400
17473TIP3    H273911   5.314   3.823   1.055  0.6147 -0.8034 -0.4668
17474TIP3   OH273912   4.128   0.755   0.205 -1.0361  0.3586  0.0484
17474TIP3    H173913   4.097   0.841   0.235 -1.6854  0.8327 -1.8374
17474TIP3    H273914   4.059   0.723   0.147 -0.5567 -1.2197  0.2929
17475TIP3   OH273915   1.338   1.936   4.865  0.0375  0.3524 -0.5431
17475TIP3    H173916   1.275   1.876   4.825 -1.0734  1.0273  0.1355
17475TIP3    H273917   1.298   2.022   4.858  0.0050  0.5658  1.5263
17476TIP3   OH273918   3.572   0.985  11.192 -0.5367 -0.8463 -0.5503
17476TIP3    H173919   3.653   0.944  11.160 -0.8292 -2.1982  0.3426
17476TIP3    H273920   3.502   0.935  11.150 -0.9161 -2.0518  1.4129
17477TIP3   OH273921   3.339   2.497  14.832 -0.3813  0.2134 -0.0230
17477TIP3    H173922   3.373   2.417  14.792 -1.8128  0.2950 -1.5203
17477TIP3    H273923   3.416   2.540  14.869  0.7186 -0.8780 -0.9634
17478TIP3   OH273924   3.156   0.198  11.091 -0.6631 -0.6496 -0.4339
17478TIP3    H173925   3.204   0.151  11.023 -0.4302 -0.2145 -0.5759
17478TIP3    H273926   3.198   0.173  11.173  0.8641  0.9270 -0.6707
17479TIP3   OH273927   5.346   2.768   3.494 -0.2831  0.0038 -0.4091
17479TIP3    H173928   5.392   2.822   3.430 -1.0353  0.1789 -0.8075
17479TIP3    H273929   5.266   2.740   3.449 -0.4320 -0.5336  0.1748
17480TIP3   OH273930   2.891   0.992  10.702 -0.5075  1.0136  0.3926
17480TIP3    H173931   2.957   0.963  10.639 -0.9747  1.5648 -0.3755
17480TIP3    H273932   2.924   1.076  10.733 -0.4237  0.8815  0.6599
17481TIP3   OH273933   5.031   4.680   3.881  0.4320 -0.0574  0.5635
17481TIP3    H173934   5.023   4.775   3.870 -0.6428 -0.3432 -1.8010
17481TIP3    H273935   5.009   4.665   3.973  0.9687  1.9900  1.0905
17482TIP3   OH273936   2.902   0.402  13.702  0.2240  0.5166 -0.6048
17482TIP3    H173937   2.918   0.322  13.753 -0.0510  0.2087 -0.9880
17482TIP3    H273938   2.969   0.463  13.730 -1.3344  1.2034  1.8857
17483TIP3   OH273939   1.644   2.699   1.525  0.0620  0.5480 -0.1145
17483TIP3    H173940   1.628   2.627   1.585 -1.1947  0.5215 -0.4522
17483TIP3    H273941   1.693   2.660   1.453 -0.4882  0.0590 -0.2272
17484TIP3   OH273942   6.292   5.431  12.897  0.5029 -0.2418 -0.2168
17484TIP3    H173943   6.361   5.368  12.880  0.1661 -0.7452  0.2457
17484TIP3    H273944   6.244   5.395  12.972 -1.6845 -1.0971 -1.9305
17485TIP3   OH273945   3.131   5.090   1.241 -0.6275 -0.2164  0.0034
17485TIP3    H173946   3.144   5.066   1.332 -0.5571  0.2709  0.1264
17485TIP3    H273947   3.046   5.135   1.241  0.1330  1.2644  0.1282
17486TIP3   OH273948   3.212   4.874  17.206 -0.2929  0.7138  0.5360
17486TIP3    H173949   3.216   4.838  17.295 -0.1229  1.2885  0.7603
17486TIP3    H273950   3.180   4.963  17.217 -3.1475 -0.0852 -0.2147
17487TIP3   OH273951   6.812   1.743   1.277  0.2364  0.3066 -0.0014
17487TIP3    H173952   6.785   1.754   1.368  3.1374 -1.4260  1.1676
17487TIP3    H273953   6.768   1.663   1.248  0.4905  0.0379  0.3612
17488TIP3   OH273954   6.012   4.540  13.689 -0.7238 -1.0189 -0.2615
17488TIP3    H173955   6.074   4.528  13.617 -1.3182 -1.8578 -0.6547
17488TIP3    H273956   6.002   4.453  13.726 -0.9240 -0.7057  0.4254
17489TIP3   OH273957   5.224   6.135   5.129 -0.5410 -0.0135  0.7495
17489TIP3    H173958   5.207   6.071   5.061  0.5311 -1.3067  1.6493
17489TIP3    H273959   5.316   6.122   5.152 -0.2243  1.9792  0.8317
17490TIP3   OH273960   2.109   2.898   6.115  0.4205  0.1843 -0.6296
17490TIP3    H173961   2.169   2.881   6.042  0.4908  0.3771 -0.6172
17490TIP3    H273962   2.023   2.905   6.073  0.3840 -0.2391 -0.6292
17491TIP3   OH273963   2.618   4.760   1.770  0.1706 -0.4185  0.1737
17491TIP3    H173964   2.614   4.690   1.835 -3.0350 -1.5649 -1.0906
17491TIP3    H273965   2.539   4.751   1.718  1.3849  1.9455 -2.4181
17492TIP3   OH273966   5.909   3.919   5.124  0.2235  0.1971 -0.1127
17492TIP3    H173967   5.909   3.991   5.060  1.4597  0.3092 -0.0046
17492TIP3    H273968   5.934   3.960   5.206  0.3007 -0.2539  0.0894
17493TIP3   OH273969   0.864   1.598  15.380  0.2079 -0.8237 -0.1537
17493TIP3    H173970   0.920   1.675  15.374  0.1753 -0.8700 -1.1991
17493TIP3    H273971   0.835   1.582  15.290 -0.3432 -1.6434  0.1568
17494TIP3   OH273972   5.075   0.025  13.526  0.1449 -0.2190 -0.5339
17494TIP3    H173973   5.064   0.115  13.555  1.5586  0.1614 -1.1360
17494TIP3    H273974   5.162   0.021  13.488 -0.3817 -1.5141 -1.7349
17495TIP3   OH273975   5.009   0.517   2.919 -0.0077  0.6033 -0.0343
17495TIP3    H173976   4.939   0.573   2.884  0.4034  0.7767 -0.5989
17495TIP3    H273977   5.014   0.540   3.011  0.0580  1.4110 -0.2272
17496TIP3   OH273978   2.872   2.567  11.298 -0.5126  0.5093  0.5108
17496TIP3    H173979   2.940   2.559  11.365  0.9645  1.0701 -0.8351
17496TIP3    H273980   2.844   2.477  11.281  0.3403  0.2025  0.6899
17497TIP3   OH273981   0.073   6.217   0.405 -0.3878  0.0611 -0.2384
17497TIP3    H173982   0.061   6.254   0.317  1.1674 -0.6303 -0.7758
17497TIP3    H273983   0.025   6.133   0.401 -0.1120 -0.0864 -0.5149
17498TIP3   OH273984   1.241   2.398  15.686 -0.0509 -0.2320 -0.8267
17498TIP3    H173985   1.283   2.476  15.722  1.1501 -0.3597 -1.9039
17498TIP3    H273986   1.158   2.430  15.651  0.2166  0.4754 -0.8345
17499TIP3   OH273987   1.852   5.839   1.453  0.3753  0.2492 -0.1451
17499TIP3    H173988   1.852   5.765   1.514 -0.9453  0.8270  0.5958
17499TIP3    H273989   1.945   5.854   1.434  1.0073  1.0644  3.0054
17500TIP3   OH273990   1.407   5.957   2.267 -0.3022 -0.3211 -0.5789
17500TIP3    H173991   1.351   5.983   2.340 -0.5921  0.8847 -1.2178
17500TIP3    H273992   1.385   5.865   2.252 -0.4767 -0.4993  0.6244
17501TIP3   OH273993   4.149   3.224   0.282  0.3272 -0.2187  0.0194
17501TIP3    H173994   4.220   3.210   0.220 -0.7587  0.5385 -1.4781
17501TIP3    H273995   4.075   3.175   0.245 -0.2385 -0.1225  0.9742
17502TIP3   OH273996   2.728   1.261  12.763 -0.1047  0.1768 -0.1415
17502TIP3    H173997   2.653   1.211  12.793 -0.4713  0.5495 -0.4286
17502TIP3    H273998   2.727   1.252  12.667 -1.0893  1.9658 -0.3546
17503TIP3   OH273999   5.143   6.044  16.632  0.4028  0.1932  0.4494
17503TIP3    H174000   5.094   6.063  16.712 -0.1754 -1.3231  0.4902
17503TIP3    H274001   5.115   5.956  16.607  1.3677  0.2216 -0.8440
17504TIP3   OH274002   3.415   0.566   4.441  0.1606 -0.2429  0.2355
17504TIP3    H174003   3.461   0.547   4.360 -1.1596  0.7886 -0.7950
17504TIP3    H274004   3.361   0.488   4.456  0.3806 -0.4208  0.1163
17505TIP3   OH274005   5.781   1.047  12.136  0.8163 -0.0011 -0.7642
17505TIP3    H174006   5.687   1.038  12.122  0.6908  1.2124 -0.8118
17505TIP3    H274007   5.794   1.140  12.157  1.9947 -0.1544 -0.7127
17506TIP3   OH274008   0.994   3.127   0.544  0.0958 -0.7205  0.0435
17506TIP3    H174009   0.919   3.164   0.589 -0.2942 -0.9406 -0.4070
17506TIP3    H274010   1.070   3.175   0.578 -0.3080 -0.1015  0.0795
17507TIP3   OH274011   0.721   1.618  12.187  0.6646  0.3479  0.1440
17507TIP3    H174012   0.754   1.632  12.098  0.3196 -0.5028 -0.1267
17507TIP3    H274013   0.777   1.550  12.224 -0.0094 -0.2458  0.1020
17508TIP3   OH274014   3.430   6.380  12.356 -0.3992 -0.5352 -0.4185
17508TIP3    H174015   3.402   6.304  12.305  0.3527 -0.7766 -0.4844
17508TIP3    H274016   3.350   6.429  12.371 -0.7053 -0.6981 -1.4398
17509TIP3   OH274017   0.830   2.847  16.257  0.3201  0.5831 -0.1787
17509TIP3    H174018   0.741   2.813  16.260 -0.3294  2.2510  0.6497
17509TIP3    H274019   0.848   2.860  16.164  0.4388 -1.5168 -0.4970
17510TIP3   OH274020   1.080   3.164  11.938  0.4109  0.3449  0.2194
17510TIP3    H174021   0.986   3.159  11.922  0.3227 -0.0564  0.8489
17510TIP3    H274022   1.091   3.241  11.994  0.5571  0.8570 -0.4823
17511TIP3   OH274023   2.605   5.062  16.657 -0.4220 -0.3738  0.3910
17511TIP3    H174024   2.636   5.132  16.601  1.4245 -1.6635 -0.2833
17511TIP3    H274025   2.544   5.012  16.603 -0.4375 -0.2631  0.3069
17512TIP3   OH274026   6.354   6.018  11.340 -0.5442 -0.3376  0.0999
17512TIP3    H174027   6.306   5.985  11.264  0.0945  0.1677 -0.5242
17512TIP3    H274028   6.297   5.998  11.414 -2.0802  0.8841 -0.6880
17513TIP3   OH274029   0.868   3.064   0.133 -0.2892  0.1189  0.5012
17513TIP3    H174030   0.826   3.115   0.063  0.0789 -0.2763 -0.0097
17513TIP3    H274031   0.826   3.096   0.213 -0.4355  0.8587  0.1425
17514TIP3   OH274032   0.288   4.916   3.772 -0.1455 -0.3926  1.3708
17514TIP3    H174033   0.243   4.887   3.692 -0.2964  0.6190  1.0704
17514TIP3    H274034   0.220   4.961   3.822 -0.0698 -1.0944  2.1243
17515TIP3   OH274035   5.011   1.924   5.559  0.2186 -0.6156  0.6338
17515TIP3    H174036   4.943   1.989   5.574  0.7107  0.3496 -1.0778
17515TIP3    H274037   5.087   1.958   5.606  0.1492 -0.5275  0.6819
17516TIP3   OH274038   5.784   3.495   4.909  0.0663 -0.0432 -0.2855
17516TIP3    H174039   5.711   3.510   4.848  0.2087 -1.9787 -1.0110
17516TIP3    H274040   5.769   3.407   4.944  2.1930 -0.6322 -0.6842
17517TIP3   OH274041   4.040   6.072  13.239  0.4832  0.3399  0.0578
17517TIP3    H174042   4.009   6.123  13.164 -0.7979  0.9108  0.9413
17517TIP3    H274043   3.966   6.015  13.262  0.6223  0.6191  1.2722
17518TIP3   OH274044   0.172   0.866   4.493  0.1537 -0.6171 -0.4449
17518TIP3    H174045   0.177   0.776   4.526  2.2102 -0.7408 -0.9332
17518TIP3    H274046   0.182   0.920   4.571 -1.7915 -0.7566 -0.0542
17519TIP3   OH274047   6.243   1.109  16.306  0.2466  0.0886  0.0403
17519TIP3    H174048   6.305   1.078  16.372 -0.3280  1.0443  1.0468
17519TIP3    H274049   6.225   1.031  16.252  0.5985 -0.7478  1.1028
17520TIP3   OH274050   6.798   5.778   1.678  0.5223 -0.5003 -0.1839
17520TIP3    H174051   6.874   5.792   1.734  0.4615 -1.5175  0.1710
17520TIP3    H274052   6.731   5.741   1.736 -0.3627  0.6728 -0.4241
17521TIP3   OH274053   4.426   0.183  11.524 -0.1222  0.5734 -0.9335
17521TIP3    H174054   4.521   0.194  11.512 -0.2791  2.5954 -0.6673
17521TIP3    H274055   4.418   0.106  11.581  1.3024 -0.1420 -1.6469
17522TIP3   OH274056   0.892   0.854  12.026 -0.1555 -0.1898 -0.1665
17522TIP3    H174057   0.913   0.835  12.117  1.3348  1.2185 -0.1621
17522TIP3    H274058   0.803   0.822  12.014 -0.1335 -1.0009  1.5886
17523TIP3   OH274059   5.899   0.072  11.715  0.1080 -0.7587  0.0328
17523TIP3    H174060   5.859  -0.009  11.746 -0.6033 -0.1183  0.8306
17523TIP3    H274061   5.831   0.115  11.663 -0.3170  0.3582  1.4346
17524TIP3   OH274062   0.446   0.264  15.249  1.2879  0.2462 -0.0442
17524TIP3    H174063   0.378   0.242  15.313  1.1115  0.3234 -0.2049
17524TIP3    H274064   0.429   0.207  15.175  1.6357 -0.0080  0.0674
17525TIP3   OH274065   2.592   2.452  16.120  0.2496  0.5249  0.0396
17525TIP3    H174066   2.601   2.522  16.054 -1.0386  0.0456 -0.6846
17525TIP3    H274067   2.574   2.373  16.068  0.7461 -0.1663  0.8998
17526TIP3   OH274068   2.262   2.143   0.469  0.1625  0.6208  0.5871
17526TIP3    H174069   2.312   2.213   0.428 -0.2191  0.5271 -0.0478
17526TIP3    H274070   2.295   2.139   0.558 -0.2355  2.0221  0.8242
17527TIP3   OH274071   2.526   2.291   1.128  0.2396  0.6913  0.6257
17527TIP3    H174072   2.556   2.234   1.198 -1.6783 -1.1447  0.0531
17527TIP3    H274073   2.432   2.301   1.143 -0.9526 -2.2310 -3.1479
17528TIP3   OH274074   5.749   4.494  12.922 -0.2765  0.1898  0.0400
17528TIP3    H174075   5.667   4.514  12.878  1.0254  0.8002 -2.2550
17528TIP3    H274076   5.796   4.437  12.861  0.5178 -1.2390  1.8627
17529TIP3   OH274077   1.547   2.585  13.647 -0.2496 -0.0646 -0.3524
17529TIP3    H174078   1.610   2.538  13.701  0.7080 -0.2507 -1.5786
17529TIP3    H274079   1.475   2.606  13.706 -0.0983 -1.8944  0.5490
17530TIP3   OH274080   1.565   2.906   1.765 -0.1783 -1.0524  0.1176
17530TIP3    H174081   1.534   2.816   1.759 -1.1655 -0.6152 -1.9820
17530TIP3    H274082   1.521   2.941   1.843 -1.9228 -1.6149 -0.5641
17531TIP3   OH274083   5.935   2.337  13.384  0.4382  0.0185 -0.1896
17531TIP3    H174084   5.918   2.303  13.296 -0.6206  0.8166 -0.3129
17531TIP3    H274085   6.030   2.332  13.394  0.5961  0.1691 -1.4690
17532TIP3   OH274086   5.594   2.291  15.924 -0.2806  0.2706  0.5180
17532TIP3    H174087   5.576   2.274  15.832  0.1112  2.4929 -0.0389
17532TIP3    H274088   5.688   2.307  15.928 -0.1747 -0.4932  1.4448
17533TIP3   OH274089   3.360   4.576   3.410 -0.2947 -0.0072 -0.4481
17533TIP3    H174090   3.330   4.654   3.456 -2.7257  1.0319 -3.4801
17533TIP3    H274091   3.456   4.583   3.410 -0.3972  2.1611  0.6314
17534TIP3   OH274092   0.621   1.583   2.556  0.1651  0.1418  0.2602
17534TIP3    H174093   0.687   1.649   2.537  1.4978 -1.0193  0.7082
17534TIP3    H274094   0.579   1.566   2.472  1.2769  0.0245 -0.2804
17535TIP3   OH274095   3.189   1.956   4.993 -0.1547  0.6273  0.1462
17535TIP3    H174096   3.148   1.895   4.933  2.1448 -1.6621  0.7130
17535TIP3    H274097   3.134   2.034   4.990 -2.2109 -0.7829 -2.0067
17536TIP3   OH274098   4.882   0.757   4.006 -0.0245  0.0600  0.4403
17536TIP3    H174099   4.817   0.694   4.037  0.1424  0.0102  0.6902
17536TIP3    H274100   4.930   0.783   4.085 -1.4166  2.0258  0.7070
17537TIP3   OH274101   3.238   2.190   2.465  0.5499  0.1164  0.6203
17537TIP3    H174102   3.262   2.147   2.547 -0.7721 -0.0997  0.9171
17537TIP3    H274103   3.185   2.265   2.492 -0.0638 -0.0679 -0.0421
17538TIP3   OH274104   2.069   1.959  13.536 -0.3679 -0.1024  0.2966
17538TIP3    H174105   2.074   2.027  13.469  4.1242 -1.8631 -1.5257
17538TIP3    H274106   1.997   1.902  13.506 -0.7746  1.0363 -0.9999
17539TIP3   OH274107   0.066   2.469  16.776  0.3721  0.2627 -0.4260
17539TIP3    H174108   0.060   2.402  16.707  1.4093  0.4660 -0.7400
17539TIP3    H274109   0.160   2.489  16.780  0.3130  0.2821  1.0386
17540TIP3   OH274110   1.643   5.420   4.608  0.2856  0.0918 -0.4145
17540TIP3    H174111   1.680   5.411   4.696  1.9868 -0.2190 -1.1270
17540TIP3    H274112   1.608   5.509   4.606  0.8642  0.3502  0.3557
17541TIP3   OH274113   4.963   1.323  11.009  0.0613 -0.2961  0.0373
17541TIP3    H174114   4.992   1.293  11.095 -1.3662 -1.7168  0.0749
17541TIP3    H274115   4.991   1.253  10.949 -2.0142 -1.0792 -0.1006
17542TIP3   OH274116   3.987   4.087  15.083  0.1101  0.7359  0.0810
17542TIP3    H174117   3.894   4.064  15.078  0.5073 -0.6655 -1.7014
17542TIP3    H274118   3.999   4.153  15.014  0.6118  0.2195 -0.3336
17543TIP3   OH274119   5.039   3.802  11.649  0.1544  0.2943 -0.2480
17543TIP3    H174120   5.106   3.824  11.584  0.4371 -1.3145 -0.5545
17543TIP3    H274121   5.085   3.801  11.732  0.1441  0.7686 -0.2313
17544TIP3   OH274122   0.655   4.616  17.171  0.9023 -0.4137  0.3948
17544TIP3    H174123   0.583   4.679  17.180  1.1733  0.5916 -3.0234
17544TIP3    H274124   0.612   4.535  17.141  0.9263 -0.8684  1.5154
17545TIP3   OH274125   3.717   5.422   4.321  0.0592 -0.7199 -0.3555
17545TIP3    H174126   3.759   5.337   4.310  0.0267 -0.6661 -0.8970
17545TIP3    H274127   3.754   5.476   4.251 -0.7505 -0.6108 -0.7012
17546TIP3   OH274128   0.251   6.075   1.860 -0.6378  0.4160 -0.1172
17546TIP3    H174129   0.272   6.162   1.825 -0.0989  0.3140 -0.0594
17546TIP3    H274130   0.334   6.028   1.858 -1.1633 -0.5118 -1.2905
17547TIP3   OH274131   5.745   2.235   4.639 -0.1055 -0.2388  0.1346
17547TIP3    H174132   5.672   2.238   4.577 -0.3175 -1.4730  0.3114
17547TIP3    H274133   5.788   2.320   4.629 -0.6816 -0.0671 -1.0369
17548TIP3   OH274134   5.580   1.692  11.824  0.2032  0.8731 -0.4815
17548TIP3    H174135   5.529   1.759  11.779 -0.5115  0.8807  0.3183
17548TIP3    H274136   5.668   1.728  11.828 -0.3020  2.0655  0.5128
17549TIP3   OH274137   6.448   4.086  12.288 -0.4965  0.3079  0.2499
17549TIP3    H174138   6.504   4.083  12.366  0.4701 -0.0337 -0.4446
17549TIP3    H274139   6.421   4.177  12.282 -0.7719  0.2989  1.1043
17550TIP3   OH274140   2.814   5.564  14.437  0.6054  0.4701 -0.1429
17550TIP3    H174141   2.782   5.638  14.489  2.0803 -0.3812  2.1244
17550TIP3    H274142   2.908   5.559  14.456  0.8575 -0.9942 -1.5201
17551TIP3   OH274143   0.233   3.459   4.866 -0.2294  0.0039 -0.1205
17551TIP3    H174144   0.294   3.507   4.922  0.4351 -1.1329  0.1728
17551TIP3    H274145   0.201   3.524   4.804  1.9424  0.4736 -0.8339
17552TIP3   OH274146   5.536   1.208  16.065 -0.3070  0.5408  0.3028
17552TIP3    H174147   5.619   1.167  16.089  0.9502  2.8921  0.2572
17552TIP3    H274148   5.519   1.179  15.975 -0.2132 -0.9114  0.7230
17553TIP3   OH274149   5.384   6.448   6.105 -0.3482  0.3008 -0.4226
17553TIP3    H174150   5.408   6.463   6.196 -1.3571 -0.3949 -0.0307
17553TIP3    H274151   5.466   6.422   6.063  0.2355  1.1491  0.1510
17554TIP3   OH274152   5.167   3.201   1.347 -0.0730  0.1969 -0.0854
17554TIP3    H174153   5.220   3.278   1.367 -0.0169 -0.2288  1.4862
17554TIP3    H274154   5.227   3.143   1.298  0.0636  0.8756 -0.7411
17555TIP3   OH274155   1.538   0.795   2.376  0.0766  1.1753 -0.4965
17555TIP3    H174156   1.613   0.833   2.330  0.8034  0.3978  0.0164
17555TIP3    H274157   1.572   0.715   2.416 -1.4228 -0.0769 -1.6053
17556TIP3   OH274158   1.086   2.935   5.517  0.4145  0.7898 -0.4112
17556TIP3    H174159   1.163   2.987   5.539  0.1783  1.1783 -0.4898
17556TIP3    H274160   1.101   2.908   5.426  0.0048  1.6885 -0.7493
17557TIP3   OH274161   4.386   3.008  16.830  0.3010 -0.4717 -0.6969
17557TIP3    H174162   4.472   3.037  16.802  0.2785 -0.3928 -0.6810
17557TIP3    H274163   4.404   2.947  16.902  0.3934 -1.1836 -1.3082
17558TIP3   OH274164   3.633   0.061   2.970 -0.1803 -0.2399  0.2242
17558TIP3    H174165   3.662   0.120   2.900 -1.2854 -0.8886 -0.8067
17558TIP3    H274166   3.643  -0.027   2.934 -1.9371 -0.5351  0.4112
17559TIP3   OH274167   0.030   4.971   5.414 -0.0042 -0.3469  0.0240
17559TIP3    H174168  -0.013   4.920   5.483  0.7996 -1.1142 -0.0221
17559TIP3    H274169  -0.013   5.056   5.416 -1.0431 -0.8651  0.4387
17560TIP3   OH274170   2.979   0.974  11.970 -0.4332  0.1262 -0.3193
17560TIP3    H174171   2.949   0.949  11.883 -0.0286  2.3134 -1.1461
17560TIP3    H274172   3.075   0.977  11.962 -0.3217 -0.6612  0.5187
17561TIP3   OH274173   3.164   0.400   1.919 -0.4319 -0.2367  0.4003
17561TIP3    H174174   3.078   0.428   1.949 -0.1594 -0.3348  1.2860
17561TIP3    H274175   3.153   0.307   1.899 -0.5251 -0.2488  0.5091
17562TIP3   OH274176   1.811   1.025  12.171 -0.2796  0.3911  0.0436
17562TIP3    H174177   1.728   1.003  12.130  0.0882  1.1790 -1.1799
17562TIP3    H274178   1.815   1.121  12.169  0.7212  0.3652 -0.0884
17563TIP3   OH274179   1.926   4.453  14.540  0.6588  0.1893  0.0068
17563TIP3    H174180   1.944   4.522  14.604  1.6607  0.1880 -0.2444
17563TIP3    H274181   1.928   4.372  14.591 -0.5215  0.3338  0.3015
17564TIP3   OH274182   3.228   3.529  13.232 -0.0459 -0.2849 -0.2417
17564TIP3    H174183   3.142   3.569  13.225  0.0670  0.4021  1.7214
17564TIP3    H274184   3.278   3.588  13.288  1.0960 -1.6272  0.2194
17565TIP3   OH274185   5.341   4.179   4.982  0.0534  0.3293  0.4912
17565TIP3    H174186   5.355   4.217   4.895 -0.1879  0.4534  0.5045
17565TIP3    H274187   5.290   4.245   5.029 -0.2709  0.0429  0.5522
17566TIP3   OH274188   0.594   2.955   0.098  0.6682 -0.1045 -0.4007
17566TIP3    H174189   0.521   2.978   0.041 -1.3819 -1.1764  1.6336
17566TIP3    H274190   0.647   3.035   0.103 -1.6099  1.4715 -0.1678
17567TIP3   OH274191   2.025   4.757   6.122  0.2086 -0.6412 -0.2809
17567TIP3    H174192   1.989   4.683   6.171  0.4112  0.1582  1.1279
17567TIP3    H274193   1.948   4.808   6.096  0.1817  0.0010  0.9903
17568TIP3   OH274194   1.442   6.472   5.021  0.0433  0.0807 -0.2357
17568TIP3    H174195   1.391   6.429   4.953 -0.3242  0.5459 -0.2554
17568TIP3    H274196   1.462   6.402   5.084 -0.6036 -0.1023 -0.2340
17569TIP3   OH274197   5.088   0.540  10.797  0.2414  0.3418 -0.1822
17569TIP3    H174198   5.149   0.479  10.839 -0.4554  0.2828  0.7788
17569TIP3    H274199   5.037   0.485  10.737  0.9597  0.3501 -0.8156
17570TIP3   OH274200   3.516   6.256   1.674 -1.0292 -0.4610 -0.1303
17570TIP3    H174201   3.437   6.266   1.621 -0.4984  0.4082 -0.7714
17570TIP3    H274202   3.483   6.232   1.761 -1.9488 -1.0056 -0.6049
17571TIP3   OH274203   0.252   1.380   3.752 -0.5243 -0.5507 -0.0960
17571TIP3    H174204   0.205   1.366   3.834  0.2419 -0.1457  0.4339
17571TIP3    H274205   0.233   1.303   3.699  1.6380 -2.5117  1.7684
17572TIP3   OH274206   3.282   0.358  11.487  0.2619 -0.3034 -0.3427
17572TIP3    H174207   3.196   0.332  11.454  1.1345  0.0681 -3.1487
17572TIP3    H274208   3.264   0.399  11.571 -2.1829 -1.1553 -0.3772
17573TIP3   OH274209   0.394   3.555   2.098 -0.2661 -0.2842  0.3628
17573TIP3    H174210   0.367   3.631   2.046  1.4675 -0.6099 -1.1274
17573TIP3    H274211   0.328   3.489   2.082 -1.9156  0.9117  1.8344
17574TIP3   OH274212   5.217   3.130   5.027 -0.1146  0.5719 -0.4769
17574TIP3    H174213   5.200   3.093   4.941 -0.6567  2.1054 -1.0600
17574TIP3    H274214   5.175   3.216   5.026 -2.0742 -0.2159  2.0892
17575TIP3   OH274215   1.692   5.664  12.035 -0.3256  0.1413 -0.1636
17575TIP3    H174216   1.724   5.718  12.108 -1.1280 -0.1573  0.4243
17575TIP3    H274217   1.635   5.600  12.077 -1.1791  0.2663 -1.1192
17576TIP3   OH274218   5.813   3.319  10.882 -0.5503  0.2078 -0.1345
17576TIP3    H174219   5.903   3.325  10.851  0.2224  1.5383  2.0823
17576TIP3    H274220   5.819   3.262  10.959 -1.7445 -0.2361 -0.3499
17577TIP3   OH274221   1.516   3.387   6.745 -0.2651  0.2779  0.1697
17577TIP3    H174222   1.503   3.311   6.801  0.6833  0.0163  0.0390
17577TIP3    H274223   1.427   3.414   6.720 -0.5896 -1.2838 -0.4521
17578TIP3   OH274224   3.417   4.323  14.568 -0.3814  0.4287 -0.7556
17578TIP3    H174225   3.418   4.227  14.575  2.8674  0.3286 -0.9850
17578TIP3    H274226   3.409   4.339  14.474  0.8812  0.2880 -0.9014
17579TIP3   OH274227   5.160   1.961  13.441 -0.1665 -0.5286  0.0849
17579TIP3    H174228   5.148   1.907  13.519 -0.4011 -0.0771  0.3639
17579TIP3    H274229   5.255   1.975  13.435 -0.2506  0.6863  1.1558
17580TIP3   OH274230   2.170   0.576   2.460  0.1066 -0.0264  0.5282
17580TIP3    H174231   2.213   0.660   2.445 -0.8885  0.4255  0.0567
17580TIP3    H274232   2.231   0.526   2.514  1.5204  0.3163 -0.6873
17581TIP3   OH274233   3.155   3.799   5.847 -0.1086 -0.0036 -0.1483
17581TIP3    H174234   3.147   3.761   5.935 -0.9978  0.8652  0.1629
17581TIP3    H274235   3.195   3.729   5.795 -0.5570 -0.9219  0.6950
17582TIP3   OH274236   1.559   1.874  14.627 -0.5503  0.6535 -0.4900
17582TIP3    H174237   1.479   1.927  14.631 -0.9112  0.0287  1.6984
17582TIP3    H274238   1.540   1.797  14.681  2.2251  1.5491  2.0381
17583TIP3   OH274239   5.623   1.675  12.297 -0.3450  0.4789 -0.0792
17583TIP3    H174240   5.626   1.681  12.201 -0.9754 -2.5651 -0.3805
17583TIP3    H274241   5.531   1.694  12.318 -0.3794  0.3901 -0.1486
17584TIP3   OH274242   5.120   0.903   1.561  0.2592  0.1623 -0.2211
17584TIP3    H174243   5.030   0.927   1.582  0.4174 -0.5555  1.4111
17584TIP3    H274244   5.117   0.809   1.549  1.0589 -0.1250  1.5461
17585TIP3   OH274245   2.667   0.049  15.173  0.2919 -0.3027 -0.0898
17585TIP3    H174246   2.616   0.041  15.092 -0.7585  0.0061  0.5101
17585TIP3    H274247   2.652   0.139  15.202 -1.5152 -1.1289  1.7857
17586TIP3   OH274248   0.890   3.485   3.793 -0.4073  0.4096 -0.1708
17586TIP3    H174249   0.944   3.530   3.728  1.4065 -0.1193  0.9041
17586TIP3    H274250   0.951   3.464   3.864 -2.2831  0.8718  1.6632
17587TIP3   OH274251   2.838   4.483  11.238 -0.3718  0.8976  0.3854
17587TIP3    H174252   2.858   4.460  11.147 -0.9407 -0.1351  0.5136
17587TIP3    H274253   2.921   4.516  11.273 -0.0772  1.0436 -0.4251
17588TIP3   OH274254   4.054   4.944   3.155 -0.7938  0.3272 -0.4512
17588TIP3    H174255   4.139   4.909   3.128 -0.2371  0.2466  1.2929
17588TIP3    H274256   3.990   4.884   3.117 -0.0733  0.1754 -1.4725
17589TIP3   OH274257   4.733   5.900   4.099  0.3854 -0.8268 -0.2455
17589TIP3    H174258   4.712   5.958   4.172 -0.5690 -0.8786 -0.4624
17589TIP3    H274259   4.820   5.866   4.120  0.3069 -0.5108  0.6533
17590TIP3   OH274260   5.425   5.541  12.526  0.6235 -0.2932 -0.6045
17590TIP3    H174261   5.475   5.472  12.484 -0.1438 -1.4693  0.3348
17590TIP3    H274262   5.376   5.582  12.455  1.0167 -0.7917 -1.1665
17591TIP3   OH274263   3.689   3.055   1.522 -0.2798  0.5293  0.4448
17591TIP3    H174264   3.679   3.069   1.428 -1.1011  3.1114  0.8341
17591TIP3    H274265   3.617   2.997   1.545  0.9143 -1.5620 -0.6977
17592TIP3   OH274266   3.563   5.387   0.943  0.1350  0.1184 -0.5725
17592TIP3    H174267   3.470   5.388   0.923 -0.3463  2.4096  1.2523
17592TIP3    H274268   3.576   5.305   0.991 -0.6138 -0.8484 -1.9442
17593TIP3   OH274269   3.119   2.076  16.157  0.6469 -0.0422  0.4543
17593TIP3    H174270   3.137   2.006  16.220  1.3477  2.4918  3.3112
17593TIP3    H274271   3.040   2.118  16.191  0.8963  1.2524 -0.5044
17594TIP3   OH274272   5.992   3.312  11.254  0.8298  0.1957 -0.2659
17594TIP3    H174273   5.935   3.273  11.188 -0.8773  0.1848  1.1411
17594TIP3    H274274   5.939   3.312  11.334  1.8359  2.6989  0.4790
17595TIP3   OH274275   2.446   5.541  15.406  0.5782  0.8396 -0.2322
17595TIP3    H174276   2.475   5.627  15.436  0.1341  0.0326  2.8171
17595TIP3    H274277   2.351   5.543  15.417  0.3715  0.4719 -1.7231
17596TIP3   OH274278   5.032   1.739   4.247  0.4399  0.1304  0.2818
17596TIP3    H174279   4.938   1.727   4.236  0.6815  0.1150 -3.0600
17596TIP3    H274280   5.043   1.834   4.256  0.0843  0.0972  1.0757
17597TIP3   OH274281   5.725   0.087  16.926  0.2112 -0.4331  0.4400
17597TIP3    H174282   5.792   0.120  16.866 -0.2087  0.3222  0.3702
17597TIP3    H274283   5.722  -0.008  16.909  1.3755 -0.5057  0.5826
17598TIP3   OH274284   3.153   6.284  12.871  0.5201 -0.0932 -0.1480
17598TIP3    H174285   3.060   6.296  12.891  0.4765  0.7232 -0.8069
17598TIP3    H274286   3.195   6.362  12.906  0.8868 -0.2007 -0.3411
17599TIP3   OH274287   3.897   6.784   0.162  0.5118  0.3225  0.0620
17599TIP3    H174288   3.855   6.866   0.135  1.3941  0.8821  0.3337
17599TIP3    H274289   3.873   6.774   0.254  0.8141  0.5537  0.1701
17600TIP3   OH274290   5.318   4.326  11.572  0.3917 -0.1693 -0.2335
17600TIP3    H174291   5.394   4.268  11.571  0.3620 -0.2146 -1.2619
17600TIP3    H274292   5.335   4.389  11.502 -0.2711  0.1455 -0.1175
17601TIP3   OH274293   2.225   0.179  11.471 -0.3722 -0.1500 -0.3132
17601TIP3    H174294   2.304   0.229  11.491  0.9728 -0.8674 -3.3497
17601TIP3    H274295   2.164   0.243  11.437 -0.1118  0.0136 -0.4754
17602TIP3   OH274296   4.723   1.139  16.423 -0.0484 -0.0659 -0.1859
17602TIP3    H174297   4.749   1.198  16.352 -1.8707  0.8695 -0.1047
17602TIP3    H274298   4.717   1.053  16.380  2.1665 -0.1933 -0.3952
17603TIP3   OH274299   4.320   1.768  12.165 -0.3741  0.1049 -0.0614
17603TIP3    H174300   4.367   1.850  12.177  0.4578 -0.4381  0.4585
17603TIP3    H274301   4.316   1.757  12.070 -1.5325  1.3144 -0.1914
17604TIP3   OH274302   2.451   2.546  11.292  0.3770  0.1588 -0.5932
17604TIP3    H174303   2.523   2.593  11.333  1.2724 -1.3703 -0.3053
17604TIP3    H274304   2.406   2.611  11.238  0.4409  1.7110  1.1678
17605TIP3   OH274305   2.615   1.314   5.092  0.0040  0.1102  0.1777
17605TIP3    H174306   2.560   1.237   5.109  0.2118 -0.2778 -0.8739
17605TIP3    H274307   2.704   1.279   5.085 -0.0786  0.1800 -1.9044
17606TIP3   OH274308   5.847   6.167   1.811 -0.1860 -0.3536 -0.2001
17606TIP3    H174309   5.756   6.162   1.781 -0.2823 -0.3997  0.0941
17606TIP3    H274310   5.890   6.222   1.746 -0.8895  1.3705  0.7162
17607TIP3   OH274311   3.649   1.035   1.275 -0.1498  0.3539  0.2802
17607TIP3    H174312   3.662   0.942   1.261  1.7334  0.5963  0.1828
17607TIP3    H274313   3.712   1.058   1.343 -1.2320  1.3950  0.9748
17608TIP3   OH274314   4.017   5.588  12.878  0.0822 -0.2143  0.1190
17608TIP3    H174315   3.985   5.554  12.795  0.8099 -0.8837  0.1055
17608TIP3    H274316   4.058   5.513  12.922  2.7213  0.8064 -0.3988
17609TIP3   OH274317   6.543   0.862  17.186  0.2962 -0.0508  0.2353
17609TIP3    H174318   6.579   0.811  17.258  1.4964  2.1376  1.2834
17609TIP3    H274319   6.551   0.953  17.214 -2.6464  0.7471 -1.1309
17610TIP3   OH274320   2.690   3.540  11.578  0.1366  0.0744 -0.0842
17610TIP3    H174321   2.673   3.446  11.591 -1.7242  0.2674 -0.7632
17610TIP3    H274322   2.623   3.583  11.630  1.9327  1.1046  1.4767
17611TIP3   OH274323   1.790   4.996   5.229  0.1707  0.9927 -0.8600
17611TIP3    H174324   1.848   4.940   5.177  0.2449  1.2333 -1.0387
17611TIP3    H274325   1.708   4.997   5.181 -1.2917 -2.3110  1.1794
17612TIP3   OH274326   5.325   1.729   1.182 -0.6126 -0.1522 -0.3307
17612TIP3    H174327   5.285   1.798   1.235 -1.2275 -0.3789 -0.4922
17612TIP3    H274328   5.408   1.711   1.226 -0.9853 -0.1330  0.3955
17613TIP3   OH274329   4.614   4.190   4.009  0.7346 -0.5086 -0.3528
17613TIP3    H174330   4.598   4.153   4.096  1.3892  0.8367  0.3613
17613TIP3    H274331   4.690   4.142   3.976  0.8146 -0.6573  0.0461
17614TIP3   OH274332   0.455   5.286  15.325  0.5723 -0.0774 -0.8755
17614TIP3    H174333   0.413   5.206  15.294 -1.1219  0.4320 -0.0089
17614TIP3    H274334   0.432   5.291  15.418  1.4747  0.9119 -0.6872
17615TIP3   OH274335   5.455   1.871  14.588 -0.1257 -0.1511  0.0055
17615TIP3    H174336   5.490   1.851  14.675  0.3078 -1.3869 -0.4301
17615TIP3    H274337   5.526   1.849  14.528 -0.9477 -0.8080 -0.7594
17616TIP3   OH274338   5.530   2.504   3.492 -0.4579 -0.2477  0.1048
17616TIP3    H174339   5.496   2.582   3.535  1.1870  0.8192 -0.4318
17616TIP3    H274340   5.488   2.504   3.406 -1.7121 -0.9055  0.6876
17617TIP3   OH274341   5.234   0.639   5.769  0.8382 -0.0408  0.0834
17617TIP3    H174342   5.161   0.587   5.804  0.6882 -0.7869 -1.2527
17617TIP3    H274343   5.312   0.592   5.796  0.7021 -1.1165 -1.2248
17618TIP3   OH274344   6.188   5.292   2.109  0.2731  0.1017 -0.2516
17618TIP3    H174345   6.161   5.205   2.081  1.2220 -0.6287  0.9939
17618TIP3    H274346   6.247   5.323   2.040  1.2551 -0.9605  0.0900
17619TIP3   OH274347   4.127   0.231   6.773  0.0968  0.6190  0.3275
17619TIP3    H174348   4.193   0.300   6.771  0.3956  0.3281 -0.0644
17619TIP3    H274349   4.176   0.151   6.756 -0.4899  0.5027 -0.9182
17620TIP3   OH274350   0.477   2.929  13.230  0.2853  0.0528 -0.4064
17620TIP3    H174351   0.542   2.865  13.259  0.2931  0.0679 -0.3902
17620TIP3    H274352   0.394   2.881  13.231 -0.1063  0.6184  1.8308
17621TIP3   OH274353   0.861   1.751  14.901  0.4068  0.1150  0.5754
17621TIP3    H174354   0.857   1.837  14.860  0.6070 -0.5552 -0.8917
17621TIP3    H274355   0.772   1.734  14.931 -0.5832 -0.7269 -2.5096
17622TIP3   OH274356   2.204   4.669   1.288 -1.0221  0.8051 -0.4184
17622TIP3    H174357   2.214   4.700   1.378 -0.7926  0.5414 -0.3529
17622TIP3    H274358   2.182   4.577   1.296 -1.2689  0.8442 -0.6274
17623TIP3   OH274359   3.482   5.723   5.820  0.8399  0.5382  0.2369
17623TIP3    H174360   3.487   5.657   5.889 -1.6472  0.3131  0.2890
17623TIP3    H274361   3.476   5.806   5.867 -0.1341  0.4431  0.2954
17624TIP3   OH274362   5.128   5.097   6.131  0.3285 -0.5999  0.1250
17624TIP3    H174363   5.191   5.145   6.184 -0.5870  1.3364 -0.4433
17624TIP3    H274364   5.067   5.164   6.100 -0.6155 -2.0481 -1.2994
17625TIP3   OH274365   1.960   3.205   4.917 -0.1409 -0.0077  0.5775
17625TIP3    H174366   2.027   3.166   4.974 -0.4358  1.6603  2.1619
17625TIP3    H274367   1.927   3.280   4.967 -1.3580  0.7571 -1.2722
17626TIP3   OH274368   5.624   4.464   2.011  0.0500 -0.4600 -0.3931
17626TIP3    H174369   5.715   4.494   2.000 -0.7391  2.1780 -0.3636
17626TIP3    H274370   5.629   4.404   2.086  1.7713 -0.4310 -0.4256
17627TIP3   OH274371   6.459   6.733   5.238  0.3255 -0.4436  0.1443
17627TIP3    H174372   6.369   6.704   5.257  0.8052 -0.5629  2.4401
17627TIP3    H274373   6.513   6.657   5.259  1.0687 -0.0429 -0.2882
17628TIP3   OH274374   1.689   5.706  12.940 -0.3259 -0.8141  0.3455
17628TIP3    H174375   1.745   5.746  13.006  0.7579 -0.0661 -0.9733
17628TIP3    H274376   1.734   5.625  12.916  0.2435 -0.2021 -0.7302
17629TIP3   OH274377   3.432   4.236  12.319  0.6319  0.0687 -0.3289
17629TIP3    H174378   3.403   4.253  12.229  0.4608 -0.3928 -0.3670
17629TIP3    H274379   3.507   4.178  12.309  1.4786  1.1249 -0.2202
17630TIP3   OH274380   1.204   1.827  13.450 -0.1091 -0.3170  0.4507
17630TIP3    H174381   1.227   1.781  13.370  0.0847 -0.8675  0.8178
17630TIP3    H274382   1.151   1.901  13.421  0.4935 -0.1433 -0.2355
17631TIP3   OH274383   6.566   3.744  15.635 -0.0233  0.2507 -0.6331
17631TIP3    H174384   6.647   3.694  15.650  0.8229  1.0764 -2.1840
17631TIP3    H274385   6.504   3.710  15.699  0.6574 -2.4204 -1.3030
17632TIP3   OH274386   2.102   6.388   4.937 -0.5420 -0.4508 -0.0847
17632TIP3    H174387   2.177   6.346   4.979 -1.2149  0.3947  2.1177
17632TIP3    H274388   2.131   6.476   4.916 -0.6559 -0.3940 -0.0080
17633TIP3   OH274389   6.779   5.466  16.484  0.1369  0.4663 -0.3529
17633TIP3    H174390   6.799   5.560  16.482 -2.6119  1.1543  0.1532
17633TIP3    H274391   6.685   5.461  16.465  0.4672 -2.3212 -1.7719
17634TIP3   OH274392   1.770   5.009  11.031 -0.0686 -0.2025  0.0995
17634TIP3    H174393   1.810   4.929  11.066 -0.1732  0.1991  1.1885
17634TIP3    H274394   1.720   4.979  10.956  0.6722 -1.0151 -0.0946
17635TIP3   OH274395   3.531   3.969  12.224  0.1575 -0.8167  0.3180
17635TIP3    H174396   3.552   3.988  12.132  1.6740  0.2684  0.8412
17635TIP3    H274397   3.436   3.967  12.227 -0.0109  1.6485 -0.8380
17636TIP3   OH274398   5.986   2.955   2.179  0.3935 -0.4972  0.4807
17636TIP3    H174399   5.955   2.998   2.258  0.2561 -0.9833  0.6961
17636TIP3    H274400   5.961   2.863   2.190  0.2404 -0.5464 -0.1885
17637TIP3   OH274401   0.692   2.241  15.908 -0.0183  0.0274  0.2021
17637TIP3    H174402   0.623   2.272  15.967 -0.4737 -0.3518 -0.1265
17637TIP3    H274403   0.648   2.178  15.850  0.6428 -0.3676  0.1180
17638TIP3   OH274404   6.384   2.441   2.925 -0.2164  0.1821  0.4681
17638TIP3    H174405   6.453   2.381   2.953 -0.9488 -0.6327  0.5280
17638TIP3    H274406   6.402   2.522   2.973  2.9296  1.3372 -2.1987
17639TIP3   OH274407   0.280   0.816   0.363  0.1833  0.3933  0.2381
17639TIP3    H174408   0.297   0.850   0.275 -0.3060  0.3871  0.1384
17639TIP3    H274409   0.199   0.859   0.390 -0.1072 -0.2116  0.3575
17640TIP3   OH274410   2.152   0.897  11.134  0.3470  0.0515 -0.4027
17640TIP3    H174411   2.095   0.896  11.211  0.0603 -0.8028 -0.6159
17640TIP3    H274412   2.092   0.911  11.060  0.5243  0.0841 -0.5412
17641TIP3   OH274413   2.988   4.428   3.453  1.1526  0.4221  0.2241
17641TIP3    H174414   3.005   4.348   3.504  1.1669  1.1372  1.3694
17641TIP3    H274415   2.946   4.396   3.374  0.7855 -0.6987  0.8367
17642TIP3   OH274416   2.722   4.677   2.907 -0.0125 -0.2899 -0.0792
17642TIP3    H174417   2.681   4.746   2.855  0.4391 -0.1934 -0.3077
17642TIP3    H274418   2.658   4.606   2.906 -1.9325  1.1902  2.7452
17643TIP3   OH274419   2.961   0.368   4.442 -0.3219 -0.7462  0.4540
17643TIP3    H174420   2.870   0.372   4.412 -0.3139 -3.3402 -0.1051
17643TIP3    H274421   2.965   0.289   4.496  1.9848 -1.6464 -0.9129
17644TIP3   OH274422   4.343   5.595  15.390 -0.3121 -0.1332  0.2080
17644TIP3    H174423   4.407   5.531  15.360  1.4635  1.4121  0.5088
17644TIP3    H274424   4.286   5.610  15.315  1.3731  0.4524 -1.0026
17645TIP3   OH274425   5.812   1.662  15.213 -0.2165 -0.1674 -0.3944
17645TIP3    H174426   5.879   1.720  15.175  1.3851 -0.1116  2.2747
17645TIP3    H274427   5.787   1.605  15.141 -0.5076  2.5672 -2.6680
17646TIP3   OH274428   0.984   2.436   0.609  0.4369 -0.0570  0.0368
17646TIP3    H174429   0.972   2.491   0.686 -0.4516 -0.2190  0.0214
17646TIP3    H274430   0.956   2.491   0.535  0.8946 -0.0447 -0.1341
17647TIP3   OH274431   4.011   1.699   4.455 -0.0261  0.2173 -0.5249
17647TIP3    H174432   3.919   1.687   4.429  0.7446 -1.3428 -2.7874
17647TIP3    H274433   4.045   1.763   4.393 -0.0414  2.5353  1.6770
17648TIP3   OH274434   4.674   4.828  16.440  0.3570  0.7064  0.2481
17648TIP3    H174435   4.707   4.762  16.501  0.2575  0.2224 -0.2122
17648TIP3    H274436   4.745   4.839  16.376 -0.3888 -0.4647 -0.8437
17649TIP3   OH274437   4.480   3.235   5.831  0.3433  0.4353  0.1707
17649TIP3    H174438   4.478   3.246   5.926 -2.6826 -0.7759  0.3521
17649TIP3    H274439   4.472   3.140   5.818  1.8518  0.4713 -1.3316
17650TIP3   OH274440   5.051   3.960  17.097 -0.2238 -0.0836  0.3632
17650TIP3    H174441   4.992   3.956  17.022  0.0214 -2.2832  0.2062
17650TIP3    H274442   5.006   4.016  17.160 -0.8499  1.0694 -1.0424
17651TIP3   OH274443   2.045   0.174   1.678  0.3902 -0.5518 -0.0922
17651TIP3    H174444   2.138   0.179   1.700  0.3929 -0.0634 -0.1888
17651TIP3    H274445   2.043   0.168   1.583  0.3270 -0.6998 -0.0814
17652TIP3   OH274446   1.443   4.912  12.626 -0.3029  0.1549 -0.2509
17652TIP3    H174447   1.350   4.897  12.609 -1.1441  1.6399  2.3534
17652TIP3    H274448   1.456   5.005  12.609 -0.0492  0.5945  1.9615
17653TIP3   OH274449   0.974   5.286   3.677  0.1122 -0.3064 -0.2605
17653TIP3    H174450   0.949   5.365   3.725 -1.9085 -0.2216 -1.3331
17653TIP3    H274451   1.064   5.269   3.705  0.5471  2.2259  0.1874
17654TIP3   OH274452   6.747   5.720  11.298 -0.3196  0.2064  0.2664
17654TIP3    H174453   6.839   5.729  11.325 -0.4167 -1.2447  1.1755
17654TIP3    H274454   6.749   5.652  11.231 -0.7509  0.1239  0.3405
17655TIP3   OH274455   0.889   1.066   3.387  0.9568 -0.0993  0.0477
17655TIP3    H174456   0.916   1.027   3.470  0.1830  0.6656  0.6776
17655TIP3    H274457   0.941   1.020   3.321  0.5471 -1.7318  0.8114
17656TIP3   OH274458   4.329   6.542   0.262 -0.0123 -0.1667 -0.3242
17656TIP3    H174459   4.322   6.515   0.171  0.8440  0.8659 -0.7136
17656TIP3    H274460   4.290   6.629   0.265  0.7788  0.1829  0.1078
17657TIP3   OH274461   3.956   3.494  11.929 -0.6855  0.5777  0.1135
17657TIP3    H174462   3.942   3.449  11.845  0.5490 -0.0428  0.2085
17657TIP3    H274463   3.944   3.586  11.909  0.5256  0.5334 -1.0019
17658TIP3   OH274464   6.166   4.408   1.951 -0.7181 -0.0901 -0.2510
17658TIP3    H174465   6.229   4.478   1.968  2.3174 -2.5467 -0.5500
17658TIP3    H274466   6.111   4.406   2.029  1.3786  0.4354  1.3271
17659TIP3   OH274467   0.319   6.568  10.767  0.0337  1.0134  0.4286
17659TIP3    H174468   0.230   6.551  10.738  0.8705 -1.5748 -0.9390
17659TIP3    H274469   0.318   6.546  10.861 -1.1677  3.0021  0.9346
17660TIP3   OH274470   2.089   6.657   0.330  0.1335 -0.0510  0.0640
17660TIP3    H174471   2.071   6.567   0.355  1.2303 -0.4157 -0.3826
17660TIP3    H274472   2.141   6.650   0.250  2.6349  0.8385  1.4541
17661TIP3   OH274473   0.696   5.260   0.567  0.0529  0.0611 -0.3811
17661TIP3    H174474   0.639   5.327   0.530  2.0830  2.1203  0.0052
17661TIP3    H274475   0.755   5.236   0.496  0.6649  0.2153  0.0708
17662TIP3   OH274476   2.792   2.470   0.173  0.3354  0.0922  0.1773
17662TIP3    H174477   2.765   2.430   0.091 -0.1629 -0.3700  0.5520
17662TIP3    H274478   2.828   2.555   0.149  1.9525 -0.7953 -0.7074
17663TIP3   OH274479   2.933   5.593  12.431  0.4598 -0.5428 -0.2106
17663TIP3    H174480   2.960   5.685  12.436 -1.0410 -0.1417  1.8427
17663TIP3    H274481   2.870   5.590  12.360 -1.3016  0.6042  1.2022
17664TIP3   OH274482   2.749   0.981   0.310 -0.7906 -0.3519  0.3712
17664TIP3    H174483   2.778   0.900   0.266  0.2006  0.5751 -0.7585
17664TIP3    H274484   2.694   1.025   0.245 -2.0995 -0.5352  1.3244
17665TIP3   OH274485   4.543   1.888  15.860  0.3478  0.0677 -0.7407
17665TIP3    H174486   4.541   1.793  15.862  1.8046  0.0156 -0.2617
17665TIP3    H274487   4.603   1.910  15.790 -0.1158  0.6483 -0.9706
17666TIP3   OH274488   1.184   6.705   1.703  0.0303  0.1686 -0.3504
17666TIP3    H174489   1.239   6.780   1.724 -0.7111  0.5747  0.1686
17666TIP3    H274490   1.199   6.689   1.609  1.9524 -0.5005  0.0339
17667TIP3   OH274491   3.729   2.788   6.014  0.4319  0.1024 -0.1599
17667TIP3    H174492   3.760   2.879   6.011  0.4784  0.2788  2.7468
17667TIP3    H274493   3.636   2.796   6.036  0.3397 -0.5549 -0.2945
17668TIP3   OH274494   4.881   5.770   1.567 -0.5786 -0.3105 -0.1614
17668TIP3    H174495   4.844   5.856   1.549 -1.6523 -1.0165 -1.5003
17668TIP3    H274496   4.962   5.788   1.615 -1.4494  1.3652  0.7292
17669TIP3   OH274497   0.322   1.234  17.043  0.2307  0.7733 -0.0686
17669TIP3    H174498   0.356   1.176  16.974  0.1018  0.4939  0.1021
17669TIP3    H274499   0.331   1.183  17.123  1.0903  1.3782  0.2370
17670TIP3   OH274500   1.692   5.033   2.004  0.4761  0.9768 -0.0947
17670TIP3    H174501   1.643   5.088   2.065 -0.7206 -0.1163 -0.0486
17670TIP3    H274502   1.648   4.948   2.007  1.3977  0.4370 -1.2665
17671TIP3   OH274503   3.374   0.421  12.344  0.5567  0.0939  0.4286
17671TIP3    H174504   3.449   0.447  12.397  1.2230 -1.8957  0.5638
17671TIP3    H274505   3.337   0.347  12.392 -0.0485 -0.4550 -0.8600
17672TIP3   OH274506   3.432   2.462  12.236  0.1416  0.2667 -0.1553
17672TIP3    H174507   3.429   2.388  12.176 -1.6219  0.8735 -0.8952
17672TIP3    H274508   3.379   2.529  12.194 -1.6088  0.5673  2.2655
17673TIP3   OH274509   6.126   2.152  14.119 -0.1117  0.5175 -0.2580
17673TIP3    H174510   6.121   2.230  14.064 -1.3085  1.6636  1.3721
17673TIP3    H274511   6.036   2.120  14.123  0.1924 -0.3336 -0.0753
17674TIP3   OH274512   2.733   6.401  14.216  0.3126  0.0558  0.3448
17674TIP3    H174513   2.724   6.457  14.293  0.4378 -0.1343  0.4986
17674TIP3    H274514   2.653   6.417  14.166 -0.5366 -1.0162  1.3052
17675TIP3   OH274515   1.310   0.386   4.712 -0.1642 -0.5043 -0.0842
17675TIP3    H174516   1.363   0.338   4.775 -0.7496 -2.5710 -1.0710
17675TIP3    H274517   1.357   0.377   4.629  0.2381  1.5670 -0.1289
17676TIP3   OH274518   4.337   2.124  12.792 -0.6271  0.0678  0.4727
17676TIP3    H174519   4.377   2.054  12.844  1.4410  1.2011  0.5413
17676TIP3    H274520   4.269   2.160  12.849  1.2278  0.9344  2.3148
17677TIP3   OH274521   6.041   3.246   4.861  0.8003  0.3780 -0.0478
17677TIP3    H174522   6.054   3.183   4.933 -2.9488 -0.9888 -0.3442
17677TIP3    H274523   6.083   3.326   4.892  2.8874 -1.2945  1.8117
17678TIP3   OH274524   3.441   6.790   5.843  0.5207 -0.3327  0.0200
17678TIP3    H174525   3.444   6.698   5.871  0.2105  0.1149  1.6119
17678TIP3    H274526   3.515   6.831   5.887 -2.2360  1.2606  3.6996
17679TIP3   OH274527   2.206   0.426  17.216 -0.4963 -0.1686  0.2642
17679TIP3    H174528   2.299   0.434  17.198 -0.7481 -0.1134 -1.1558
17679TIP3    H274529   2.199   0.351  17.275  0.4133 -0.3990  0.0881
17680TIP3   OH274530   5.507   5.767   5.629  0.1762  0.6809 -0.0461
17680TIP3    H174531   5.507   5.736   5.539  2.1463 -0.4807  0.2830
17680TIP3    H274532   5.454   5.704   5.677  0.2323  0.5352 -0.1774
17681TIP3   OH274533   1.325   6.033  11.144  0.3223 -0.3153 -0.2026
17681TIP3    H174534   1.279   6.085  11.209 -0.6782 -2.0408  0.5506
17681TIP3    H274535   1.278   6.048  11.062 -0.9945 -1.2240  0.3410
17682TIP3   OH274536   4.503   0.151   4.424 -0.1370  0.4293 -0.3027
17682TIP3    H174537   4.515   0.242   4.449 -0.4634  0.4937 -0.3800
17682TIP3    H274538   4.409   0.141   4.413 -0.3278 -0.4903  1.8378
17683TIP3   OH274539   4.647   0.653  14.109  0.4496  0.0623 -0.3446
17683TIP3    H174540   4.667   0.598  14.185 -1.4950 -0.8881 -0.4545
17683TIP3    H274541   4.682   0.604  14.035 -0.7663 -0.8147 -0.3815
17684TIP3   OH274542   6.541   6.450  17.168  0.3624 -0.0765 -0.3209
17684TIP3    H174543   6.570   6.431  17.079 -0.3045  0.0109 -0.5677
17684TIP3    H274544   6.465   6.393  17.181 -0.3349  0.8283 -0.2835
17685TIP3   OH274545   5.271   3.982  15.401 -0.5650  0.3084 -0.3827
17685TIP3    H174546   5.274   4.075  15.422  0.3888 -0.1175  1.6199
17685TIP3    H274547   5.342   3.944  15.452 -1.0792 -1.5729 -0.9864
17686TIP3   OH274548   2.582   3.905   2.196  0.3488 -0.5349 -0.1432
17686TIP3    H174549   2.634   3.985   2.207  1.0918 -1.2532  1.9933
17686TIP3    H274550   2.522   3.905   2.270  0.4351 -2.0163 -0.0514
17687TIP3   OH274551   1.028   4.414   3.238 -0.6203 -0.1740  0.1642
17687TIP3    H174552   1.025   4.370   3.153  0.9576  0.1446 -0.0957
17687TIP3    H274553   0.985   4.498   3.223  0.5187  0.3029 -0.6332
17688TIP3   OH274554   3.635   5.517   0.723 -0.1974  0.0957 -0.2721
17688TIP3    H174555   3.668   5.605   0.740 -1.7643  0.7471 -0.5148
17688TIP3    H274556   3.628   5.477   0.810  1.1116 -0.0523 -0.2029
17689TIP3   OH274557   2.492   1.522  11.530 -0.4247 -0.2087  0.2772
17689TIP3    H174558   2.441   1.575  11.468  0.1286  0.0494  0.0395
17689TIP3    H274559   2.464   1.554  11.616 -1.0536 -0.4336  0.1609
17690TIP3   OH274560   4.564   3.249  12.329  0.0937 -0.0004  0.2688
17690TIP3    H174561   4.542   3.297  12.250 -0.6043  1.6122  1.3871
17690TIP3    H274562   4.490   3.189  12.342 -0.3683  0.5682  0.3151
17691TIP3   OH274563   6.057   2.183  11.453 -0.2698  0.2915  0.6090
17691TIP3    H174564   6.055   2.117  11.522  3.2325  0.2812  0.9003
17691TIP3    H274565   6.128   2.242  11.479  0.8617  0.5877 -2.6445
17692TIP3   OH274566   0.235   1.145   2.730 -0.1176 -0.3549 -0.1673
17692TIP3    H174567   0.189   1.061   2.733 -0.3917 -0.2179 -0.4231
17692TIP3    H274568   0.193   1.192   2.658 -0.2678  0.1721  0.2545
17693TIP3   OH274569   5.055   1.014  15.655  0.0210  0.3965  0.0799
17693TIP3    H174570   5.105   0.938  15.684  0.2719  0.5713  0.1160
17693TIP3    H274571   4.965   0.983  15.648  0.4361 -0.4922 -1.9863
17694TIP3   OH274572   0.593   5.502   2.028 -0.0935  0.3228 -0.4767
17694TIP3    H174573   0.615   5.569   2.092 -1.6264  1.8000 -1.3927
17694TIP3    H274574   0.510   5.466   2.058 -0.1356  0.0436 -0.9142
17695TIP3   OH274575   0.148   5.268   5.116  0.2333 -0.0327 -0.0934
17695TIP3    H174576   0.223   5.236   5.166 -0.0597 -1.1231 -0.3210
17695TIP3    H274577   0.092   5.192   5.105 -0.9976  0.8038  0.2057
17696TIP3   OH274578   2.295   1.565  16.808  0.0146 -0.4210  0.2192
17696TIP3    H174579   2.326   1.485  16.766  0.9238  0.2683 -0.4638
17696TIP3    H274580   2.201   1.552  16.819 -0.0296 -1.1236 -0.8894
17697TIP3   OH274581   1.641   5.205   1.475 -0.1382 -0.5857 -0.3454
17697TIP3    H174582   1.668   5.293   1.502  0.4279 -0.6458 -0.6928
17697TIP3    H274583   1.652   5.152   1.554 -0.6095 -0.3202 -0.0976
17698TIP3   OH274584   2.102   0.744   3.525  0.0923 -0.6059 -0.0530
17698TIP3    H174585   2.136   0.702   3.445  0.8743  0.0236 -0.0582
17698TIP3    H274586   2.101   0.673   3.590  0.4680 -0.8700 -0.3279
17699TIP3   OH274587   4.455   6.406  12.613  0.0131 -0.1807  0.2774
17699TIP3    H174588   4.372   6.450  12.628  0.5821  0.7252  0.9530
17699TIP3    H274589   4.471   6.415  12.519 -0.2907  0.3052  0.2709
17700TIP3   OH274590   5.909   4.160  16.284  0.1398 -0.2444  0.0675
17700TIP3    H174591   5.969   4.234  16.281  1.1080 -1.0001  0.3352
17700TIP3    H274592   5.938   4.108  16.360  0.6109 -1.8210 -1.1243
17701TIP3   OH274593   3.133   2.342   4.067  0.2963 -0.0353 -0.2971
17701TIP3    H174594   3.105   2.424   4.026 -2.8695 -1.1276 -0.6034
17701TIP3    H274595   3.146   2.365   4.160  1.4347  1.1729 -0.7231
17702TIP3   OH274596   1.559   4.244  16.295  0.0768  0.2616  0.3262
17702TIP3    H174597   1.474   4.272  16.331  0.5510  0.5455  1.2699
17702TIP3    H274598   1.623   4.287  16.352  0.8484 -0.1765 -0.2102
17703TIP3   OH274599   3.988   5.578  13.581  0.0044  0.1977  0.1766
17703TIP3    H174600   3.969   5.545  13.669 -0.1350 -1.3815 -0.4166
17703TIP3    H274601   4.084   5.575  13.574  0.0168  0.3452  0.2709
17704TIP3   OH274602   1.026   2.459  12.143 -0.0970  0.0556 -0.4937
17704TIP3    H174603   1.082   2.463  12.221 -1.9349 -0.2195  0.9050
17704TIP3    H274604   1.012   2.551  12.120  0.4389  0.1399 -0.5024
17705TIP3   OH274605   0.455   4.922   2.363  0.4579  0.6035  0.4195
17705TIP3    H174606   0.369   4.898   2.330  0.7332 -0.1184  0.2029
17705TIP3    H274607   0.511   4.923   2.285  0.4488  2.0236  0.4127
17706TIP3   OH274608   3.209   5.100   5.555  0.6917  0.1632  0.1675
17706TIP3    H174609   3.151   5.099   5.479 -0.7523  1.4714  1.1858
17706TIP3    H274610   3.267   5.025   5.542 -0.6221 -0.6456 -1.3713
17707TIP3   OH274611   4.319   3.681   2.813  0.2419 -0.1943  0.7619
17707TIP3    H174612   4.373   3.759   2.821 -1.4918  1.1064  0.5539
17707TIP3    H274613   4.368   3.623   2.755  0.4256  1.8923 -1.3301
17708TIP3   OH274614   1.605   2.276   3.525  0.3569  0.4406  0.5656
17708TIP3    H174615   1.682   2.330   3.511 -0.2115  1.6409  1.8016
17708TIP3    H274616   1.534   2.339   3.541 -0.9113 -0.6195 -0.5886
17709TIP3   OH274617   2.958   1.689   2.883 -0.0620 -0.1326  0.1718
17709TIP3    H174618   3.042   1.677   2.926  0.3082 -1.5702 -0.8880
17709TIP3    H274619   2.978   1.688   2.789 -1.1084  0.8694 -0.0945
17710TIP3   OH274620   5.589   2.366  13.257  0.3425  0.2489  0.6844
17710TIP3    H174621   5.616   2.276  13.236 -2.0266 -0.8560  2.0098
17710TIP3    H274622   5.559   2.402  13.173 -1.3891 -1.2516  0.6057
17711TIP3   OH274623   5.932   0.134   2.455  0.1678 -0.0382 -0.2307
17711TIP3    H174624   5.857   0.098   2.501  0.1844 -2.3880 -1.8140
17711TIP3    H274625   5.968   0.059   2.407  3.0415  1.1737 -0.1704
17712TIP3   OH274626   4.420   2.938   3.624 -0.7030  0.9787 -0.5023
17712TIP3    H174627   4.405   2.853   3.582  1.5876  1.1930 -1.9309
17712TIP3    H274628   4.446   2.916   3.714  0.2245  0.1091 -0.9593
17713TIP3   OH274629   1.557   4.268   1.850 -0.4894  0.1549 -0.1290
17713TIP3    H174630   1.550   4.303   1.761  0.3713 -1.3808 -0.8261
17713TIP3    H274631   1.589   4.179   1.839  0.0060  0.0569  1.7546
17714TIP3   OH274632   0.563   4.479   6.035 -0.1175  0.0065  0.0236
17714TIP3    H174633   0.499   4.466   5.965  0.6432  1.9730 -1.1261
17714TIP3    H274634   0.524   4.548   6.089  1.0470  1.3909 -0.8236
17715TIP3   OH274635   2.290   0.971  11.353 -0.3024  0.5120  0.2400
17715TIP3    H174636   2.317   0.976  11.262 -0.4254 -1.0264  0.0938
17715TIP3    H274637   2.343   1.038  11.397  0.9912  0.1382 -0.6818
17716TIP3   OH274638   6.623   3.646   1.628  0.2033  0.0131 -0.1895
17716TIP3    H174639   6.569   3.570   1.646  1.4743 -0.7436  0.5213
17716TIP3    H274640   6.581   3.687   1.552 -0.7223 -1.1564 -0.3418
17717TIP3   OH274641   4.276   2.009  10.402 -0.6102  0.3008 -0.1138
17717TIP3    H174642   4.265   2.085  10.460  3.1097  1.8473 -1.1218
17717TIP3    H274643   4.342   1.956  10.445 -0.3974 -0.3721 -1.2313
17718TIP3   OH274644   4.726   5.546  11.555  0.5330 -0.0774 -0.2548
17718TIP3    H174645   4.754   5.500  11.633  0.8550 -0.5128 -0.6220
17718TIP3    H274646   4.796   5.532  11.492  1.5327  2.4500  0.1817
17719TIP3   OH274647   4.535   0.673   1.206 -0.0008  0.6670 -0.4005
17719TIP3    H174648   4.504   0.619   1.134 -0.7780  0.4526  0.0797
17719TIP3    H274649   4.538   0.762   1.171  1.0814  0.3637 -1.1313
17720TIP3   OH274650   0.015   2.287   0.459  0.1777  0.1604  0.1745
17720TIP3    H174651   0.090   2.309   0.514 -0.9487  3.1379  0.7074
17720TIP3    H274652  -0.035   2.224   0.510  2.2531 -1.9272 -0.2129
17721TIP3   OH274653   1.877   4.864  16.559 -0.2150 -0.1416  0.0000
17721TIP3    H174654   1.816   4.865  16.485 -3.1076  0.2114  2.1992
17721TIP3    H274655   1.881   4.955  16.589 -1.4594 -0.6427  1.9310
17722TIP3   OH274656   0.477   0.689   5.097  0.5039 -0.4623  0.3764
17722TIP3    H174657   0.505   0.634   5.170  1.6810  1.4460  1.4547
17722TIP3    H274658   0.542   0.760   5.094 -1.1273  1.0865 -0.6801
17723TIP3   OH274659   3.785   0.118  16.402 -0.3005 -0.2032 -0.1244
17723TIP3    H174660   3.790   0.074  16.486 -0.9915  0.4943  0.2944
17723TIP3    H274661   3.694   0.147  16.395 -0.8480 -2.1251 -2.0813
17724TIP3   OH274662   5.861   5.693  14.272 -0.0313  0.0519 -0.1110
17724TIP3    H174663   5.948   5.713  14.307 -0.5895 -0.0438  1.3752
17724TIP3    H274664   5.816   5.778  14.270  0.2920  0.2287 -1.5588
17725TIP3   OH274665   4.606   5.722  14.952  0.2929 -0.2276 -0.2448
17725TIP3    H174666   4.564   5.802  14.917 -1.1159 -1.3986 -1.3966
17725TIP3    H274667   4.632   5.673  14.874  2.2059 -0.3998  0.4580
17726TIP3   OH274668   3.250   0.317  14.336 -0.3543  0.2960 -0.2216
17726TIP3    H174669   3.303   0.317  14.416 -0.5906  0.8524 -0.0581
17726TIP3    H274670   3.289   0.249  14.282  0.7419  0.9116 -0.2396
17727TIP3   OH274671   2.645   2.848  14.409  0.2037 -0.4038  0.5398
17727TIP3    H174672   2.586   2.821  14.480 -1.0170  0.6635 -0.0236
17727TIP3    H274673   2.689   2.926  14.443  0.7061 -0.7321  0.6532
17728TIP3   OH274674   2.654   4.513   5.558  0.1765 -0.2130  0.2306
17728TIP3    H174675   2.742   4.544   5.581 -0.3093  0.4348  1.2843
17728TIP3    H274676   2.669   4.448   5.489  1.3608  1.0469 -0.7410
17729TIP3   OH274677   4.164   0.293  14.604 -0.6158  0.0186 -0.2148
17729TIP3    H174678   4.127   0.377  14.577 -0.0079  0.6801  0.9358
17729TIP3    H274679   4.205   0.258  14.525  0.0982  1.3367 -0.4562
17730TIP3   OH274680   2.514   0.145   2.489  0.3510 -0.2436 -0.3559
17730TIP3    H174681   2.526   0.172   2.580  0.8403 -0.8782 -0.2172
17730TIP3    H274682   2.502   0.050   2.494  0.7947 -0.3382 -0.9804
17731TIP3   OH274683   6.437   4.161  14.348 -0.2500  0.1292 -0.3958
17731TIP3    H174684   6.530   4.138  14.351 -0.1618  0.5577  0.3138
17731TIP3    H274685   6.394   4.082  14.315  0.3783 -0.0307 -0.8381
17732TIP3   OH274686   4.310   4.410   1.663  0.5310 -0.3361  0.1015
17732TIP3    H174687   4.320   4.491   1.611 -0.9159 -1.1536 -1.5321
17732TIP3    H274688   4.334   4.436   1.752 -0.6987  2.1217 -0.1979
17733TIP3   OH274689   2.491   0.527  11.702  0.5795 -0.4972 -0.3249
17733TIP3    H174690   2.501   0.619  11.677 -0.2120 -0.2534  0.2364
17733TIP3    H274691   2.544   0.519  11.782  1.9469 -0.9315 -1.2409
17734TIP3   OH274692   3.598   0.741  12.598 -0.2913 -0.1162  0.4795
17734TIP3    H174693   3.581   0.656  12.555 -0.6543  0.3326 -0.2819
17734TIP3    H274694   3.685   0.731  12.636  0.4557 -0.2392 -1.1553
17735TIP3   OH274695   2.098   4.178   2.776 -0.0822  0.0256  0.8751
17735TIP3    H174696   2.171   4.145   2.723 -1.9473 -0.4272 -1.6157
17735TIP3    H274697   2.101   4.273   2.764 -0.5312 -0.0756 -0.2125
17736TIP3   OH274698   2.135   5.268   2.812  0.2206  0.0238 -0.5899
17736TIP3    H174699   2.085   5.217   2.875 -0.8452  0.4586 -1.0631
17736TIP3    H274700   2.078   5.342   2.790  0.6592 -0.0085 -1.9097
17737TIP3   OH274701   4.099   0.352  16.198 -0.1141  0.1498  0.2304
17737TIP3    H174702   4.057   0.389  16.276 -0.7527 -2.1824  1.0930
17737TIP3    H274703   4.058   0.398  16.125 -0.3000  1.6246  1.2196
17738TIP3   OH274704   1.854   2.461  10.734 -0.6558  0.1436 -0.0477
17738TIP3    H174705   1.921   2.462  10.666  1.1292  1.0215  1.6302
17738TIP3    H274706   1.882   2.394  10.796 -1.7709 -0.0234  0.3098
17739TIP3   OH274707   4.286   4.882   2.660  0.7472 -0.4174 -0.0531
17739TIP3    H174708   4.235   4.915   2.734  0.8662 -0.9358  0.2651
17739TIP3    H274709   4.327   4.959   2.623 -0.2182  0.0098 -0.2810
17740TIP3   OH274710   4.610   3.816   3.640  0.0061 -0.6509 -0.2626
17740TIP3    H174711   4.575   3.893   3.685 -0.5369 -1.1915  0.2444
17740TIP3    H274712   4.647   3.762   3.709  0.8051 -0.6445 -0.6688
17741TIP3   OH274713   2.751   4.881  14.681 -0.7328 -0.6480  0.5485
17741TIP3    H174714   2.744   4.832  14.598 -1.4450 -2.3319  1.5347
17741TIP3    H274715   2.823   4.941  14.667 -0.3371 -1.4159 -1.0486
17742TIP3   OH274716   1.794   5.518  11.712  0.2354  0.1386 -0.1374
17742TIP3    H174717   1.883   5.485  11.699  0.1732 -0.4008  0.6938
17742TIP3    H274718   1.783   5.585  11.645  0.5459 -1.1999 -1.5769
17743TIP3   OH274719   5.155   2.357  14.199  0.5125 -0.2064 -0.3851
17743TIP3    H174720   5.246   2.359  14.170  0.9268 -2.1027  0.5935
17743TIP3    H274721   5.158   2.309  14.282 -1.7965 -4.4520 -2.3923
17744TIP3   OH274722   2.668   3.123   0.409 -0.5905  0.2604  0.5845
17744TIP3    H174723   2.601   3.167   0.357 -1.5298 -0.3642  1.2538
17744TIP3    H274724   2.731   3.091   0.344 -1.1738  0.4545 -0.0862
17745TIP3   OH274725   5.441   6.555   3.487  1.0028 -0.6485  0.1465
17745TIP3    H174726   5.497   6.483   3.459  0.4972 -0.7518 -0.6018
17745TIP3    H274727   5.352   6.527   3.466  0.7290 -0.1629  0.6214
17746TIP3   OH274728   0.639   0.764  11.976 -0.0545  0.0234  0.5891
17746TIP3    H174729   0.607   0.822  12.045 -0.0499 -0.6998  1.2134
17746TIP3    H274730   0.561   0.716  11.947 -0.3912  1.5058 -1.1026
17747TIP3   OH274731   6.705   4.941   4.425  0.6378 -0.2866  0.1191
17747TIP3    H174732   6.683   4.989   4.345  1.4652  1.7961  1.0680
17747TIP3    H274733   6.638   4.873   4.432 -0.5126  0.6396 -1.3748
17748TIP3   OH274734   0.268   5.626   5.798 -0.0929  0.1033  0.0015
17748TIP3    H174735   0.295   5.542   5.834 -1.4612  0.4584  2.0387
17748TIP3    H274736   0.199   5.605   5.735  0.1108 -0.3492 -0.0726
17749TIP3   OH274737   3.217   3.771   0.491 -0.3166  0.0745 -0.4512
17749TIP3    H174738   3.151   3.754   0.424 -0.5126  0.4350 -0.3548
17749TIP3    H274739   3.301   3.763   0.445 -0.4647  1.0689 -0.9301
17750TIP3   OH274740   5.088   4.914   4.052  0.2776 -0.0496  0.0546
17750TIP3    H174741   5.063   4.964   4.129  1.0413  0.7583 -0.2032
17750TIP3    H274742   5.182   4.929   4.043  0.0620  0.6002 -1.5254
17751TIP3   OH274743   6.452   3.037   5.605  0.2375  0.0840  0.3535
17751TIP3    H174744   6.447   2.944   5.582  1.2187  0.5634 -2.0621
17751TIP3    H274745   6.399   3.081   5.540 -0.6591  1.2299  1.7937
17752TIP3   OH274746   3.097   3.780   2.322 -0.2382 -0.0517  0.0229
17752TIP3    H174747   3.074   3.861   2.278 -0.4755  0.2103  0.6097
17752TIP3    H274748   3.056   3.711   2.269 -0.6876  0.2698 -0.0528
17753TIP3   OH274749   4.400   0.731   0.824  0.1397 -0.1163  0.1311
17753TIP3    H174750   4.463   0.723   0.752 -2.8805 -0.7512 -2.6803
17753TIP3    H274751   4.408   0.649   0.872 -1.2874 -2.1067 -2.7491
17754TIP3   OH274752   1.434   0.546  11.091 -0.1579 -0.1726 -0.0683
17754TIP3    H174753   1.510   0.547  11.033 -2.3268 -1.6183 -3.3164
17754TIP3    H274754   1.405   0.454  11.090 -2.4340  0.4841  0.2606
17755TIP3   OH274755   4.353   4.788  16.603  0.2915  0.0039  0.0476
17755TIP3    H174756   4.433   4.759  16.558  0.8977 -0.2918  1.2803
17755TIP3    H274757   4.365   4.882  16.613 -0.1112  0.1679 -0.9003
17756TIP3   OH274758   4.366   5.777  14.299 -0.0535  0.5485  0.1066
17756TIP3    H174759   4.324   5.693  14.318  1.6416 -0.1035  1.1286
17756TIP3    H274760   4.303   5.822  14.242 -0.7893 -1.5986 -0.9012
17757TIP3   OH274761   1.689   6.674  14.171 -0.1519  0.0592 -0.6447
17757TIP3    H174762   1.722   6.763  14.164  0.6027 -0.2583 -1.2870
17757TIP3    H274763   1.595   6.681  14.152 -0.1832  0.7659 -0.2576
17758TIP3   OH274764   3.448   0.588   0.723 -0.0926 -0.3088 -0.6791
17758TIP3    H174765   3.510   0.622   0.658  0.6625 -0.2155  0.0794
17758TIP3    H274766   3.480   0.500   0.742 -1.0842 -0.8427 -1.4092
17759TIP3   OH274767   1.615   2.931   5.241  0.1033 -0.2102  0.3020
17759TIP3    H174768   1.616   2.915   5.147  0.4538 -0.5230  0.3578
17759TIP3    H274769   1.543   2.993   5.254  0.8242  0.7850 -0.3166
17760TIP3   OH274770   4.516   5.788   4.379  0.6830 -0.1014  0.0455
17760TIP3    H174771   4.508   5.696   4.406 -0.1817  0.4826  1.9061
17760TIP3    H274772   4.484   5.789   4.289  0.2115 -1.5500  0.1705
17761TIP3   OH274773   1.502   5.613  16.976 -0.2420  0.3392 -0.3379
17761TIP3    H174774   1.563   5.553  16.932  0.3635  1.0936 -0.5528
17761TIP3    H274775   1.433   5.556  17.010  0.0969 -0.4312 -0.9055
17762TIP3   OH274776   2.824   6.694   3.074 -0.0278 -0.1094  0.0223
17762TIP3    H174777   2.731   6.674   3.083 -0.0228 -0.4389 -0.6358
17762TIP3    H274778   2.861   6.673   3.160 -0.6988  0.8360  0.5687
17763TIP3   OH274779   3.646   5.292   2.462  0.2197 -0.2442  0.3458
17763TIP3    H174780   3.647   5.375   2.510  0.4568  0.2932 -0.5621
17763TIP3    H274781   3.575   5.303   2.398  1.0396 -0.2582 -0.5897
17764TIP3   OH274782   1.026   5.149  14.296 -0.2883  0.3522 -0.5574
17764TIP3    H174783   1.019   5.060  14.329 -0.3992  0.0878 -1.2800
17764TIP3    H274784   0.941   5.189  14.317 -0.6811 -0.0834 -1.2933
17765TIP3   OH274785   3.905   5.044  15.534  0.0978  0.0577 -0.1163
17765TIP3    H174786   3.929   5.133  15.510 -0.4478  0.7782  1.8193
17765TIP3    H274787   3.839   5.018  15.469 -0.0411  1.2061 -0.4478
17766TIP3   OH274788   2.915   1.103  16.696  0.2067 -0.4589  0.0830
17766TIP3    H174789   2.994   1.149  16.725  0.2650 -0.6218  0.1869
17766TIP3    H274790   2.867   1.168  16.644  0.6791 -0.5316 -0.4516
17767TIP3   OH274791   3.534   1.431  15.066 -0.0472  0.5451 -0.0729
17767TIP3    H174792   3.623   1.459  15.044 -0.3912  2.1810  0.4556
17767TIP3    H274793   3.535   1.336  15.053  1.2740  0.7360 -1.7559
17768TIP3   OH274794   6.264   3.157   3.856  0.0665  0.0481  0.5153
17768TIP3    H174795   6.312   3.202   3.787 -0.6270  2.0158  1.2397
17768TIP3    H274796   6.173   3.154   3.826 -0.2213  0.8200  1.2404
17769TIP3   OH274797   6.483   4.577   3.183  0.5667 -0.0406  0.3262
17769TIP3    H174798   6.470   4.489   3.218  1.9048 -0.2812  0.2654
17769TIP3    H274799   6.521   4.564   3.097 -1.7645  0.5739 -0.8886
17770TIP3   OH274800   6.069   4.973   2.392  0.2482  0.3241  0.0984
17770TIP3    H174801   6.140   5.037   2.392  1.6096 -1.1167 -0.3448
17770TIP3    H274802   6.101   4.901   2.339 -0.7593 -1.2306  1.4830
17771TIP3   OH274803   2.556   3.900  13.296 -0.0864  0.0986  0.4028
17771TIP3    H174804   2.634   3.954  13.299 -0.8444  1.5572 -2.4062
17771TIP3    H274805   2.585   3.814  13.326  2.6708  0.5406 -0.7185
17772TIP3   OH274806   2.246   2.872  15.377 -0.2940 -0.2705 -0.3404
17772TIP3    H174807   2.238   2.777  15.376  0.0511 -0.3726  1.8062
17772TIP3    H274808   2.171   2.903  15.327 -0.0755 -1.6625 -1.5835
17773TIP3   OH274809   3.305   3.154   2.796 -0.4020 -0.3843  0.0954
17773TIP3    H174810   3.289   3.061   2.782  0.2698 -0.3888 -0.7511
17773TIP3    H274811   3.263   3.173   2.880 -1.0429 -1.3142  0.0070
17774TIP3   OH274812   5.639   0.756  13.539  0.4225 -0.2394 -0.6244
17774TIP3    H174813   5.684   0.819  13.483  0.4713 -0.3074 -0.6619
17774TIP3    H274814   5.628   0.678  13.484 -2.2101  0.6837 -1.5744
17775TIP3   OH274815   2.036   2.683  11.407  0.8775  0.3239 -0.0334
17775TIP3    H174816   2.017   2.653  11.318  1.1267 -1.2296  0.4131
17775TIP3    H274817   2.105   2.625  11.437 -0.1785 -0.0949  1.6888
17776TIP3   OH274818   4.523   5.020  15.149 -0.0648 -0.2778 -0.1555
17776TIP3    H174819   4.543   4.973  15.230 -1.1385  0.1626  0.3841
17776TIP3    H274820   4.433   5.050  15.160 -0.0471  0.2501 -1.2974
17777TIP3   OH274821   3.374   0.532   3.822  0.6933 -0.0210  0.2606
17777TIP3    H174822   3.367   0.603   3.886  0.2328 -0.2373  0.4539
17777TIP3    H274823   3.452   0.483   3.849  0.5159 -0.0950  0.6405
17778TIP3   OH274824   2.246   4.006  10.400  0.3003  0.2812  0.2784
17778TIP3    H174825   2.317   4.066  10.377  1.8188 -1.6085 -0.3026
17778TIP3    H274826   2.258   3.931  10.341 -0.1509 -1.5293  2.3240
17779TIP3   OH274827   1.641   1.290   3.424  0.5666  0.2354 -0.6724
17779TIP3    H174828   1.681   1.277   3.338  0.8913 -0.0414 -0.4781
17779TIP3    H274829   1.707   1.261   3.487 -0.9877 -3.2083 -0.4081
17780TIP3   OH274830   5.726   4.966  12.401 -0.7398  0.0722 -0.0028
17780TIP3    H174831   5.652   4.919  12.439 -1.6001  0.6823 -0.8880
17780TIP3    H274832   5.698   4.989  12.313  1.4546 -1.9219 -1.3654
17781TIP3   OH274833   4.917   3.307  15.274 -0.3241  0.3286  0.1718
17781TIP3    H174834   4.910   3.346  15.187  0.6425  0.4811  0.1439
17781TIP3    H274835   5.009   3.279  15.281 -0.9013 -1.7409  0.2814
17782TIP3   OH274836   1.494   1.639   1.285  0.8800  0.2556 -0.6951
17782TIP3    H174837   1.492   1.733   1.303 -0.2600  0.6557 -2.6361
17782TIP3    H274838   1.403   1.616   1.268  0.9696 -1.4789  0.8379
17783TIP3   OH274839   6.110   3.511  16.326  0.2999 -0.3130  0.0200
17783TIP3    H174840   6.147   3.595  16.296 -1.1073  0.3347  0.0270
17783TIP3    H274841   6.045   3.535  16.391 -0.6075 -1.3609 -0.4611
17784TIP3   OH274842   5.681   0.742   2.443 -0.3942  0.4189 -0.1000
17784TIP3    H174843   5.673   0.837   2.437 -1.6088  0.3273 -0.2969
17784TIP3    H274844   5.594   0.709   2.418 -0.5087 -0.6778  1.5825
17785TIP3   OH274845   0.303   5.242  12.396 -0.4731  0.1619 -0.5197
17785TIP3    H174846   0.385   5.245  12.446  0.2726  2.6446 -1.7300
17785TIP3    H274847   0.308   5.160  12.346  1.2255  0.2219 -0.5000
17786TIP3   OH274848   5.931   3.373   2.890 -0.5764 -0.0551  0.1307
17786TIP3    H174849   5.853   3.325   2.919  0.3673 -0.0469  3.0063
17786TIP3    H274850   5.981   3.308   2.840 -0.4084 -1.4751  2.0035
17787TIP3   OH274851   3.146   2.096   4.423  0.0685  0.0213 -0.0280
17787TIP3    H174852   3.101   2.024   4.378 -0.2525 -1.0371  1.8486
17787TIP3    H274853   3.207   2.051   4.482  1.4837  1.3762 -0.4166
17788TIP3   OH274854   4.300   0.955  13.678  0.3728  0.3306 -0.2569
17788TIP3    H174855   4.265   0.940  13.766  2.7816 -1.0000  0.5873
17788TIP3    H274856   4.239   0.910  13.620 -0.0315 -0.7660  0.9681
17789TIP3   OH274857   1.871   4.567  13.365  0.4275 -0.3176 -1.0247
17789TIP3    H174858   1.877   4.653  13.323 -2.3122  0.9527  0.9116
17789TIP3    H274859   1.794   4.525  13.325 -2.4004  1.0204  2.5039
17790TIP3   OH274860   1.998   3.762   1.885  0.0459 -0.5093 -0.0637
17790TIP3    H174861   1.930   3.763   1.817  0.9662  0.1948 -1.0073
17790TIP3    H274862   2.035   3.850   1.883 -0.8414 -0.0113  2.3629
17791TIP3   OH274863   2.731   6.482  16.429  0.5061  0.6203 -0.3980
17791TIP3    H174864   2.750   6.497  16.522  4.3124 -0.4828 -0.8226
17791TIP3    H274865   2.664   6.413  16.430 -0.3146  1.3640  1.4741
17792TIP3   OH274866   6.167   4.161   2.550 -0.2313  0.5089 -0.2753
17792TIP3    H174867   6.191   4.195   2.464 -3.5653  1.0291 -1.1669
17792TIP3    H274868   6.189   4.232   2.611  1.3719  0.4811 -0.7791
17793TIP3   OH274869   5.451   6.638   1.206 -0.0820  0.4245  0.1519
17793TIP3    H174870   5.460   6.692   1.127 -0.9256  0.1752 -0.1291
17793TIP3    H274871   5.504   6.683   1.272 -0.6276  1.5092 -0.1224
17794TIP3   OH274872   5.211   3.461  13.874 -0.6787 -0.2039 -0.6268
17794TIP3    H174873   5.195   3.529  13.809  1.7161  1.6692  0.5584
17794TIP3    H274874   5.128   3.450  13.920 -0.9749  2.4868 -0.3949
17795TIP3   OH274875   2.184   3.256   3.831 -0.3626  0.1789 -0.0119
17795TIP3    H174876   2.106   3.280   3.880  0.3423  1.8645  0.3688
17795TIP3    H274877   2.219   3.340   3.801  0.6208 -0.6379 -1.2362
17796TIP3   OH274878   3.053   4.876   2.197  0.1136 -0.4480  0.1954
17796TIP3    H174879   3.117   4.902   2.263  0.0848 -0.5640  0.2700
17796TIP3    H274880   2.991   4.821   2.245  0.1844 -0.6684  0.0360
17797TIP3   OH274881   3.053   2.531  12.452  0.7340 -0.0619 -0.0851
17797TIP3    H174882   3.056   2.608  12.394  0.7409 -0.7167 -0.9693
17797TIP3    H274883   2.981   2.550  12.512  0.6658  0.5903 -0.3629
17798TIP3   OH274884   3.454   0.960  14.797  0.3504  0.1736  0.1517
17798TIP3    H174885   3.437   1.054  14.798 -0.6432  0.0007  0.5895
17798TIP3    H274886   3.515   0.948  14.724 -1.2266  0.8747 -1.3822
17799TIP3   OH274887   1.766   4.144  15.711 -0.1059  0.2056  0.3130
17799TIP3    H174888   1.692   4.201  15.730  0.6879  0.9775  1.2285
17799TIP3    H274889   1.744   4.061  15.754  0.4366  1.0837  2.4579
17800TIP3   OH274890   1.979   1.264  13.349  0.3109 -0.3229  0.2039
17800TIP3    H174891   1.909   1.268  13.284 -0.3111 -1.9061  0.7438
17800TIP3    H274892   2.000   1.171  13.356  0.7739 -0.1218  1.8209
17801TIP3   OH274893   1.956   3.927  13.244  0.3029  1.0689  0.5100
17801TIP3    H174894   1.954   3.911  13.149  0.3584  2.7630  0.1932
17801TIP3    H274895   2.039   3.973  13.259 -0.3736  2.1442  1.1245
17802TIP3   OH274896   0.157   3.224   0.264  0.1758  0.2027  0.2324
17802TIP3    H174897   0.096   3.155   0.288 -0.6748  1.3733  1.6482
17802TIP3    H274898   0.235   3.208   0.316  0.2075 -0.0144  0.1179
17803TIP3   OH274899   6.323   3.925   5.562 -0.0137 -0.1048 -0.2571
17803TIP3    H174900   6.258   3.921   5.632  0.0690  2.3523  0.0247
17803TIP3    H274901   6.397   3.974   5.599  0.3274  0.6411 -1.8239
17804TIP3   OH274902   0.858   0.958   1.514 -0.3075  0.2601 -0.1647
17804TIP3    H174903   0.935   0.918   1.555  0.0769  0.3555 -0.7735
17804TIP3    H274904   0.797   0.885   1.502 -1.6234  0.6629  3.1135
17805TIP3   OH274905   3.295   2.827   1.320 -0.6473 -0.0051 -0.3243
17805TIP3    H174906   3.286   2.829   1.225 -0.8859  2.0698 -0.3055
17805TIP3    H274907   3.215   2.786   1.351 -0.0230 -1.8740 -1.0187
17806TIP3   OH274908   5.786   4.028  13.865  0.3755 -0.7169  0.2265
17806TIP3    H174909   5.696   4.011  13.894  0.5833 -0.9234  0.7633
17806TIP3    H274910   5.830   3.943  13.870  0.7506 -0.5120  0.5269
17807TIP3   OH274911   3.788   1.650   2.995  0.0074  0.6283  0.7848
17807TIP3    H174912   3.841   1.730   3.000  0.8442  0.1050  0.4901
17807TIP3    H274913   3.739   1.660   2.913  1.3404  0.1262 -0.1219
17808TIP3   OH274914   2.333   6.690  14.867  0.5741 -0.5424 -0.8009
17808TIP3    H174915   2.377   6.766  14.829 -1.0162  0.4833 -0.6727
17808TIP3    H274916   2.325   6.628  14.794  0.3285  0.1424 -1.3731
17809TIP3   OH274917   1.229   3.920   2.510  0.1038 -0.0242 -0.2229
17809TIP3    H174918   1.161   3.911   2.578  1.3751 -0.8927  0.9878
17809TIP3    H274919   1.194   3.871   2.436 -1.0779  0.4861 -0.0422
17810TIP3   OH274920   5.524   0.418   5.028 -0.2970 -0.2072 -0.2389
17810TIP3    H174921   5.515   0.325   5.049  2.0460 -0.7401 -1.2665
17810TIP3    H274922   5.551   0.458   5.111  1.5712 -0.9981 -0.4221
17811TIP3   OH274923   2.460   2.821   1.096 -0.1614  0.2876 -0.2750
17811TIP3    H174924   2.426   2.910   1.106 -1.2663 -0.0372 -0.9196
17811TIP3    H274925   2.524   2.828   1.024 -1.2262  0.3366 -1.2488
17812TIP3   OH274926   4.811   0.914  15.731 -0.3244  0.4238 -0.6128
17812TIP3    H174927   4.720   0.940  15.748 -0.4620 -1.3797  1.9384
17812TIP3    H274928   4.805   0.832  15.682 -0.3105 -1.5872  2.4652
17813TIP3   OH274929   5.475   1.232  14.410 -0.7185 -0.1872  0.4107
17813TIP3    H174930   5.449   1.285  14.334 -0.7973  0.6983  1.0323
17813TIP3    H274931   5.401   1.172  14.423 -0.6679 -0.4007 -0.2573
17814TIP3   OH274932   3.909   4.595  11.302 -0.2579 -0.2028 -0.0280
17814TIP3    H174933   3.988   4.641  11.331 -0.2113  0.6751 -1.4286
17814TIP3    H274934   3.931   4.502  11.311  0.1058  0.0161  1.6739
17815TIP3   OH274935   6.285   6.062   5.550 -0.2084 -0.9728  0.8161
17815TIP3    H174936   6.269   6.048   5.643  1.3252  0.2288  1.3090
17815TIP3    H274937   6.208   6.108   5.519 -0.6300 -1.1642  1.5494
17816TIP3   OH274938   6.478   0.386   4.478  0.0159 -0.7016 -0.2324
17816TIP3    H174939   6.538   0.400   4.551 -0.7900  0.0086  0.3263
17816TIP3    H274940   6.492   0.462   4.421  0.9648 -1.4794 -1.0717
17817TIP3   OH274941   4.350   4.609  16.838  0.2657  0.6177  0.3565
17817TIP3    H174942   4.256   4.594  16.830  0.5329 -0.5006 -1.0555
17817TIP3    H274943   4.371   4.667  16.765  0.8706 -0.2087 -0.1398
17818TIP3   OH274944   5.370   3.836   2.440 -0.3912  0.3507  0.0831
17818TIP3    H174945   5.437   3.778   2.476 -0.4486  0.6889  0.7660
17818TIP3    H274946   5.287   3.791   2.457 -0.4624  0.7724  0.9318
17819TIP3   OH274947   0.529   1.739   5.220  0.6513 -0.0691 -0.4047
17819TIP3    H174948   0.576   1.821   5.203  0.3442  0.2296  0.1400
17819TIP3    H274949   0.450   1.745   5.165 -0.0249  0.6074  0.5979
17820TIP3   OH274950   1.960   0.425  13.847 -0.1448 -0.0586  0.5878
17820TIP3    H174951   1.917   0.471  13.775 -1.6793 -0.1991  1.3537
17820TIP3    H274952   2.013   0.491  13.890 -0.6716  0.4761  0.4252
17821TIP3   OH274953   5.702   0.787   3.434 -0.0933  0.0778  0.2305
17821TIP3    H174954   5.729   0.778   3.526  0.2835  0.0045  0.1159
17821TIP3    H274955   5.610   0.812   3.439  0.4985  2.4139  0.6854
17822TIP3   OH274956   0.055   5.596  16.168 -0.4592  0.1508  0.4831
17822TIP3    H174957   0.104   5.515  16.175  0.7042  0.8667  0.8661
17822TIP3    H274958   0.070   5.626  16.078 -2.2837 -0.8886 -0.2223
17823TIP3   OH274959   3.662   5.130   5.663  0.4157 -0.3231 -0.4393
17823TIP3    H174960   3.675   5.151   5.755 -1.6396  0.1026 -0.1866
17823TIP3    H274961   3.619   5.207   5.626  0.3687 -0.8480 -1.5345
17824TIP3   OH274962   5.209   0.025  15.227  0.7756  0.0883  0.3955
17824TIP3    H174963   5.172   0.109  15.200  0.0924 -0.3682 -0.1233
17824TIP3    H274964   5.228  -0.021  15.145 -0.4475 -0.9369  0.6527
17825TIP3   OH274965   1.514   5.367  16.303 -0.4382  0.0364 -0.5353
17825TIP3    H174966   1.579   5.312  16.259 -0.5508  0.4588 -1.2486
17825TIP3    H274967   1.505   5.329  16.390 -0.3029 -0.8933 -0.9185
17826TIP3   OH274968   2.433   1.616  14.449 -0.2097 -0.5237  0.4934
17826TIP3    H174969   2.505   1.557  14.472  1.5186  0.5982 -1.5584
17826TIP3    H274970   2.476   1.701  14.435 -1.6076 -0.1744 -2.4124
17827TIP3   OH274971   2.349   3.818   5.371 -0.4519  0.0529 -0.0138
17827TIP3    H174972   2.339   3.888   5.307 -0.7404  0.6468  0.6677
17827TIP3    H274973   2.407   3.755   5.329 -0.2592  0.6585 -0.6676
17828TIP3   OH274974   4.811   1.421   3.658  0.1382 -0.3285  0.2357
17828TIP3    H174975   4.743   1.364   3.695  0.0113 -1.0930 -1.0822
17828TIP3    H274976   4.796   1.506   3.699 -1.0864 -0.7011  0.6149
17829TIP3   OH274977   5.297   6.410   1.815  0.0617 -0.5352  0.3024
17829TIP3    H174978   5.223   6.424   1.874  1.1225 -1.0265  1.8087
17829TIP3    H274979   5.370   6.453   1.858  1.5499 -3.3990  0.9025
17830TIP3   OH274980   4.633   0.230  13.102 -0.6142  0.0400  0.1348
17830TIP3    H174981   4.615   0.183  13.020  0.9188  0.4971 -0.4965
17830TIP3    H274982   4.700   0.177  13.146 -0.7206  0.3149  0.6308
17831TIP3   OH274983   3.250   2.093   4.043  0.0313 -0.2681  0.6370
17831TIP3    H174984   3.228   2.111   3.952  2.7822 -0.4761 -0.1677
17831TIP3    H274985   3.255   2.179   4.084  2.2440  0.1614 -0.3813
17832TIP3   OH274986   4.378   0.652  13.821 -0.1971 -0.4169 -0.4419
17832TIP3    H174987   4.386   0.597  13.899  0.1721  1.8513  1.2361
17832TIP3    H274988   4.284   0.669  13.814 -0.0165  1.9399  1.5373
17833TIP3   OH274989   2.518   2.351  16.638 -0.0201 -0.3869  0.2164
17833TIP3    H174990   2.431   2.341  16.677  0.6222 -2.7944  1.1925
17833TIP3    H274991   2.576   2.364  16.713  0.5162  1.1931 -0.4256
17834TIP3   OH274992   6.382   5.134  12.767  0.2522 -0.0038 -0.5530
17834TIP3    H174993   6.360   5.092  12.850 -0.9177 -1.8577 -1.7285
17834TIP3    H274994   6.472   5.107  12.749  0.6778  0.7762  0.2727
17835TIP3   OH274995   4.934   6.260   2.166  0.5512  0.4997 -0.7156
17835TIP3    H174996   4.958   6.241   2.257 -1.9212 -1.1807 -0.3186
17835TIP3    H274997   4.999   6.212   2.114  0.9502  0.0145  0.1996
17836TIP3   OH274998   4.869   0.459  15.264 -0.1677 -0.3049  0.3669
17836TIP3    H174999   4.956   0.424  15.282 -0.7834 -1.6193  0.8990
17836TIP3    H275000   4.824   0.389  15.217 -1.7842 -0.7153  2.3923
17837TIP3   OH275001   2.212   5.390  11.421 -0.4339 -0.3352  0.4361
17837TIP3    H175002   2.250   5.477  11.431  0.7981 -0.8985  0.8923
17837TIP3    H275003   2.285   5.335  11.390 -1.1627 -1.2183  0.2387
17838TIP3   OH275004   1.748   4.923  15.074 -0.4485 -0.0424 -0.0043
17838TIP3    H175005   1.685   4.861  15.109 -0.1300  0.1768  0.9848
17838TIP3    H275006   1.740   4.914  14.979 -1.0086 -0.9726  0.1194
17839TIP3   OH275007   2.963   1.217  11.641  0.1639 -0.0651  0.0081
17839TIP3    H175008   2.943   1.128  11.670 -0.7975  0.2911  0.5229
17839TIP3    H275009   2.953   1.215  11.546  0.3900 -0.5618 -0.0074
17840TIP3   OH275010   2.570   0.990   4.049  0.9401 -1.0701  0.2865
17840TIP3    H175011   2.485   1.033   4.052  1.8048  0.9842 -1.6767
17840TIP3    H275012   2.550   0.900   4.022 -0.5659 -0.2102 -1.7691
17841TIP3   OH275013   0.475   0.490   0.597  0.7677  0.3651 -0.3716
17841TIP3    H175014   0.404   0.508   0.536  0.6413  0.5037 -0.1847
17841TIP3    H275015   0.492   0.397   0.588  0.1056  0.1903  0.0715
17842TIP3   OH275016   2.199   2.957  14.561  0.1145 -0.7964 -0.5266
17842TIP3    H175017   2.228   2.997  14.479  0.5159 -0.6252 -0.3050
17842TIP3    H275018   2.169   2.870  14.536  0.5021 -0.8481 -0.8137
17843TIP3   OH275019   5.740   0.235  17.178  0.0347 -0.4273 -0.5701
17843TIP3    H175020   5.659   0.273  17.210  1.0937  0.7447  0.8703
17843TIP3    H275021   5.727   0.226  17.083 -2.3532 -1.8425 -0.1814
17844TIP3   OH275022   0.531   1.183   2.311  0.1778 -0.0218  0.8344
17844TIP3    H175023   0.468   1.148   2.248  1.0422 -0.2033  0.0562
17844TIP3    H275024   0.566   1.106   2.356 -0.3175  0.0964  1.4498
17845TIP3   OH275025   1.890   4.132  15.143 -0.2525  0.0827 -0.3648
17845TIP3    H175026   1.864   4.120  15.234 -0.1324  2.4078  0.0244
17845TIP3    H275027   1.970   4.185  15.147 -0.5025  0.6199 -1.8197
17846TIP3   OH275028   5.041   5.709   2.278 -0.0705  0.0926  0.6421
17846TIP3    H175029   5.000   5.771   2.338 -0.5980 -1.3028  1.8039
17846TIP3    H275030   5.118   5.678   2.324 -0.0256 -0.3933  0.2527
17847TIP3   OH275031   4.678   4.100  13.091  0.3740  0.5715 -0.6311
17847TIP3    H175032   4.611   4.043  13.054 -0.0771  1.6327 -1.4926
17847TIP3    H275033   4.670   4.088  13.186  0.5919 -1.1142 -0.7907
17848TIP3   OH275034   2.783   2.927   1.220  0.1880  0.0874  0.4401
17848TIP3    H175035   2.709   2.925   1.280 -0.7349 -0.2187 -0.6640
17848TIP3    H275036   2.857   2.894   1.271 -1.3233 -3.8547  0.4428
17849TIP3   OH275037   2.726   3.675  14.935  0.3692 -0.7270  0.1483
17849TIP3    H175038   2.698   3.680  15.027 -0.1012 -3.4350  0.2360
17849TIP3    H275039   2.648   3.697  14.885 -0.5944 -3.2132  0.4318
17850TIP3   OH275040   5.552   1.079   1.123 -0.4177 -0.5405 -0.4391
17850TIP3    H175041   5.557   1.069   1.028  0.3673  0.0631 -0.4620
17850TIP3    H275042   5.593   0.999   1.158 -2.1021 -1.5218 -0.5733
17851TIP3   OH275043   1.559   5.954   5.091  0.2586 -0.4411  0.2086
17851TIP3    H175044   1.620   5.978   5.160  0.2509 -0.8458  0.3579
17851TIP3    H275045   1.514   6.036   5.069 -0.1895 -0.4295  1.1188
17852TIP3   OH275046   3.522   0.391   5.340 -0.6925 -0.3071  0.6382
17852TIP3    H175047   3.427   0.398   5.332 -0.5140  0.7129 -1.1591
17852TIP3    H275048   3.544   0.447   5.414 -1.3204  1.4217 -0.4164
17853TIP3   OH275049   4.042   1.909  13.988 -0.1674 -0.1658  0.7055
17853TIP3    H175050   4.121   1.908  14.041  0.1943  0.7999  0.2180
17853TIP3    H275051   3.979   1.960  14.039 -0.4933 -0.9836  1.1198
17854TIP3   OH275052   3.164   2.631   0.224 -0.4073 -0.3102  0.4705
17854TIP3    H175053   3.195   2.577   0.151  1.5915 -0.7305  1.5770
17854TIP3    H275054   3.161   2.720   0.188 -0.8992 -0.7069 -0.5231
17855TIP3   OH275055   4.985   0.550   1.334 -0.0815  0.5430 -0.1366
17855TIP3    H175056   4.919   0.499   1.381  1.2352 -1.2536 -0.1153
17855TIP3    H275057   4.949   0.561   1.246  0.0996 -1.6055 -0.5427
17856TIP3   OH275058   3.706   5.208   3.647  0.6721  0.4156  0.0269
17856TIP3    H175059   3.791   5.165   3.634  0.6734  0.5791 -0.5328
17856TIP3    H275060   3.695   5.211   3.742  1.6256  1.0341  0.1346
17857TIP3   OH275061   5.671   0.010  16.644  0.6746  0.4870 -0.5745
17857TIP3    H175062   5.674  -0.085  16.646  0.7121  0.4981  0.0079
17857TIP3    H275063   5.759   0.038  16.669  0.0714  0.6807  1.5429
17858TIP3   OH275064   3.746   6.518   3.066 -0.0379 -0.2915 -0.2889
17858TIP3    H175065   3.791   6.435   3.052  1.2152  0.4315 -0.6864
17858TIP3    H275066   3.794   6.560   3.137  0.2824  0.7373 -1.0857
17859TIP3   OH275067   2.098   4.005   5.359  0.2334  0.2152  0.3769
17859TIP3    H175068   2.025   4.043   5.409 -0.0623  1.8835 -1.1712
17859TIP3    H275069   2.114   3.920   5.400 -0.7420  0.9736  2.5063
17860TIP3   OH275070   1.638   6.257   0.282  0.4777 -0.3021 -0.0357
17860TIP3    H175071   1.612   6.347   0.304  0.2592  0.0530 -1.5834
17860TIP3    H275072   1.561   6.204   0.305  0.5162 -0.0573  0.6648
17861TIP3   OH275073   0.006   1.156  14.727  0.3307 -0.1308 -0.0226
17861TIP3    H175074   0.058   1.090  14.681  0.5112  0.4747 -0.7152
17861TIP3    H275075  -0.083   1.121  14.728  0.1976  0.0946 -1.3938
17862TIP3   OH275076   3.665   4.226   6.100  0.3636  0.1788  0.0778
17862TIP3    H175077   3.584   4.254   6.058 -0.0578 -0.7706  0.2170
17862TIP3    H275078   3.687   4.297   6.161 -0.7485  0.1434  0.5423
17863TIP3   OH275079   1.908   2.623   2.012  0.4164  0.2089  0.2483
17863TIP3    H175080   1.986   2.631   2.067 -0.0329  0.8614  0.8057
17863TIP3    H275081   1.925   2.546   1.958  1.1216 -0.1109  0.9009
17864TIP3   OH275082   4.405   0.177   1.811  0.2095 -0.1386 -0.3492
17864TIP3    H175083   4.395   0.223   1.894  0.0377  0.6607 -0.7989
17864TIP3    H275084   4.482   0.217   1.770 -0.0895 -0.0649 -0.8542
17865TIP3   OH275085   3.649   4.802  13.303  0.0940 -0.3442  0.2669
17865TIP3    H175086   3.719   4.808  13.367  2.7257  0.0904 -2.4562
17865TIP3    H275087   3.649   4.710  13.275  2.2185  0.3184 -2.3169
17866TIP3   OH275088   1.160   0.095  12.722 -0.5071 -0.5662  0.0130
17866TIP3    H175089   1.140   0.118  12.813 -2.3332 -1.2471 -0.1756
17866TIP3    H275090   1.246   0.053  12.726 -0.0639  0.4052  1.2529
17867TIP3   OH275091   2.668   3.082  11.724  0.1846 -0.4245  0.3397
17867TIP3    H175092   2.620   3.064  11.805 -0.6398  0.6224  0.1110
17867TIP3    H275093   2.759   3.095  11.752 -0.0608 -0.2581  1.0718
17868TIP3   OH275094   5.808   0.623  14.575 -0.1677  0.5757  0.6244
17868TIP3    H175095   5.879   0.665  14.526  0.1976  0.0880  0.7224
17868TIP3    H275096   5.851   0.583  14.650 -0.6419  0.8093  1.0250
17869TIP3   OH275097   5.752   4.685   2.522 -0.0066  0.2287  0.2539
17869TIP3    H175098   5.844   4.664   2.504 -0.2009 -0.9431  0.5174
17869TIP3    H275099   5.731   4.756   2.462  0.0548 -1.9079 -2.5245
17870TIP3   OH275100   5.466   1.745   0.431  0.2272 -0.0346 -0.1615
17870TIP3    H175101   5.405   1.746   0.358  0.8324 -2.1499 -0.7661
17870TIP3    H275102   5.552   1.752   0.391  0.4835  1.6141  0.5924
17871TIP3   OH275103   5.282   4.893  15.934 -0.1714  0.0883 -0.3772
17871TIP3    H175104   5.373   4.912  15.956 -0.5715  0.2945  1.2150
17871TIP3    H275105   5.248   4.976  15.900  0.3581 -0.1363 -1.5089
17872TIP3   OH275106   3.639   4.011   1.638 -0.6863 -0.0027  0.3106
17872TIP3    H175107   3.666   4.102   1.627 -1.7338  0.2622 -0.1616
17872TIP3    H275108   3.579   3.995   1.565  0.0426 -1.3002 -0.0440
17873TIP3   OH275109   1.801   3.985   3.944  0.1641  0.3568  0.3298
17873TIP3    H175110   1.756   4.022   3.868 -0.0139 -0.9237 -0.2127
17873TIP3    H275111   1.732   3.942   3.994  0.4990 -0.0766  0.4266
17874TIP3   OH275112   4.224   5.868  15.997 -0.2478 -0.1040  0.1936
17874TIP3    H175113   4.188   5.779  15.987  0.7500 -0.4664 -0.3005
17874TIP3    H275114   4.251   5.892  15.909 -0.1924  0.5658  0.3906
17875TIP3   OH275115   2.891   6.046   1.931  0.6283 -0.0682 -0.1550
17875TIP3    H175116   2.856   6.129   1.962  0.4415  0.0253 -0.6186
17875TIP3    H275117   2.845   5.980   1.983 -1.2688 -0.0355 -1.6736
17876TIP3   OH275118   3.668   2.402   1.159 -0.2250 -0.0489  0.4099
17876TIP3    H175119   3.629   2.479   1.200  0.6387  1.4095 -1.4075
17876TIP3    H275120   3.760   2.407   1.183  0.2729  0.7714 -1.5405
17877TIP3   OH275121   5.292   0.413  12.934 -0.3186  0.0160 -0.2680
17877TIP3    H175122   5.283   0.470  13.011  0.4349 -0.2005 -0.0117
17877TIP3    H275123   5.210   0.363  12.932 -0.6861  0.5902 -0.0842
17878TIP3   OH275124   5.923   3.960  14.418  0.6034 -0.0393  0.3612
17878TIP3    H175125   5.841   3.985  14.376  0.3976 -1.6842 -0.2834
17878TIP3    H275126   5.990   4.010  14.371  0.0692  0.5575  0.2209
17879TIP3   OH275127   0.301   4.046  16.469 -0.1853 -0.1156 -0.1956
17879TIP3    H175128   0.261   4.117  16.419  2.3709  0.5519 -1.4880
17879TIP3    H275129   0.301   4.076  16.560  1.8106  2.1578 -0.8434
17880TIP3   OH275130   0.866   2.773  13.884 -0.3040  0.0786 -0.4203
17880TIP3    H175131   0.780   2.798  13.917  0.2890  0.6415  0.7665
17880TIP3    H275132   0.874   2.818  13.800 -0.5979  1.2341  0.1499
17881TIP3   OH275133   6.807   2.603  17.166 -0.1036 -0.4390  0.3809
17881TIP3    H175134   6.846   2.614  17.253 -1.3115  0.1720  0.8671
17881TIP3    H275135   6.809   2.509  17.151 -0.1444 -0.5800  1.1945
17882TIP3   OH275136   2.967   2.327   1.272 -0.1650 -0.0668  0.4279
17882TIP3    H175137   2.995   2.405   1.225  0.9224 -1.1105 -0.7073
17882TIP3    H275138   2.966   2.354   1.364 -2.8257  2.1653 -0.1152
17883TIP3   OH275139   4.593   5.495   4.463 -0.3686  0.1329 -0.6855
17883TIP3    H175140   4.641   5.500   4.380 -0.1440  2.0169 -0.4893
17883TIP3    H275141   4.652   5.535   4.527 -0.9088 -0.4596  0.1991
17884TIP3   OH275142   2.225   0.728  10.618  0.1317  0.0766  0.1297
17884TIP3    H175143   2.265   0.808  10.653 -0.2433  0.3599 -0.0802
17884TIP3    H275144   2.225   0.740  10.523  0.6921 -0.4747  0.0492
17885TIP3   OH275145   5.645   6.558   1.702 -1.0522 -0.0608 -0.5062
17885TIP3    H175146   5.661   6.651   1.685 -0.5939 -0.1988 -0.8150
17885TIP3    H275147   5.720   6.513   1.664 -0.2186 -0.4116  1.4355
17886TIP3   OH275148   0.604   1.818  14.518  0.0950  0.1677 -0.0683
17886TIP3    H175149   0.620   1.904  14.479  0.1499  0.0272 -0.3625
17886TIP3    H275150   0.615   1.757  14.445 -1.4177  0.0285 -0.2147
17887TIP3   OH275151   0.590   0.623  12.223 -0.3600 -0.0228 -0.1394
17887TIP3    H175152   0.498   0.649  12.228  0.1799  2.1637 -0.5904
17887TIP3    H275153   0.618   0.649  12.136  1.3882  2.0363  0.9401
17888TIP3   OH275154   6.441   5.502  12.648 -0.2580 -0.1451 -0.1364
17888TIP3    H175155   6.526   5.483  12.607 -0.0812  2.3267 -1.1090
17888TIP3    H275156   6.463   5.530  12.737 -0.0958 -0.0873 -0.1938
17889TIP3   OH275157   2.188   3.048   2.327 -0.3827  0.4158 -0.0672
17889TIP3    H175158   2.098   3.050   2.296 -0.1242  1.0669 -0.8282
17889TIP3    H275159   2.205   3.138   2.356  0.7530  0.9292 -2.1585
17890TIP3   OH275160   5.520   3.913   2.219  0.4891  0.4579 -0.0053
17890TIP3    H175161   5.491   3.987   2.165  1.2005  0.1619 -0.8269
17890TIP3    H275162   5.449   3.900   2.282 -0.2501  0.9989 -0.6984
17891TIP3   OH275163   2.175   1.445   4.764 -0.4389 -0.6409 -0.5148
17891TIP3    H175164   2.093   1.400   4.742  0.2194 -1.4367 -1.4334
17891TIP3    H275165   2.208   1.476   4.680  1.7372 -3.0208 -0.6495
17892TIP3   OH275166   0.560   3.166  13.343 -0.0788  0.1395  0.7489
17892TIP3    H175167   0.643   3.129  13.373 -0.0015 -0.2382  0.0736
17892TIP3    H275168   0.517   3.095  13.297 -0.7170  0.3773  0.9730
17893TIP3   OH275169   6.690   2.740   2.341 -0.2068 -0.6604  0.0956
17893TIP3    H175170   6.783   2.742   2.321  0.3286 -1.0189  2.2499
17893TIP3    H275171   6.655   2.668   2.289  1.0301 -1.4956  0.3810
17894TIP3   OH275172   4.448   6.370  15.864 -0.4861  0.6169  0.2147
17894TIP3    H175173   4.523   6.327  15.823 -1.8087  0.8236 -2.6758
17894TIP3    H275174   4.486   6.443  15.913  1.3094 -0.3852  0.4068
17895TIP3   OH275175   4.697   0.247  14.802 -0.2216 -0.3363 -0.3575
17895TIP3    H175176   4.792   0.242  14.815 -0.3885 -1.1240  0.7602
17895TIP3    H275177   4.665   0.290  14.881 -0.8301 -0.4554 -0.5353
17896TIP3   OH275178   1.336   2.636  13.451 -0.4037 -0.6548  0.2192
17896TIP3    H175179   1.393   2.609  13.523  2.3961  2.6225 -0.4630
17896TIP3    H275180   1.396   2.654  13.379 -2.6169  0.5110 -1.4489
17897TIP3   OH275181   1.603   1.595  13.289  0.2393 -1.0885 -0.0679
17897TIP3    H175182   1.553   1.518  13.315 -0.7280 -0.5054 -0.1480
17897TIP3    H275183   1.643   1.626  13.370 -1.2377 -0.3708  0.4424
17898TIP3   OH275184   1.318   2.747  12.301  0.1522  0.5615  0.2403
17898TIP3    H175185   1.311   2.775  12.209 -0.2411  2.5066  0.8195
17898TIP3    H275186   1.386   2.680  12.300  1.2229  1.5797 -1.2812
17899TIP3   OH275187   6.240   4.828  15.992  0.1818  0.1455  0.5290
17899TIP3    H175188   6.284   4.912  15.978  0.6809  0.1636  2.1229
17899TIP3    H275189   6.176   4.845  16.061  1.0178 -1.0330  1.6251
17900TIP3   OH275190   1.114   5.913   5.737 -0.1134  1.0026 -0.0213
17900TIP3    H175191   1.192   5.964   5.756  0.4889  0.6766 -1.4714
17900TIP3    H275192   1.143   5.822   5.740 -0.7398  0.8142  0.6647
17901TIP3   OH275193   4.000   6.675   1.844  0.0207  0.6337 -0.6018
17901TIP3    H175194   4.042   6.645   1.764 -1.1548  0.8879 -1.3249
17901TIP3    H275195   4.016   6.605   1.908  1.8590  0.8931 -0.7246
17902TIP3   OH275196   6.461   3.256  10.914  0.2140 -0.7068  0.2140
17902TIP3    H175197   6.547   3.216  10.904  0.9921  0.9693 -0.2493
17902TIP3    H275198   6.412   3.227  10.837  0.7540 -0.7729 -0.1127
17903TIP3   OH275199   5.255   1.962   0.569  0.2228  0.5367  0.1370
17903TIP3    H175200   5.177   1.925   0.529 -1.5173  4.5957 -0.7148
17903TIP3    H275201   5.328   1.919   0.524 -1.4160 -2.8759  0.4719
17904TIP3   OH275202   5.209   6.172   2.107  0.1720  0.2164 -0.4483
17904TIP3    H175203   5.224   6.168   2.013 -0.6676  1.4151 -0.6391
17904TIP3    H275204   5.240   6.258   2.133 -1.1211  0.5363  0.0896
17905TIP3   OH275205   2.746   3.633   0.498  0.8620  0.6210 -0.1735
17905TIP3    H175206   2.734   3.540   0.517  0.1548  0.9862  1.2639
17905TIP3    H275207   2.828   3.636   0.448  0.5932 -0.8247 -0.7704
17906TIP3   OH275208   5.801   4.996   1.624  0.3269 -0.1312  0.3831
17906TIP3    H175209   5.747   4.956   1.555  2.4762 -0.5791 -1.1548
17906TIP3    H275210   5.837   5.075   1.583  1.9155 -0.5887  0.8402
17907TIP3   OH275211   0.698   5.409  15.230 -0.5525  0.4556  0.1428
17907TIP3    H175212   0.631   5.346  15.256 -0.5680  0.0033 -0.9338
17907TIP3    H275213   0.735   5.372  15.149  1.6386  0.2057  1.1944
17908TIP3   OH275214   4.904   2.867  13.522 -0.1051 -0.3417 -0.3958
17908TIP3    H175215   4.853   2.798  13.478 -0.8253  0.1703 -0.3966
17908TIP3    H275216   4.972   2.821  13.569 -1.2519 -1.1645  0.5207
17909TIP3   OH275217   0.392   2.258  11.374 -0.1186 -0.4705  0.0062
17909TIP3    H175218   0.376   2.207  11.454 -1.1182  0.4872  0.4410
17909TIP3    H275219   0.307   2.295  11.351  0.3108 -0.1130 -1.0838
17910TIP3   OH275220   3.620   5.084  15.054  0.1939  0.0198 -0.5647
17910TIP3    H175221   3.599   4.990  15.055 -1.8372  0.4360 -0.2767
17910TIP3    H275222   3.658   5.098  14.967  1.2792 -1.1877 -0.3284
17911TIP3   OH275223   5.748   3.227   0.147  0.6239  0.0399 -0.4029
17911TIP3    H175224   5.804   3.269   0.082 -0.9378  2.9335 -0.0462
17911TIP3    H275225   5.733   3.294   0.213 -1.6149 -1.2586  0.5286
17912TIP3   OH275226   5.952   5.153   2.809 -1.1138 -0.1159 -0.7879
17912TIP3    H175227   6.017   5.109   2.863 -0.9910  0.6433 -0.3005
17912TIP3    H275228   5.970   5.247   2.821 -1.6898  0.0813 -1.3920
17913TIP3   OH275229   1.054   3.483  10.551  0.6081 -0.0163  0.1019
17913TIP3    H175230   0.992   3.513  10.485 -2.0979 -1.8082  1.6275
17913TIP3    H275231   1.135   3.467  10.503  0.5732  4.0700 -1.7117
17914TIP3   OH275232   4.365   2.280  16.585  0.6369  0.4992  0.2635
17914TIP3    H175233   4.316   2.257  16.506  1.1307 -1.0357  0.3763
17914TIP3    H275234   4.382   2.374  16.576  0.4354  0.4068 -1.3119
17915TIP3   OH275235   3.753   1.190   4.103 -1.2301 -0.6605 -0.0274
17915TIP3    H175236   3.726   1.192   4.011  0.5710  0.7339 -0.5887
17915TIP3    H275237   3.823   1.124   4.106 -0.3959  0.2045  0.0378
17916TIP3   OH275238   4.525   1.593  14.907 -0.1839  0.0822  0.6648
17916TIP3    H175239   4.564   1.531  14.968 -0.4151 -1.2605 -0.4887
17916TIP3    H275240   4.592   1.607  14.840 -1.1696 -1.3329 -0.7029
17917TIP3   OH275241   5.789   4.283  13.430  0.0372 -0.4464  0.0626
17917TIP3    H175242   5.794   4.209  13.491 -1.8512  2.1736  3.8461
17917TIP3    H275243   5.702   4.275  13.391 -0.4319  0.0779  0.9769
17918TIP3   OH275244   3.417   4.255   4.103 -0.3825 -0.0769 -0.0841
17918TIP3    H175245   3.352   4.292   4.044 -0.4937  0.4047  0.3349
17918TIP3    H275246   3.477   4.207   4.046 -0.8063 -0.0831 -0.5260
17919TIP3   OH275247   4.333   3.680  16.555  0.8090 -0.0531 -0.1709
17919TIP3    H175248   4.348   3.666  16.461 -0.0401 -0.7024 -0.2269
17919TIP3    H275249   4.317   3.593  16.590  0.9544  0.2043  0.5524
17920TIP3   OH275250   0.494   2.511   2.285  0.3324  0.2365  0.3947
17920TIP3    H175251   0.524   2.420   2.287 -0.6220 -0.1588 -1.1450
17920TIP3    H275252   0.484   2.536   2.377 -2.0027 -2.1640  0.9285
17921TIP3   OH275253   5.588   2.448   4.205  0.0130 -0.7001  0.1278
17921TIP3    H175254   5.609   2.534   4.241 -1.8317 -0.0352 -0.2741
17921TIP3    H275255   5.673   2.408   4.189  0.9093  0.2866  2.0661
17922TIP3   OH275256   1.486   5.816  14.843  0.2259 -0.1614  0.7191
17922TIP3    H175257   1.448   5.899  14.873  0.0691  0.5851 -1.3251
17922TIP3    H275258   1.459   5.810  14.751  0.7293 -2.2144  0.6709
17923TIP3   OH275259   6.613   4.493  12.292 -0.3054 -0.1394  0.0882
17923TIP3    H175260   6.520   4.470  12.288 -0.6114  1.0513 -0.0152
17923TIP3    H275261   6.619   4.559  12.362  0.2969  0.4742 -0.5223
17924TIP3   OH275262   3.586   0.157  12.729  0.3040 -0.2371  0.4340
17924TIP3    H175263   3.625   0.070  12.728  0.5245 -0.1523 -1.2354
17924TIP3    H275264   3.510   0.151  12.672 -0.4492  0.3425  1.3482
17925TIP3   OH275265   4.533   4.018   4.195 -1.0690  0.2304  0.5108
17925TIP3    H175266   4.606   3.997   4.254  0.3503  3.0777 -0.0325
17925TIP3    H275267   4.494   3.933   4.174  1.2636 -1.3128  1.8738
17926TIP3   OH275268   0.739   3.018   3.924 -0.2193 -0.5039  0.1157
17926TIP3    H175269   0.702   3.067   3.998  0.5953 -0.5944  0.5945
17926TIP3    H275270   0.714   2.927   3.941 -0.5988 -0.4380 -0.0759
17927TIP3   OH275271   1.442   3.500  13.107 -0.6081 -0.5728  0.8355
17927TIP3    H175272   1.431   3.453  13.189 -0.5951 -0.0846  1.1200
17927TIP3    H275273   1.536   3.496  13.089 -0.5223 -0.1407  1.1718
17928TIP3   OH275274   2.194   6.608   4.661  0.3800 -0.1464  0.0798
17928TIP3    H175275   2.165   6.644   4.745  2.1464 -0.0797  0.7241
17928TIP3    H275276   2.283   6.577   4.679 -0.2143 -2.8101 -1.0239
17929TIP3   OH275277   2.113   0.450  16.951  0.1802 -0.0383  0.0126
17929TIP3    H175278   2.053   0.385  16.913  1.4024 -0.8598 -0.5686
17929TIP3    H275279   2.136   0.414  17.037 -0.3666  0.4136  0.3518
17930TIP3   OH275280   6.124   4.878   1.151 -0.2678 -0.2212  0.6223
17930TIP3    H175281   6.043   4.913   1.115  0.4439  0.2940 -0.5368
17930TIP3    H275282   6.193   4.912   1.094  0.7274 -1.0679  1.2687
17931TIP3   OH275283   5.794   4.802  15.922 -0.4944  0.0198 -0.5776
17931TIP3    H175284   5.862   4.837  15.865  0.2464 -0.9636 -0.3306
17931TIP3    H275285   5.772   4.717  15.884  0.9978 -1.2900  1.3062
17932TIP3   OH275286   2.020   0.549  11.204  0.6025  0.0886 -0.8885
17932TIP3    H175287   1.948   0.611  11.208 -0.7936 -1.5164  0.3692
17932TIP3    H275288   2.086   0.585  11.263  0.7877  1.4493 -1.8662
17933TIP3   OH275289   4.043   3.820   6.090 -0.2652  0.3385  0.0729
17933TIP3    H175290   4.048   3.807   6.184 -0.1303  0.3402  0.0660
17933TIP3    H275291   4.134   3.826   6.061 -0.2918 -0.2635 -0.1435
17934TIP3   OH275292   2.991   0.637  11.389 -0.3190  0.3189  0.6627
17934TIP3    H175293   3.043   0.707  11.427 -1.6616  0.6802  1.9676
17934TIP3    H275294   2.923   0.620  11.454 -2.1608  0.2556 -1.1636
17935TIP3   OH275295   2.526   6.724   5.814 -0.0708  0.5419 -0.2307
17935TIP3    H175296   2.446   6.765   5.781 -1.2395 -2.2352 -1.1056
17935TIP3    H275297   2.498   6.672   5.889  1.4145  1.4827  1.0399
17936TIP3   OH275298   4.927   4.891  15.315 -0.0994 -0.2813  0.5314
17936TIP3    H175299   4.883   4.830  15.256  0.0221 -1.7374  1.8740
17936TIP3    H275300   4.873   4.891  15.394  0.2813  0.8277  0.8037
17937TIP3   OH275301   2.936   3.498   0.798 -0.0520  0.1951  0.5992
17937TIP3    H175302   2.946   3.407   0.825  1.5464 -0.8584 -2.8973
17937TIP3    H275303   2.842   3.509   0.784 -0.0800 -1.9883 -1.6892
17938TIP3   OH275304   5.264   1.314   4.093 -0.0185 -0.0210 -0.1362
17938TIP3    H175305   5.318   1.242   4.061  1.3823  1.6049 -1.6978
17938TIP3    H275306   5.326   1.384   4.115 -1.3512  1.0837  0.3124
17939TIP3   OH275307   3.896   6.038   3.176  0.0587  0.2569 -0.0857
17939TIP3    H175308   3.990   6.024   3.163  0.5588  2.5247  0.6242
17939TIP3    H275309   3.866   5.957   3.217  1.5402 -0.7890 -0.9210
17940TIP3   OH275310   1.414   0.594   3.582 -0.4788 -0.1098  0.0903
17940TIP3    H175311   1.354   0.569   3.652  0.5127 -0.8511  0.7028
17940TIP3    H275312   1.443   0.511   3.544  1.4696  0.1168  0.9621
17941TIP3   OH275313   6.303   1.383  13.345  0.1469  0.0763 -0.4044
17941TIP3    H175314   6.337   1.380  13.255  1.4814  0.6565  0.0516
17941TIP3    H275315   6.379   1.362  13.399 -0.0964  1.8578  0.6907
17942TIP3   OH275316   1.839   3.520  16.958  0.6855  0.9969  0.1241
17942TIP3    H175317   1.876   3.547  17.041  0.1495 -0.0101  0.7045
17942TIP3    H275318   1.763   3.467  16.981  1.5843 -0.8606 -0.9536
17943TIP3   OH275319   3.195   4.632   3.745  0.2689 -1.0296 -0.0957
17943TIP3    H175320   3.278   4.670   3.715  1.2254 -1.3279  1.9842
17943TIP3    H275321   3.148   4.610   3.664  1.6494  0.3175 -1.3345
17944TIP3   OH275322   5.840   5.426   6.666  0.8950  0.4977  0.8778
17944TIP3    H175323   5.771   5.459   6.723  0.8520  0.6752  0.7225
17944TIP3    H275324   5.892   5.368   6.722 -0.0907 -0.5951  0.6899
17945TIP3   OH275325   4.958   6.620  17.088  0.5262  0.3100  0.0324
17945TIP3    H175326   4.998   6.667  17.162  0.5375 -1.3244  1.1072
17945TIP3    H275327   5.032   6.580  17.042  0.3731 -0.3757  0.3655
17946TIP3   OH275328   2.044   4.835  13.697  0.2484 -0.5320  0.2184
17946TIP3    H175329   1.975   4.804  13.755  1.3526  0.1117  1.9527
17946TIP3    H275330   2.125   4.824  13.747  1.0386  2.0638 -0.3014
17947TIP3   OH275331   1.154   3.753   4.982 -0.1725 -0.2347 -0.5930
17947TIP3    H175332   1.093   3.825   4.966 -0.6184 -0.2733  0.8439
17947TIP3    H275333   1.236   3.783   4.942  0.0103  1.6426  1.0282
17948TIP3   OH275334   0.449   3.090  10.525 -0.0657  0.2648  0.1045
17948TIP3    H175335   0.413   3.001  10.518 -1.5807  0.8015  0.8117
17948TIP3    H275336   0.524   3.090  10.465  0.4207 -1.7053  0.6228
17949TIP3   OH275337   5.839   2.368   3.348  0.2141 -0.0844 -0.3062
17949TIP3    H175338   5.886   2.287   3.327 -1.1185 -0.8699 -0.3242
17949TIP3    H275339   5.753   2.357   3.308 -0.2349  1.0271  0.3331
17950TIP3   OH275340   5.539   4.003   0.841 -0.1600 -0.1436 -0.0932
17950TIP3    H175341   5.541   4.058   0.918 -0.6524 -2.1343  1.4321
17950TIP3    H275342   5.630   3.999   0.811  0.1048  0.2752  0.6464
17951TIP3   OH275343   1.236   4.202  12.150 -0.1552 -0.1476  0.3355
17951TIP3    H175344   1.214   4.276  12.207  2.5378  0.1416  1.1088
17951TIP3    H275345   1.253   4.130  12.211 -1.8148 -1.1917 -0.3753
17952TIP3   OH275346   0.242   0.884   5.323  0.3101  0.1589 -0.1104
17952TIP3    H175347   0.177   0.945   5.358  2.7657  2.1025  1.3311
17952TIP3    H275348   0.314   0.885   5.386  1.8167 -1.8841 -1.6328
17953TIP3   OH275349   5.570   2.710  15.312 -0.1178 -0.4316  0.5453
17953TIP3    H175350   5.643   2.773  15.311 -0.1331 -0.3714  1.7736
17953TIP3    H275351   5.493   2.764  15.329 -0.3058 -0.6294  0.3238
17954TIP3   OH275352   2.139   4.530   0.963 -0.0944  0.5800 -0.1009
17954TIP3    H175353   2.201   4.485   0.906  0.0259  0.0762  0.4197
17954TIP3    H275354   2.056   4.527   0.916  0.3396  1.6183 -0.9944
17955TIP3   OH275355   4.090   5.885   2.905 -0.1600  0.1834  0.2115
17955TIP3    H175356   4.109   5.917   2.817  0.6932  1.2231  0.7606
17955TIP3    H275357   4.139   5.942   2.963 -0.9897 -0.2675  1.4006
17956TIP3   OH275358   3.062   3.581   4.174  0.3671 -0.7274  0.2754
17956TIP3    H175359   3.053   3.661   4.225  0.9700 -0.5500  0.1042
17956TIP3    H275360   2.985   3.529   4.198  0.4967 -0.5337  1.1452
17957TIP3   OH275361   1.012   1.024   2.650 -0.0583 -0.0205  0.5815
17957TIP3    H175362   0.935   1.038   2.705 -0.8513  1.1085 -0.7520
17957TIP3    H275363   0.981   1.040   2.561  1.5820 -0.1602 -0.0485
17958TIP3   OH275364   2.038   3.486  15.515  0.6128  0.0146 -0.1791
17958TIP3    H175365   2.066   3.422  15.449  1.0160 -0.1133  0.1135
17958TIP3    H275366   1.966   3.442  15.561  2.8838 -1.5800  2.1280
17959TIP3   OH275367   1.903   5.729   2.865  0.2169 -0.0484 -0.1045
17959TIP3    H175368   1.921   5.714   2.958 -1.8930 -0.1949  0.3450
17959TIP3    H275369   1.880   5.643   2.831 -0.1918  0.1997 -0.4613
17960TIP3   OH275370   0.560   3.449  16.502  0.1084  0.5822 -0.5000
17960TIP3    H175371   0.637   3.503  16.520  0.0234  0.3116  0.7411
17960TIP3    H275372   0.586   3.395  16.427  0.7893  1.1378 -0.6780
17961TIP3   OH275373   1.949   2.456  12.986  0.2372 -0.6998 -0.3275
17961TIP3    H175374   1.951   2.399  12.908 -0.9404 -1.0627 -0.1110
17961TIP3    H275375   1.856   2.472  13.001  0.5087  0.3781  0.2931
17962TIP3   OH275376   0.400   5.651   6.439 -0.8513  0.6674 -0.2984
17962TIP3    H175377   0.452   5.583   6.398 -2.0002 -0.0316 -0.6340
17962TIP3    H275378   0.454   5.681   6.513 -1.9688 -3.6034  2.6271
17963TIP3   OH275379   4.701   3.596   3.196 -0.3350  0.0622  0.2809
17963TIP3    H175380   4.684   3.678   3.243 -1.2476  0.3117 -0.4392
17963TIP3    H275381   4.684   3.527   3.260 -1.8832  0.3815  0.2625
17964TIP3   OH275382   0.019   6.596   4.544 -0.0534  0.0541 -0.2489
17964TIP3    H175383  -0.049   6.623   4.605  1.3233  0.0966  1.3564
17964TIP3    H275384   0.101   6.609   4.592  0.9597 -2.6811 -1.0232
17965TIP3   OH275385   3.984   4.366   0.298  0.1765  0.5961  0.0342
17965TIP3    H175386   3.991   4.350   0.392  3.2457 -0.7545 -0.2928
17965TIP3    H275387   4.052   4.431   0.280 -1.7943  2.5162 -1.0411
17966TIP3   OH275388   3.446   4.025   5.151 -0.0311  0.2929  0.5495
17966TIP3    H175389   3.483   3.995   5.068  1.1480  1.8227  0.4683
17966TIP3    H275390   3.500   3.985   5.219 -0.1124  0.1500  0.5294
17967TIP3   OH275391   6.651   2.661  16.626  0.5316  0.3553  0.5781
17967TIP3    H175392   6.669   2.572  16.597  1.6423  0.7796 -0.0636
17967TIP3    H275393   6.555   2.667  16.626  0.4682 -0.3758 -0.7836
17968TIP3   OH275394   3.200   0.841  11.603 -0.1966  0.0548 -0.2696
17968TIP3    H175395   3.196   0.774  11.672 -0.7075 -1.0492 -1.3455
17968TIP3    H275396   3.114   0.883  11.606  0.4091  1.2814  0.9686
17969TIP3   OH275397   5.858   3.181  13.557 -0.1186  0.2463  0.2177
17969TIP3    H175398   5.905   3.207  13.478 -0.7205 -1.4464 -0.7428
17969TIP3    H275399   5.766   3.179  13.531 -0.3371 -0.1872  0.9935
17970TIP3   OH275400   6.565   1.318  11.209 -0.4964 -0.0128  0.3226
17970TIP3    H175401   6.493   1.276  11.161  0.9248 -1.4304 -0.6884
17970TIP3    H275402   6.593   1.252  11.272 -0.0643  0.5156  0.6939
17971TIP3   OH275403   1.779   3.660   1.719  0.1149  0.2732 -0.1484
17971TIP3    H175404   1.686   3.648   1.739  0.0322  0.4413 -0.4278
17971TIP3    H275405   1.815   3.572   1.721  0.8030  0.4829  4.0105
17972TIP3   OH275406   3.349   3.740  11.089  0.5418  0.3363 -0.7243
17972TIP3    H175407   3.308   3.658  11.062 -0.8277  0.5927  0.4773
17972TIP3    H275408   3.359   3.790  11.008  0.9693 -0.8166 -1.3989
17973TIP3   OH275409   2.028   3.971  13.850  0.6181 -0.1905 -0.0648
17973TIP3    H175410   1.943   3.988  13.892 -0.7275 -1.1181 -2.2060
17973TIP3    H275411   2.051   4.054  13.809  2.2839  0.9304  2.8537
17974TIP3   OH275412   1.698   2.888  14.206 -0.2699 -0.2832 -0.0891
17974TIP3    H175413   1.750   2.819  14.248  1.2055  0.4215 -0.6817
17974TIP3    H275414   1.728   2.888  14.115  0.4462  1.7034  0.0918
17975TIP3   OH275415   4.798   6.342   0.103 -0.0772  0.2070  0.2701
17975TIP3    H175416   4.854   6.397   0.158  0.1198 -0.2382  0.5253
17975TIP3    H275417   4.825   6.252   0.124 -1.8490 -0.1072  1.4727
17976TIP3   OH275418   4.774   2.621  16.247  0.1170  0.2543  0.3439
17976TIP3    H175419   4.706   2.681  16.276  0.3381  0.0175  1.3999
17976TIP3    H275420   4.813   2.587  16.328 -0.8631 -2.3019 -0.1367
17977TIP3   OH275421   1.998   5.159  11.002 -0.1147  0.2121 -0.3737
17977TIP3    H175422   2.032   5.135  11.088  0.8990 -2.1364 -1.3540
17977TIP3    H275423   1.923   5.101  10.989  1.1102 -1.1204 -1.9460
17978TIP3   OH275424   6.523   0.298   5.472  0.2018  0.3504  0.2511
17978TIP3    H175425   6.565   0.282   5.557 -1.0181  2.1215  1.2788
17978TIP3    H275426   6.576   0.366   5.432  1.2369 -1.0371 -0.8201
17979TIP3   OH275427   1.961   5.224   0.330 -0.0607 -0.1639 -0.1072
17979TIP3    H175428   1.941   5.309   0.291 -0.4541 -0.2568 -0.1193
17979TIP3    H275429   1.997   5.245   0.416 -0.1816  0.0146 -0.0992
17980TIP3   OH275430   4.532   1.657  11.404  0.0632 -0.5169 -0.2058
17980TIP3    H175431   4.607   1.611  11.366  0.5548  0.6912 -0.7799
17980TIP3    H275432   4.456   1.622  11.358  0.4458 -0.6197 -0.7730
17981TIP3   OH275433   6.676   4.779  14.623  1.0165 -0.7486  0.0157
17981TIP3    H175434   6.711   4.810  14.706 -1.0511 -1.0732  1.0663
17981TIP3    H275435   6.590   4.820  14.616  1.5490  0.1217 -2.5157
17982TIP3   OH275436   0.319   5.754   1.840 -0.0149  0.6462  0.0248
17982TIP3    H175437   0.281   5.839   1.821 -1.4213  0.1122  0.3187
17982TIP3    H275438   0.281   5.696   1.774  0.3602  0.1056  0.2780
17983TIP3   OH275439   5.289   5.080   2.561  0.2470 -0.3122 -0.0890
17983TIP3    H175440   5.322   5.065   2.650 -2.4532 -2.9232  0.6631
17983TIP3    H275441   5.249   4.996   2.537 -0.8377  0.9371 -2.9924
17984TIP3   OH275442   3.267   4.699   5.157 -0.2411 -0.2948 -0.0319
17984TIP3    H175443   3.347   4.647   5.165 -0.4411 -0.4800  0.9291
17984TIP3    H275444   3.231   4.701   5.246 -0.2233  1.4958 -0.0264
17985TIP3   OH275445   5.011   6.248  12.736  0.3300  0.2969 -0.0243
17985TIP3    H175446   5.041   6.298  12.661 -0.0516 -0.0246 -0.3982
17985TIP3    H275447   4.978   6.314  12.798  1.3026  0.6178  0.1804
17986TIP3   OH275448   5.289   5.581   5.767  0.0768 -0.1094  0.4350
17986TIP3    H175449   5.287   5.489   5.742  0.2907  0.1733 -0.6945
17986TIP3    H275450   5.198   5.609   5.766  0.0186 -0.2910  0.7055
17987TIP3   OH275451   5.483   4.189   6.264  0.0024  0.4213 -0.5231
17987TIP3    H175452   5.498   4.283   6.255 -2.1306  0.8861  0.0762
17987TIP3    H275453   5.446   4.163   6.180 -2.7288  0.9437  0.3902
17988TIP3   OH275454   0.311   2.855   2.720 -0.1615 -0.7378 -0.1653
17988TIP3    H175455   0.218   2.833   2.723 -0.1454 -0.9194 -0.7640
17988TIP3    H275456   0.352   2.793   2.781 -0.4068 -0.7831 -0.0451
17989TIP3   OH275457   2.962   4.946   3.230 -0.1028  0.0706  0.0556
17989TIP3    H175458   2.920   5.027   3.203  1.0584  0.9968  0.8918
17989TIP3    H275459   3.053   4.956   3.203 -0.4399 -2.1593 -2.3099
17990TIP3   OH275460   3.709   1.576   3.741 -0.0208 -0.7536  0.8818
17990TIP3    H175461   3.703   1.671   3.749  0.3702 -0.5409 -0.9520
17990TIP3    H275462   3.786   1.552   3.792  0.9302  0.1480 -0.0782
17991TIP3   OH275463   3.996   0.450  15.963 -0.0293 -0.0575 -0.0986
17991TIP3    H175464   4.012   0.524  15.905  1.3839 -0.7756 -0.6751
17991TIP3    H275465   4.010   0.373  15.908  0.0683 -0.7510  0.8680
17992TIP3   OH275466   5.809   6.621   6.562  0.8760 -0.5803  0.4628
17992TIP3    H175467   5.764   6.686   6.616 -0.6936 -2.2561  1.2890
17992TIP3    H275468   5.878   6.587   6.618  2.8372  1.4802 -0.5567
17993TIP3   OH275469   5.332   5.734  15.155 -0.0404  0.0591 -0.4254
17993TIP3    H175470   5.350   5.664  15.218 -0.8766  2.1469  2.3229
17993TIP3    H275471   5.283   5.691  15.085 -2.4796 -1.8216  2.1845
17994TIP3   OH275472   1.521   4.884  15.262  0.3386  0.2654  0.0619
17994TIP3    H175473   1.608   4.905  15.295  0.2423 -1.1013  1.3417
17994TIP3    H275474   1.467   4.877  15.341 -0.2879 -1.5428 -0.4776
17995TIP3   OH275475   2.840   6.482   5.568 -0.5203  0.5444 -0.5029
17995TIP3    H175476   2.818   6.477   5.661 -2.3357 -1.2057 -0.9591
17995TIP3    H275477   2.805   6.567   5.540  0.7268  1.4381  0.5233
17996TIP3   OH275478   2.547   2.057  11.088 -0.3137 -0.8128 -0.0092
17996TIP3    H175479   2.562   1.968  11.119  0.4888 -1.3367 -1.7815
17996TIP3    H275480   2.634   2.097  11.086 -0.8247  0.6570  2.3991
17997TIP3   OH275481   3.306   0.941  15.840 -1.0921  0.0609 -0.0115
17997TIP3    H175482   3.247   0.974  15.772 -0.6684  1.1670  0.1309
17997TIP3    H275483   3.258   0.955  15.921 -1.3447 -0.6834 -0.0291
17998TIP3   OH275484   5.697   3.164   3.175  0.3821  0.4801 -0.8595
17998TIP3    H175485   5.710   3.221   3.250 -0.5848  0.3650 -0.5838
17998TIP3    H275486   5.629   3.207   3.123  2.2279  1.4600 -2.6167
17999TIP3   OH275487   6.363   6.356  15.529  0.5308 -0.1490 -0.0248
17999TIP3    H175488   6.382   6.270  15.491 -0.6984 -0.6783  0.4980
17999TIP3    H275489   6.380   6.418  15.459  2.1675 -0.7399 -0.1904
18000TIP3   OH275490   2.185   0.830  10.081  0.3571 -0.1895  0.4362
18000TIP3    H175491   2.243   0.861  10.151  1.6029 -1.3759 -0.0237
18000TIP3    H275492   2.231   0.854  10.000  0.6720 -1.9014  0.0715
18001TIP3   OH275493   0.676   5.266  12.262 -0.1489  0.5778 -0.1220
18001TIP3    H175494   0.648   5.201  12.198 -2.1207  2.4680 -1.3419
18001TIP3    H275495   0.641   5.235  12.345  2.8812 -2.1783  0.3065
18002TIP3   OH275496   0.937   6.057  12.882  0.6991  0.1507 -0.1038
18002TIP3    H175497   0.883   6.066  12.804 -0.0707 -0.6577  0.3276
18002TIP3    H275498   0.911   5.974  12.920  1.5216  0.2364  0.6744
18003TIP3   OH275499   5.524   6.134  14.485  0.1286  0.2851 -0.4009
18003TIP3    H175500   5.617   6.148  14.468  0.3010  1.6520  1.3936
18003TIP3    H275501   5.490   6.097  14.403  2.3383 -0.8272 -0.8959
18004TIP3   OH275502   4.574   6.313  11.611  0.1831 -0.2158 -0.3071
18004TIP3    H175503   4.503   6.355  11.563  0.7308  0.1900 -0.7789
18004TIP3    H275504   4.597   6.375  11.679  2.0450  1.0422 -1.9541
18005TIP3   OH275505   2.121   0.589   0.660 -0.2249  0.1544  0.1279
18005TIP3    H175506   2.076   0.585   0.576  2.9913  0.8535 -1.7971
18005TIP3    H275507   2.165   0.504   0.667  0.6174  0.6074  0.4157
18006TIP3   OH275508   5.381   0.286  13.883  0.5537  0.0462 -0.1529
18006TIP3    H175509   5.289   0.284  13.860  0.4252 -1.5522  0.4385
18006TIP3    H275510   5.402   0.380  13.889 -1.0285  0.4255 -0.2127
18007TIP3   OH275511   1.197   6.535  11.408  0.3518 -0.1633  0.0181
18007TIP3    H175512   1.248   6.608  11.372  0.4729  1.4096  3.0049
18007TIP3    H275513   1.106   6.560  11.394  0.3728 -0.6162 -1.0175
18008TIP3   OH275514   5.662   1.763   0.201  0.4685 -0.5475  0.2971
18008TIP3    H175515   5.706   1.681   0.182  0.7577 -0.3211 -0.0054
18008TIP3    H275516   5.575   1.753   0.163  0.1372 -1.1215  1.1822
18009TIP3   OH275517   2.728   5.661  16.108  0.0670  0.4078  0.0414
18009TIP3    H175518   2.814   5.694  16.134 -1.1088  1.3835  3.0585
18009TIP3    H275519   2.685   5.737  16.068  0.8200 -0.3070 -2.2751
18010TIP3   OH275520   3.599   2.840  16.746  0.4972 -0.1076  0.1638
18010TIP3    H175521   3.504   2.854  16.737  0.5335 -1.0882 -3.0326
18010TIP3    H275522   3.606   2.756  16.791 -0.2852 -1.0909 -1.4387
18011TIP3   OH275523   3.873   3.919   1.104  0.1199 -0.2294 -0.3198
18011TIP3    H175524   3.797   3.967   1.070 -0.3897 -0.3730  0.6125
18011TIP3    H275525   3.858   3.913   1.198  0.2907 -2.0223 -0.3813
18012TIP3   OH275526   0.613   6.429  14.440 -0.3611  0.5414 -0.1572
18012TIP3    H175527   0.569   6.377  14.507  0.0095 -0.9508 -1.0430
18012TIP3    H275528   0.545   6.449  14.376 -0.0838 -0.5425 -0.8032
18013TIP3   OH275529   0.386   2.721   0.087 -0.3255 -0.3845 -0.4910
18013TIP3    H175530   0.300   2.678   0.089 -0.0748 -1.0119 -1.7074
18013TIP3    H275531   0.384   2.772   0.006  1.6580 -3.1734 -2.5044
18014TIP3   OH275532   1.157   5.079   1.694  0.0180  0.0928  0.5956
18014TIP3    H175533   1.163   5.168   1.660  0.6520 -0.6752 -1.4391
18014TIP3    H275534   1.064   5.066   1.712  0.0975  1.6520  2.4612
18015TIP3   OH275535   2.088   1.625   5.299  0.6311  0.5428  0.8756
18015TIP3    H175536   2.002   1.636   5.260  0.6465 -0.6225  0.4944
18015TIP3    H275537   2.148   1.621   5.225  0.8167 -0.2733  1.0583
18016TIP3   OH275538   4.206   6.418   5.475 -0.0425 -0.4626  0.2896
18016TIP3    H175539   4.222   6.446   5.565 -0.2309 -0.0718  0.2048
18016TIP3    H275540   4.288   6.440   5.429 -0.9343  2.0314 -0.2583
18017TIP3   OH275541   5.865   3.420   1.386 -0.0231  0.1279  0.3269
18017TIP3    H175542   5.823   3.471   1.317 -0.5161 -0.6613  0.0291
18017TIP3    H275543   5.921   3.357   1.339 -1.1741 -1.1286  0.5687
18018TIP3   OH275544   5.897   1.525   5.433  0.7267 -0.4593 -0.4021
18018TIP3    H175545   5.809   1.533   5.396  1.4223  0.5656 -1.9389
18018TIP3    H275546   5.885   1.478   5.515 -1.3400  0.2520 -0.2507
18019TIP3   OH275547   6.208   1.192  11.572  0.4828 -0.1787  0.2624
18019TIP3    H175548   6.283   1.134  11.556  1.0999  0.9967 -1.3829
18019TIP3    H275549   6.132   1.143  11.541  1.0165 -0.0880 -1.2374
18020TIP3   OH275550   3.450   2.355  10.409 -0.2721  0.4291 -0.0863
18020TIP3    H175551   3.420   2.281  10.356  0.4640 -0.6762  0.9728
18020TIP3    H275552   3.489   2.314  10.487  3.8708  1.6707 -1.2300
18021TIP3   OH275553   6.507   0.211   4.852 -0.0613 -0.4011 -0.0017
18021TIP3    H175554   6.510   0.131   4.801 -0.5873 -0.2286 -0.3037
18021TIP3    H275555   6.530   0.184   4.941 -3.3611 -1.5175  0.6570
18022TIP3   OH275556   2.398   6.802   6.223 -0.1355 -0.4783  0.0957
18022TIP3    H175557   2.402   6.805   6.319 -1.3839 -1.1790  0.1905
18022TIP3    H275558   2.400   6.709   6.202  1.7321 -0.3028 -0.6794
18023TIP3   OH275559   5.071   1.323   3.886  0.4208  0.1705  0.0966
18023TIP3    H175560   5.025   1.407   3.885 -0.8673 -0.4918  0.7388
18023TIP3    H275561   5.135   1.330   3.956 -0.3568  0.2909  0.8063
18024TIP3   OH275562   4.868   2.911  16.966  0.2119  0.4768 -0.0799
18024TIP3    H175563   4.886   2.987  16.911 -0.4267  0.7531  0.0842
18024TIP3    H275564   4.954   2.882  16.995  0.4863  0.9232 -0.4305
18025TIP3   OH275565   3.321   1.417   2.289  0.3664 -0.2371 -0.0816
18025TIP3    H175566   3.366   1.475   2.351  1.2041 -0.1231 -0.7658
18025TIP3    H275567   3.392   1.381   2.235 -0.0716 -2.2873  0.6219
18026TIP3   OH275568   0.271   4.538  13.483 -0.3400  0.1157  0.2629
18026TIP3    H175569   0.303   4.626  13.460 -1.2110  0.0399 -1.3870
18026TIP3    H275570   0.234   4.549  13.571 -0.9575  1.5551 -0.1395
18027TIP3   OH275571   1.739   1.146   1.805  0.1820 -0.3638  0.2073
18027TIP3    H175572   1.771   1.237   1.812 -0.0240 -0.1728 -1.0946
18027TIP3    H275573   1.803   1.103   1.748 -1.2259 -0.2772 -1.5071
18028TIP3   OH275574   5.866   3.131   5.175  0.3315  0.2368  0.5578
18028TIP3    H175575   5.912   3.086   5.104 -0.0361  1.5457 -0.5444
18028TIP3    H275576   5.817   3.062   5.219  0.7535 -0.6443 -0.3116
18029TIP3   OH275577   6.441   5.342   1.517  0.8818  0.1441  0.5079
18029TIP3    H175578   6.404   5.275   1.460  1.2626 -0.5067  1.0127
18029TIP3    H275579   6.528   5.309   1.540  0.9317  0.6319  1.0578
18030TIP3   OH275580   4.079   2.411  15.596 -0.1999  0.3721 -0.2978
18030TIP3    H175581   4.087   2.496  15.639  0.2254  0.4422 -0.5170
18030TIP3    H275582   4.033   2.430  15.514  3.5864  1.1159 -2.4419
18031TIP3   OH275583   6.332   3.199  15.343 -0.1434 -0.4865 -0.1275
18031TIP3    H175584   6.414   3.200  15.393 -0.3747 -0.2819  0.2553
18031TIP3    H275585   6.268   3.238  15.402 -0.3874 -0.0894 -0.6504
18032TIP3   OH275586   6.809   1.414   1.149  0.2853  0.0163 -0.5791
18032TIP3    H175587   6.904   1.422   1.157  0.2535 -0.3584  0.1822
18032TIP3    H275588   6.791   1.321   1.158 -0.2112  0.1517 -0.1437
18033TIP3   OH275589   2.954   2.070  13.957 -0.3299  0.2246 -0.2769
18033TIP3    H175590   3.035   2.032  13.990 -0.6528 -0.1086  0.1482
18033TIP3    H275591   2.946   2.037  13.868 -0.1059  0.0899 -0.2478
18034TIP3   OH275592   2.227   1.847  12.923  0.5168  0.2802 -0.2766
18034TIP3    H175593   2.203   1.777  12.863  1.5707 -1.5480  1.3384
18034TIP3    H275594   2.144   1.877  12.960  0.0374  0.0198 -1.1306
18035TIP3   OH275595   2.558   3.655  11.811 -0.6103 -0.4103 -0.3007
18035TIP3    H175596   2.553   3.749  11.796  0.1441 -0.0165  1.7393
18035TIP3    H275597   2.467   3.626  11.810 -1.0772  0.8334  1.8509
18036TIP3   OH275598   3.996   1.091  15.930 -0.1643  0.1528 -0.1369
18036TIP3    H175599   3.981   1.078  16.024 -2.0951  2.7959  0.0195
18036TIP3    H275600   3.976   1.006  15.891 -1.2675 -0.4669  1.6680
18037TIP3   OH275601   0.825   3.193  14.656  0.5063 -0.0909 -0.1548
18037TIP3    H175602   0.911   3.223  14.626  0.5730 -0.4871 -0.3629
18037TIP3    H275603   0.833   3.191  14.751  0.3872  0.8882 -0.1169
18038TIP3   OH275604   3.937   1.370  12.492  0.1959  0.6773  0.3120
18038TIP3    H175605   3.844   1.389  12.481 -0.3700  0.1518  3.2571
18038TIP3    H275606   3.939   1.277  12.517  1.4944  0.6710  0.2371
18039TIP3   OH275607   2.710   5.334   3.288 -0.0332  0.2463 -0.4544
18039TIP3    H175608   2.707   5.302   3.197  0.2504 -0.4350 -0.2288
18039TIP3    H275609   2.621   5.367   3.304 -0.8997 -2.0825 -0.1208
18040TIP3   OH275610   1.167   2.334   3.498  0.0272 -0.1916  0.1410
18040TIP3    H175611   1.187   2.283   3.420 -0.4114  0.6735 -0.5476
18040TIP3    H275612   1.156   2.268   3.567 -0.6653 -1.0423 -0.7522
18041TIP3   OH275613   2.473   5.526  13.989 -0.0923  0.7588 -0.0208
18041TIP3    H175614   2.475   5.434  14.014  0.0357  1.3701  2.5035
18041TIP3    H275615   2.566   5.551  13.986 -0.1460  1.4779  2.3652
18042TIP3   OH275616   2.875   5.858  16.765 -0.5194 -0.3125 -0.2358
18042TIP3    H175617   2.781   5.843  16.769 -0.3715 -1.1074  0.8069
18042TIP3    H275618   2.896   5.898  16.850  0.3348 -1.7885  0.2905
18043TIP3   OH275619   1.372   0.869  15.441  0.1774 -0.1369 -0.0390
18043TIP3    H175620   1.467   0.872  15.452  0.1931  0.2904 -0.2652
18043TIP3    H275621   1.357   0.901  15.352 -0.1010 -1.3376 -0.4419
18044TIP3   OH275622   1.121   1.423  13.528  0.2676  0.0532  0.0146
18044TIP3    H175623   1.071   1.500  13.556  0.1923 -0.1522  0.4655
18044TIP3    H275624   1.108   1.419  13.434 -0.6146 -0.0289  0.1330
18045TIP3   OH275625   0.195   6.270   4.427  0.3609  0.4467 -0.4183
18045TIP3    H175626   0.155   6.320   4.498  0.6918 -0.6935  0.6026
18045TIP3    H275627   0.126   6.264   4.361 -0.4840  0.2395  0.4544
18046TIP3   OH275628   5.067   3.446  13.252  0.2878 -0.0427  0.2506
18046TIP3    H175629   4.977   3.441  13.221  0.5692  0.5389 -0.6973
18046TIP3    H275630   5.116   3.386  13.197  1.2463  2.7893 -2.2843
18047TIP3   OH275631   3.252   4.878  16.556  0.1580 -0.2771 -0.0171
18047TIP3    H175632   3.279   4.891  16.465 -3.4126 -0.8690 -1.3243
18047TIP3    H275633   3.244   4.783  16.565 -1.7492 -0.1380  0.0986
18048TIP3   OH275634   3.778   3.725  16.263 -0.1060  0.0272  0.0440
18048TIP3    H175635   3.702   3.763  16.217  0.7852  0.2059 -1.3342
18048TIP3    H275636   3.796   3.644  16.216  1.2021  0.5145 -0.3160
18049TIP3   OH275637   1.494   0.227   0.227  0.3089 -0.2886 -0.2917
18049TIP3    H175638   1.518   0.234   0.134  2.0200  0.9103  0.1930
18049TIP3    H275639   1.490   0.133   0.244 -0.3252 -0.5271 -1.6393
18050TIP3   OH275640   3.894   5.011   0.200 -0.6803  0.0973  0.0960
18050TIP3    H175641   3.837   5.010   0.277  1.4953 -1.2624  1.7998
18050TIP3    H275642   3.842   5.056   0.133 -3.0128  0.5564  2.0543
18051TIP3   OH275643   4.863   4.737   3.155  0.6697  0.0070  0.1756
18051TIP3    H175644   4.812   4.715   3.233  0.6324 -0.0011  0.1492
18051TIP3    H275645   4.797   4.763   3.091  0.6894 -0.1410  0.0957
18052TIP3   OH275646   5.904   5.608   3.441  0.3287 -0.5538  0.5271
18052TIP3    H175647   5.936   5.656   3.518  0.8507  1.9747 -1.1659
18052TIP3    H275648   5.817   5.644   3.425  1.0239  0.4608 -1.2112
18053TIP3   OH275649   3.517   6.352   3.664 -0.7972 -0.1357  0.3046
18053TIP3    H175650   3.526   6.286   3.595 -1.7557  0.2771 -0.2365
18053TIP3    H275651   3.442   6.321   3.716  0.7017 -1.1284  1.9693
18054TIP3   OH275652   1.467   1.056   2.310 -0.3415 -0.6853  0.5384
18054TIP3    H175653   1.490   0.972   2.351  0.1214 -1.1090 -0.5457
18054TIP3    H275654   1.404   1.095   2.369 -0.2751 -1.6341  1.2585
18055TIP3   OH275655   0.949   2.381   1.961  0.0879  0.2766 -0.6674
18055TIP3    H175656   0.991   2.449   2.012 -0.7566 -0.5475  1.2405
18055TIP3    H275657   0.877   2.425   1.916  0.9517  1.0494 -1.3268
18056TIP3   OH275658   2.413   2.509  12.024  0.2458 -0.0152 -0.3160
18056TIP3    H175659   2.461   2.452  11.963 -0.5309 -1.2935  0.2181
18056TIP3    H275660   2.355   2.560  11.967 -0.3778 -1.0981 -0.6821
18057TIP3   OH275661   2.675   4.913  12.590 -0.3436  0.1797 -0.2527
18057TIP3    H175662   2.765   4.904  12.622 -0.0661  3.2931  0.1276
18057TIP3    H275663   2.669   4.851  12.517  2.6184  0.9187 -1.2682
18058TIP3   OH275664   1.647   6.437   4.725  0.2026  0.0444  0.5296
18058TIP3    H175665   1.686   6.422   4.639  1.1890 -0.6834  1.0854
18058TIP3    H275666   1.696   6.380   4.784 -1.5829 -0.7500  1.3098
18059TIP3   OH275667   3.473   4.911  13.956  0.2472  0.2623  0.1602
18059TIP3    H175668   3.431   4.997  13.969 -0.0315 -0.0128  1.1749
18059TIP3    H275669   3.413   4.849  13.996  0.4532 -0.4215 -0.5679
18060TIP3   OH275670   0.613   1.915  11.638  0.2596 -0.0872  0.7490
18060TIP3    H175671   0.630   1.822  11.653  1.8900  0.2296  1.0313
18060TIP3    H275672   0.676   1.941  11.571 -0.5616  0.7008  0.2616
18061TIP3   OH275673   0.226   4.507   0.769 -0.1312  0.0170 -0.4103
18061TIP3    H175674   0.282   4.577   0.802  1.0864 -0.8344 -0.6159
18061TIP3    H275675   0.137   4.544   0.773  0.5805  2.0539 -1.7781
18062TIP3   OH275676   5.011   2.188  11.234  0.3293  0.0854 -0.4961
18062TIP3    H175677   5.090   2.201  11.183  0.3730  0.9636 -0.2168
18062TIP3    H275678   4.959   2.126  11.183  0.5247  0.6796 -1.4343
18063TIP3   OH275679   0.375   5.028  17.186 -0.0888  0.1484 -0.5208
18063TIP3    H175680   0.347   5.119  17.192 -0.4713  0.2531 -2.8855
18063TIP3    H275681   0.403   5.005  17.274  0.7672  2.8032 -0.0265
18064TIP3   OH275682   5.437   2.693  14.375 -0.5008 -0.5315 -0.6439
18064TIP3    H175683   5.493   2.722  14.303 -0.3325 -0.5374 -0.5148
18064TIP3    H275684   5.356   2.664  14.332 -1.0735  1.0576 -0.7128
18065TIP3   OH275685   3.994   2.689  15.276 -0.3283  0.7561  0.3601
18065TIP3    H175686   3.932   2.740  15.223  0.2430  0.2158 -0.8640
18065TIP3    H275687   4.044   2.639  15.212 -0.2198 -0.6108  1.4737
18066TIP3   OH275688   5.559   0.400  12.157  0.0216 -0.6860  0.0571
18066TIP3    H175689   5.623   0.377  12.089 -0.2775 -0.9730 -0.1276
18066TIP3    H275690   5.608   0.394  12.239  0.4596 -0.0658 -0.1486
18067TIP3   OH275691   6.127   3.205   2.760  1.0747  0.0506 -0.4325
18067TIP3    H175692   6.212   3.217   2.801  1.0280 -2.2146  0.4494
18067TIP3    H275693   6.101   3.116   2.783 -0.7482  0.0632 -2.1431
18068TIP3   OH275694   4.243   1.555  14.776 -0.5478 -0.1466  0.7511
18068TIP3    H175695   4.222   1.465  14.752  0.0680 -0.7768  2.4040
18068TIP3    H275696   4.319   1.547  14.834  1.3731  1.6753 -1.3226
18069TIP3   OH275697   2.233   2.571  16.316  0.5982  0.3256 -0.7394
18069TIP3    H175698   2.301   2.518  16.358  0.1641  0.6585  0.4402
18069TIP3    H275699   2.261   2.579  16.225  2.6269  1.2625 -0.0833
18070TIP3   OH275700   0.432   4.147   2.646  0.5336 -0.1173  0.4619
18070TIP3    H175701   0.379   4.079   2.688  0.2379  0.1448  0.5115
18070TIP3    H275702   0.430   4.220   2.707  1.1889 -0.2047  0.5976
18071TIP3   OH275703   2.484   3.061  10.247  0.1887  0.1087 -0.3636
18071TIP3    H175704   2.461   2.993  10.184  1.9112 -1.6233  0.7672
18071TIP3    H275705   2.562   3.103  10.211  0.5617 -0.1880  0.0740
18072TIP3   OH275706   2.308   5.937   1.153 -0.1890  0.0726 -0.1422
18072TIP3    H175707   2.396   5.924   1.118  0.3862  0.2997  1.1855
18072TIP3    H275708   2.292   5.861   1.208 -0.7156  0.1684 -0.1557
18073TIP3   OH275709   2.024   1.654  13.737 -0.6392  0.1618 -0.1115
18073TIP3    H175710   2.100   1.664  13.794 -1.4081 -0.6267  1.0819
18073TIP3    H275711   2.061   1.630  13.652  0.4474 -0.1412  0.4337
18074TIP3   OH275712   6.459   1.587   2.879  0.3070 -0.0240  0.6415
18074TIP3    H175713   6.440   1.602   2.787 -1.3066 -0.5769  0.8562
18074TIP3    H275714   6.549   1.617   2.890  0.0681  1.3571 -0.7997
18075TIP3   OH275715   6.437   5.895  12.525 -0.5811 -0.0604  0.2433
18075TIP3    H175716   6.364   5.850  12.569  1.1269 -3.4633 -0.0631
18075TIP3    H275717   6.450   5.846  12.444  1.6030  0.8796 -0.0495
18076TIP3   OH275718   2.006   0.314  11.319  0.3265 -0.6112 -0.4762
18076TIP3    H175719   2.015   0.232  11.272 -0.1618 -0.8449 -0.1660
18076TIP3    H275720   1.960   0.372  11.259 -2.4524 -1.6346  0.5181
18077TIP3   OH275721   2.158   1.679  12.009  0.2407  0.1262 -0.2921
18077TIP3    H175722   2.145   1.771  11.987 -1.1135  0.2397  0.8666
18077TIP3    H275723   2.244   1.658  11.973  0.2017  1.5953 -1.3353
18078TIP3   OH275724   3.247   6.731  15.723 -0.7750 -0.1390 -0.1392
18078TIP3    H175725   3.334   6.713  15.757 -0.7683 -1.5834 -0.8393
18078TIP3    H275726   3.204   6.782  15.791 -0.5235 -2.2758  1.7085
18079TIP3   OH275727   1.915   5.206  12.573  0.4272  0.5062 -0.5496
18079TIP3    H175728   1.964   5.270  12.522 -0.0348  0.7111 -0.7474
18079TIP3    H275729   1.956   5.208  12.659  1.2799  0.0839 -0.9304
18080TIP3   OH275730   5.996   1.284  12.257  0.2385  0.3503  0.4557
18080TIP3    H175731   5.933   1.334  12.206  0.8137 -1.4129 -2.1920
18080TIP3    H275732   5.950   1.263  12.339 -2.2228  0.0994 -0.8985
18081TIP3   OH275733   6.601   6.596   1.779 -0.4828 -0.0571 -0.4940
18081TIP3    H175734   6.647   6.680   1.776  0.3067 -0.4538 -0.0748
18081TIP3    H275735   6.602   6.565   1.689 -1.2110  0.6016 -0.7361
18082TIP3   OH275736   2.140   0.160   2.567  0.5893 -0.1651 -0.3037
18082TIP3    H175737   2.070   0.206   2.613 -0.3334 -0.5442 -1.2890
18082TIP3    H275738   2.211   0.153   2.632  0.0758  1.0293  0.4172
18083TIP3   OH275739   2.126   1.015   3.513 -0.3060  0.8196  0.1841
18083TIP3    H175740   2.204   0.989   3.465  0.1683 -0.7607  1.7012
18083TIP3    H275741   2.091   0.933   3.548 -1.2747  1.7507  1.5295
18084TIP3   OH275742   3.830   1.648   2.156  0.2770 -0.1796 -0.3458
18084TIP3    H175743   3.796   1.596   2.228 -1.2439  0.5193 -0.5147
18084TIP3    H275744   3.842   1.586   2.084  0.5429 -0.6504  0.1029
18085TIP3   OH275745   3.112   3.317   5.406  0.4464 -0.2978 -0.5643
18085TIP3    H175746   3.157   3.400   5.390  0.2843  0.2300  1.4689
18085TIP3    H275747   3.050   3.337   5.476  0.7267 -2.2401  0.2998
18086TIP3   OH275748   4.212   2.845   3.328  0.1132  0.8188  0.0648
18086TIP3    H175749   4.159   2.912   3.372  0.5286  0.4697  1.1172
18086TIP3    H275750   4.148   2.781   3.297 -0.1405  0.7340  0.7479
18087TIP3   OH275751   1.176   6.408   0.897 -0.8934 -0.3651  0.2167
18087TIP3    H175752   1.093   6.415   0.945 -1.2791  0.4600 -0.5599
18087TIP3    H275753   1.239   6.381   0.964 -1.4801  0.4946  1.1445
18088TIP3   OH275754   5.750   6.347   4.311 -0.2898 -0.4203 -0.4844
18088TIP3    H175755   5.716   6.328   4.224  0.9381 -0.3921 -0.9876
18088TIP3    H275756   5.727   6.439   4.326 -1.4812 -0.7388 -0.3042
18089TIP3   OH275757   4.586   4.606  11.087  0.3087  0.3334 -0.0749
18089TIP3    H175758   4.528   4.596  11.012  0.1094  1.9939 -0.1822
18089TIP3    H275759   4.657   4.545  11.071 -0.3934 -0.2867 -0.9409
18090TIP3   OH275760   5.320   2.822   0.707 -0.5743  0.2455  0.0494
18090TIP3    H175761   5.310   2.881   0.632 -1.0120 -0.9569 -0.8662
18090TIP3    H275762   5.230   2.807   0.738 -0.4085  0.6110  0.7280
18091TIP3   OH275763   2.254   6.725  12.590 -0.1056 -0.0984 -0.4413
18091TIP3    H175764   2.191   6.752  12.523 -0.6244  0.4765  0.2677
18091TIP3    H275765   2.213   6.749  12.673  0.5516 -0.7603  0.0884
18092TIP3   OH275766   6.082   1.644   1.628 -0.1261  0.3315  0.2241
18092TIP3    H175767   6.014   1.672   1.567 -0.4499 -0.0887  0.3847
18092TIP3    H275768   6.081   1.548   1.622  1.6942  0.3440 -1.1282
18093TIP3   OH275769   1.485   6.793  17.225 -0.4388  0.1630  0.6107
18093TIP3    H175770   1.580   6.786  17.218 -0.5843 -2.5444  0.5883
18093TIP3    H275771   1.460   6.721  17.283 -2.5550  0.3270 -0.0290
18094TIP3   OH275772   0.774   4.007  15.690 -0.4691  0.2549 -0.2119
18094TIP3    H175773   0.869   4.001  15.680 -0.2882 -2.0632  1.7983
18094TIP3    H275774   0.751   4.093  15.656  2.4317  1.1507 -0.1578
18095TIP3   OH275775   6.661   3.176   0.932 -0.6444 -0.5639 -0.7008
18095TIP3    H175776   6.629   3.215   1.014 -0.8418 -2.0732 -0.0353
18095TIP3    H275777   6.585   3.174   0.875 -0.4627  0.6739 -1.0245
18096TIP3   OH275778   4.288   1.704   5.920 -0.1735  0.0515  0.0151
18096TIP3    H175779   4.224   1.634   5.929  0.1493 -0.0526  1.6916
18096TIP3    H275780   4.337   1.704   6.002 -0.4783  2.5513  0.2915
18097TIP3   OH275781   6.589   2.917   5.856  0.1447 -0.3280 -0.1151
18097TIP3    H175782   6.577   3.011   5.869  0.6658 -0.1549 -0.8826
18097TIP3    H275783   6.509   2.888   5.813  0.0516 -0.2120 -0.0217
18098TIP3   OH275784   2.235   4.614  15.402 -0.1561 -0.0180 -0.0500
18098TIP3    H175785   2.251   4.584  15.312 -1.0438 -1.6760  0.3036
18098TIP3    H275786   2.323   4.622  15.440  0.1950 -0.0403 -0.8361
18099TIP3   OH275787   3.698   0.964  13.094 -0.2241 -0.1076 -0.3278
18099TIP3    H175788   3.783   0.921  13.104 -0.0597  0.1395 -0.6371
18099TIP3    H275789   3.708   1.020  13.017 -0.5633  0.1724 -0.1738
18100TIP3   OH275790   4.569   2.255   1.254 -0.2692 -0.8339  0.5371
18100TIP3    H175791   4.473   2.264   1.249 -0.2735 -0.8477  0.5969
18100TIP3    H275792   4.588   2.173   1.210 -0.0860  0.1778 -1.3606
18101TIP3   OH275793   5.406   4.461   4.327  0.1327 -0.7204  0.6315
18101TIP3    H175794   5.401   4.525   4.256  2.0172 -0.8823  0.3122
18101TIP3    H275795   5.350   4.496   4.395 -0.2354  0.3870 -0.2117
18102TIP3   OH275796   0.194   2.666  17.014 -0.6519  0.5924  0.2642
18102TIP3    H175797   0.159   2.670  16.924  0.5182  1.1640 -0.1780
18102TIP3    H275798   0.116   2.665  17.069 -1.3926  1.4086 -0.7151
18103TIP3   OH275799   4.030   3.021   3.917 -0.0407  0.3937  0.2802
18103TIP3    H175800   4.048   3.039   4.009 -1.4883  1.9287  0.3209
18103TIP3    H275801   4.002   3.105   3.882  1.8706  0.1866 -1.9610
18104TIP3   OH275802   3.140   2.488  13.562 -0.1972  0.4288 -0.1592
18104TIP3    H175803   3.149   2.581  13.539  0.3895  1.1913  2.7407
18104TIP3    H275804   3.143   2.487  13.658  0.0389 -2.6272 -0.1148
18105TIP3   OH275805   6.010   4.364  10.825  0.3664 -0.7330  0.0798
18105TIP3    H175806   6.104   4.348  10.818 -0.1505 -5.5632  0.3097
18105TIP3    H275807   5.976   4.350  10.736 -0.1569  1.7012 -0.1604
18106TIP3   OH275808   1.315   2.361  17.062  0.5472  0.6363  0.3228
18106TIP3    H175809   1.329   2.280  17.111 -0.9477 -0.3593 -0.8230
18106TIP3    H275810   1.261   2.415  17.120  0.1723  0.1380  0.4503
18107TIP3   OH275811   2.664   1.367   3.940  0.2079  0.1655  0.5209
18107TIP3    H175812   2.726   1.305   3.976  0.2267  0.9440  1.8848
18107TIP3    H275813   2.718   1.441   3.911  0.3137 -0.8234 -2.1249
18108TIP3   OH275814   5.020   4.618  14.937 -0.5432  0.2907 -0.3470
18108TIP3    H175815   5.110   4.648  14.926 -0.2015 -0.7545 -0.4648
18108TIP3    H275816   4.978   4.637  14.853  0.0629 -0.8603 -0.9285
18109TIP3   OH275817   3.774   0.362   4.614  0.3989  0.1245 -0.4118
18109TIP3    H175818   3.747   0.272   4.594  0.8778  0.3143 -2.0282
18109TIP3    H275819   3.692   0.408   4.634  0.1538 -0.6652  0.4647
18110TIP3   OH275820   3.792   1.189   2.811 -0.3099  0.1653 -0.0027
18110TIP3    H175821   3.871   1.138   2.791 -0.6705 -0.5939  0.4727
18110TIP3    H275822   3.825   1.272   2.843  0.3070 -0.2178  0.3819
18111TIP3   OH275823   2.308   6.052  14.074  0.1995 -0.1811  0.0126
18111TIP3    H175824   2.337   6.014  13.991 -0.7534 -0.8102 -0.0592
18111TIP3    H275825   2.230   6.103  14.051 -0.7436 -1.2661  0.6499
18112TIP3   OH275826   0.063   3.432  14.131 -0.4553  0.2086  0.2785
18112TIP3    H175827   0.015   3.368  14.183  0.4793  0.4207  1.4552
18112TIP3    H275828   0.149   3.436  14.172 -0.4306  2.0802  0.1128
18113TIP3   OH275829   3.223   6.398  16.932  0.4024  0.0715 -0.0313
18113TIP3    H175830   3.211   6.459  16.859 -0.1509  0.3842  0.3143
18113TIP3    H275831   3.177   6.439  17.005  0.8028 -0.3285  0.4465
18114TIP3   OH275832   4.122   1.928   0.056 -0.0389  0.4741 -0.2947
18114TIP3    H175833   4.129   2.019   0.085 -0.0074  0.3515  0.1014
18114TIP3    H275834   4.144   1.930  -0.037  2.3715  0.5326  0.2187
18115TIP3   OH275835   1.306   1.363   1.794 -0.0060 -0.6508 -0.4458
18115TIP3    H175836   1.348   1.298   1.738  0.2600 -0.3687 -0.5717
18115TIP3    H275837   1.296   1.440   1.738 -0.4581 -0.6293 -0.3427
18116TIP3   OH275838   6.323   5.017   4.739 -0.5531 -0.3135 -0.1652
18116TIP3    H175839   6.291   5.106   4.726 -1.2297 -0.6487 -0.8690
18116TIP3    H275840   6.247   4.969   4.772 -0.6224 -0.9735 -1.2478
18117TIP3   OH275841   5.396   4.644  15.458 -0.7665 -0.2467 -0.1378
18117TIP3    H175842   5.419   4.629  15.367 -0.5563  0.9016 -0.2895
18117TIP3    H275843   5.302   4.662  15.457 -0.6667  0.2693 -0.1914
18118TIP3   OH275844   1.011   1.510  16.853  0.5287  0.1798  0.3616
18118TIP3    H175845   0.965   1.531  16.934  1.0413  1.7372  0.2788
18118TIP3    H275846   1.022   1.415  16.855  0.8355  0.2259  2.2784
18119TIP3   OH275847   5.996   2.815  12.946  0.4419 -0.6669 -0.6501
18119TIP3    H175848   5.919   2.865  12.919  0.4186 -0.7346 -0.7092
18119TIP3    H275849   6.062   2.835  12.881  0.8063  0.2111 -0.0186
18120TIP3   OH275850   4.346   2.200  16.309 -0.2964 -0.5553 -0.3401
18120TIP3    H175851   4.319   2.118  16.268 -1.2810 -0.9399  0.9969
18120TIP3    H275852   4.275   2.261  16.288 -0.6695 -0.6785  0.5255
18121TIP3   OH275853   2.242   5.501   4.355  0.0023 -0.1915  0.4468
18121TIP3    H175854   2.273   5.532   4.440  0.8438 -0.7416  0.3480
18121TIP3    H275855   2.243   5.579   4.299  0.1939  0.0159  0.7368
18122TIP3   OH275856   2.358   4.460  13.993 -0.3492  0.7628 -0.1818
18122TIP3    H175857   2.387   4.406  13.920  1.1432  0.5949  0.4901
18122TIP3    H275858   2.267   4.482  13.973 -0.9724 -1.8707 -0.5568
18123TIP3   OH275859   0.832   1.513  13.362  0.0076  0.1629  0.0428
18123TIP3    H175860   0.794   1.427  13.343 -2.2131  0.8904  0.9056
18123TIP3    H275861   0.884   1.534  13.284  0.1738 -1.7028 -0.3979
18124TIP3   OH275862   4.656   1.735   5.906 -0.5363 -0.1564 -0.5440
18124TIP3    H175863   4.611   1.666   5.955 -0.5218 -0.2088 -0.6040
18124TIP3    H275864   4.641   1.814   5.957  2.1410 -0.7146  1.2967
18125TIP3   OH275865   0.165   5.783  15.697  0.8008  0.4068  0.0605
18125TIP3    H175866   0.242   5.756  15.647  1.8143 -0.1777  1.8179
18125TIP3    H275867   0.200   5.844  15.763 -0.1144 -0.3651  1.2999
18126TIP3   OH275868   1.542   2.620   2.769 -1.1154  0.4028  0.5545
18126TIP3    H175869   1.449   2.621   2.749 -0.8241  0.4298 -0.8971
18126TIP3    H275870   1.578   2.694   2.719 -0.3624  0.6143  1.3771
18127TIP3   OH275871   5.141   2.329   6.000 -0.2173  0.3419  0.0955
18127TIP3    H175872   5.217   2.367   5.955  0.0166 -0.1060  0.1035
18127TIP3    H275873   5.176   2.251   6.043 -0.5072  0.5914  0.7883
18128TIP3   OH275874   5.007   1.236   0.068  0.3091 -0.3372  0.2761
18128TIP3    H175875   5.011   1.327   0.040 -0.3293 -0.2185  0.5657
18128TIP3    H275876   5.099   1.212   0.085  0.2861  1.1277  2.9998
18129TIP3   OH275877   5.885   0.512  13.402 -0.7307  0.0180 -0.1103
18129TIP3    H175878   5.863   0.448  13.470 -0.8225 -1.8444 -1.7839
18129TIP3    H275879   5.978   0.527  13.413 -0.8276  0.0778  0.6914
18130TIP3   OH275880   5.431   3.906  14.781  0.2935 -0.7417 -0.5700
18130TIP3    H175881   5.496   3.961  14.737  2.0864 -0.0788  2.5875
18130TIP3    H275882   5.359   3.966  14.802  0.7389 -0.3426 -0.1230
18131TIP3   OH275883   4.741   5.193  15.099 -0.2164  0.2946  0.0744
18131TIP3    H175884   4.706   5.276  15.067  0.6863  0.2057 -1.2080
18131TIP3    H275885   4.664   5.137  15.109 -1.0588  1.7141  2.4964
18132TIP3   OH275886   0.213   4.823   2.266  0.4384 -0.6371 -0.0561
18132TIP3    H175887   0.167   4.742   2.245  0.2759 -0.3445 -0.8697
18132TIP3    H275888   0.143   4.885   2.288  0.4611 -0.3328 -0.8067
18133TIP3   OH275889   2.197   5.407   2.111 -0.1034  0.3853 -0.2728
18133TIP3    H175890   2.205   5.485   2.166  0.6038  0.1573 -0.0413
18133TIP3    H275891   2.249   5.340   2.156 -0.5107 -0.1505 -0.5901
18134TIP3   OH275892   4.531   4.478   5.135  0.2572  0.2888  0.5482
18134TIP3    H175893   4.601   4.510   5.078  1.0025 -2.1517 -0.0257
18134TIP3    H275894   4.511   4.391   5.101 -1.5439  0.0586  2.0758
18135TIP3   OH275895   6.035   5.024  16.706 -0.2164 -0.4295 -0.1656
18135TIP3    H175896   6.035   5.051  16.614  0.0384 -0.3388 -0.1395
18135TIP3    H275897   6.128   5.021  16.731 -0.1954 -1.8105 -0.3077
18136TIP3   OH275898   4.314   0.678   2.016 -0.4012  0.4472 -0.7250
18136TIP3    H175899   4.229   0.713   2.042 -0.4083  1.5484 -2.1338
18136TIP3    H275900   4.371   0.755   2.009  1.3446 -0.4233  2.2004
18137TIP3   OH275901   5.939   2.396   3.613 -0.1164 -0.2087  0.4016
18137TIP3    H175902   5.885   2.389   3.535 -0.3305 -0.1529  0.5445
18137TIP3    H275903   5.908   2.475   3.657 -0.7536 -0.8367  1.1139
18138TIP3   OH275904   0.174   5.895  11.280 -0.5591  0.6642 -0.0348
18138TIP3    H175905   0.087   5.935  11.275 -0.4133  1.3634  2.3012
18138TIP3    H275906   0.234   5.968  11.297  0.2995 -0.0014 -0.1328
18139TIP3   OH275907   2.182   2.570   2.565  0.0007  1.4314  0.1424
18139TIP3    H175908   2.213   2.657   2.590  1.2428  1.0189  0.0982
18139TIP3    H275909   2.180   2.521   2.647 -0.0599  1.3172  0.0730
18140TIP3   OH275910   4.516   5.543   0.331 -0.1917 -0.2232  0.2149
18140TIP3    H175911   4.596   5.558   0.380  0.7173 -3.3670 -0.0746
18140TIP3    H275912   4.446   5.543   0.397  0.5385 -0.8730  1.0103
18141TIP3   OH275913   2.379   5.885  12.665  0.1022  0.3192  0.1256
18141TIP3    H175914   2.328   5.804  12.663 -0.8232  0.8865 -1.2681
18141TIP3    H275915   2.399   5.903  12.574  1.8051  0.7700  0.5579
18142TIP3   OH275916   4.713   3.383   6.480  0.1806 -0.2466 -0.2405
18142TIP3    H175917   4.656   3.386   6.404 -0.4853  1.0015  0.2792
18142TIP3    H275918   4.664   3.333   6.545  1.2908 -2.4709 -1.0045
18143TIP3   OH275919   5.315   4.400   1.599 -0.1812 -0.0485  0.2275
18143TIP3    H175920   5.402   4.438   1.607  0.1522 -0.5927 -0.6114
18143TIP3    H275921   5.285   4.428   1.512 -0.5971 -0.3404  0.2754
18144TIP3   OH275922   5.333   1.989   5.998  0.0744 -0.7230  0.0388
18144TIP3    H175923   5.322   2.047   6.073 -1.2023 -2.1292  1.0175
18144TIP3    H275924   5.427   1.989   5.981  0.0894  1.9760 -0.3580
18145TIP3   OH275925   4.346   6.267  15.621 -0.2856  0.0678 -0.4453
18145TIP3    H175926   4.310   6.179  15.612  3.5771 -1.8050  0.2921
18145TIP3    H275927   4.364   6.276  15.715 -0.4227  1.5411 -0.5466
18146TIP3   OH275928   3.904   2.457   6.112 -0.4639  0.7039 -0.3089
18146TIP3    H175929   3.902   2.539   6.160 -1.1570  0.6939 -0.3191
18146TIP3    H275930   3.838   2.467   6.044 -0.3932  0.2262 -0.4517
18147TIP3   OH275931   6.522   0.891   0.475 -0.2255 -0.4093  0.6416
18147TIP3    H175932   6.564   0.834   0.539 -1.2089  0.1549  1.8318
18147TIP3    H275933   6.555   0.979   0.496 -1.0968 -0.1231  0.8527
18148TIP3   OH275934   6.085   3.816   2.295  0.5133  0.3876 -0.5674
18148TIP3    H175935   6.007   3.827   2.240  0.9956  0.3443 -1.2711
18148TIP3    H275936   6.054   3.833   2.384 -0.8832 -2.0728 -0.4865
18149TIP3   OH275937   0.314   1.195  15.005 -0.6431  0.0142 -0.1105
18149TIP3    H175938   0.392   1.217  15.057 -1.2116  0.3643  0.6188
18149TIP3    H275939   0.242   1.236  15.052 -1.1641  0.4845 -1.2773
18150TIP3   OH275940   0.942   3.455   5.319 -0.0231  0.3309 -0.2776
18150TIP3    H175941   0.892   3.518   5.371  1.1181  0.6816  0.4375
18150TIP3    H275942   1.010   3.507   5.277  1.0127 -0.4148  0.4222
18151TIP3   OH275943   2.032   1.093   5.476 -0.2212  0.5682  0.5134
18151TIP3    H175944   1.960   1.095   5.539  0.1124 -0.9939  0.9891
18151TIP3    H275945   2.104   1.049   5.522 -0.2478 -1.4152 -1.1594
18152TIP3   OH275946   5.773   2.055  12.575 -0.1946  0.2445  0.0093
18152TIP3    H175947   5.737   1.982  12.524 -1.9752  0.7953  0.3970
18152TIP3    H275948   5.761   2.131  12.519  0.9573  0.3799 -0.0817
18153TIP3   OH275949   6.465   5.601   4.345  0.3179 -0.2061  0.2836
18153TIP3    H175950   6.494   5.546   4.271 -1.0483  0.9229 -1.1687
18153TIP3    H275951   6.546   5.626   4.389  1.1886 -0.9460 -0.8258
18154TIP3   OH275952   4.735   2.991   2.572 -0.1101 -0.8220  0.8224
18154TIP3    H175953   4.660   3.047   2.555  0.5926 -0.0131  0.3322
18154TIP3    H275954   4.759   3.010   2.663  1.1753  1.0186  0.1746
18155TIP3   OH275955   0.131   2.013   1.133 -0.0930 -0.0815  0.5292
18155TIP3    H175956   0.082   1.941   1.173 -0.1965  0.0642  0.6630
18155TIP3    H275957   0.213   2.018   1.183  0.6698 -1.2016 -0.5262
18156TIP3   OH275958   6.378   2.638  15.017 -0.1521  0.2709  0.2186
18156TIP3    H175959   6.455   2.684  15.051 -0.3638 -0.0756  1.1864
18156TIP3    H275960   6.321   2.708  14.986  1.2882  0.4786 -2.2017
18157TIP3   OH275961   4.861   2.218   4.049 -0.4884  1.1098  0.5059
18157TIP3    H175962   4.887   2.149   3.989 -0.6009  3.3907 -2.3590
18157TIP3    H275963   4.942   2.246   4.091  0.1163  1.4418 -0.8420
18158TIP3   OH275964   5.369   1.246  13.022  0.8855  0.8959  0.0096
18158TIP3    H175965   5.318   1.273  13.099 -0.2592  0.6588 -0.6467
18158TIP3    H275966   5.428   1.319  13.006  1.2608  0.8891  1.2089
18159TIP3   OH275967   4.720   1.544   2.462  0.0643 -0.1068 -0.2339
18159TIP3    H175968   4.765   1.596   2.397  1.9826 -1.8550 -0.4170
18159TIP3    H275969   4.777   1.546   2.539 -0.9299 -0.1141  0.5331
18160TIP3   OH275970   3.372   1.000  10.918 -0.1984 -0.3124  0.3040
18160TIP3    H175971   3.359   1.039  10.832  0.1397 -0.0154  0.3838
18160TIP3    H275972   3.303   0.935  10.926  1.0646 -1.9257 -1.1071
18161TIP3   OH275973   0.762   2.293  15.598  0.5356 -0.2934 -0.5474
18161TIP3    H175974   0.790   2.260  15.513  1.0437  0.3447 -0.6364
18161TIP3    H275975   0.708   2.223  15.635  0.2438 -0.5361 -1.4284
18162TIP3   OH275976   5.735   0.603  15.483  0.0472 -0.2796 -0.7248
18162TIP3    H175977   5.793   0.670  15.446  1.0347 -1.0342 -0.6017
18162TIP3    H275978   5.740   0.615  15.577 -0.4027 -0.0180 -0.7350
18163TIP3   OH275979   6.333   0.956   4.407  0.3757  0.4914  0.4393
18163TIP3    H175980   6.358   0.946   4.499 -0.8109  0.5157  0.7895
18163TIP3    H275981   6.238   0.942   4.407  0.7504 -3.3003 -1.3104
18164TIP3   OH275982   4.693   2.822  15.843 -0.0611 -0.1879  0.2354
18164TIP3    H175983   4.772   2.818  15.897  1.5109 -2.1280 -1.9875
18164TIP3    H275984   4.650   2.738  15.858  0.4984 -0.8419 -1.5284
18165TIP3   OH275985   5.853   0.834   3.995  0.9392 -0.0678 -0.2634
18165TIP3    H175986   5.791   0.762   4.004  0.8816 -0.0354 -0.4026
18165TIP3    H275987   5.938   0.795   4.014  0.7166  0.2405  1.5874
18166TIP3   OH275988   2.507   3.100   0.177  0.5177  0.2002 -0.8238
18166TIP3    H175989   2.527   3.006   0.177 -1.0793 -0.1776 -1.2792
18166TIP3    H275990   2.415   3.104   0.150  0.3325  1.8561 -0.0178
18167TIP3   OH275991   0.084   1.978   2.285 -0.6288 -0.7129 -0.6632
18167TIP3    H175992   0.132   1.962   2.366  0.3876  1.5148 -0.7605
18167TIP3    H275993   0.150   1.976   2.216 -1.2898 -1.3652 -1.2963
18168TIP3   OH275994   4.558   1.070  11.166 -0.1446  0.0596  0.1441
18168TIP3    H175995   4.606   1.083  11.084 -1.0612 -1.5049 -0.6818
18168TIP3    H275996   4.576   1.149  11.217  2.4910 -0.0405 -0.5156
18169TIP3   OH275997   0.613   1.854   2.344  0.3678 -0.2666  0.2478
18169TIP3    H175998   0.623   1.948   2.330 -2.1355 -0.1404 -1.0594
18169TIP3    H275999   0.703   1.820   2.341  1.1405  1.7476 -1.6945
18170TIP3   OH276000   5.109   4.116  12.830 -0.1152 -0.2771  0.2951
18170TIP3    H176001   5.178   4.090  12.891  0.9524  1.1262 -0.2570
18170TIP3    H276002   5.119   4.056  12.756  0.5041 -0.1195  0.2400
18171TIP3   OH276003   4.101   5.970  14.579  0.4724 -0.1229 -0.2796
18171TIP3    H176004   4.142   6.039  14.527  0.0900  2.0695  2.0968
18171TIP3    H276005   4.054   5.916  14.516  3.4082 -0.1871 -2.6068
18172TIP3   OH276006   2.586   1.603   5.680  0.1154  0.2296  0.2649
18172TIP3    H176007   2.607   1.601   5.774  1.2572 -0.6741 -0.0076
18172TIP3    H276008   2.565   1.513   5.658 -0.0621  0.4272 -0.3864
18173TIP3   OH276009   0.544   2.011   5.156  0.5557 -0.1751  0.5136
18173TIP3    H176010   0.560   2.068   5.081 -1.1929 -1.5928 -1.0351
18173TIP3    H276011   0.630   2.002   5.198  2.1769 -1.0386 -2.6058
18174TIP3   OH276012   1.017   4.657   2.026  0.3739  0.5800 -0.1313
18174TIP3    H176013   0.972   4.590   2.076  1.0998  1.3147  1.6011
18174TIP3    H276014   0.947   4.715   1.995 -0.2227 -0.7587 -1.3774
18175TIP3   OH276015   0.152   4.233  16.384  0.6651 -0.4591  0.6054
18175TIP3    H176016   0.179   4.321  16.356  0.5403 -0.7533 -0.4896
18175TIP3    H276017   0.057   4.233  16.375  0.8472 -1.6577 -2.4879
18176TIP3   OH276018   5.868   1.631  16.608 -0.1052 -0.0041 -0.0016
18176TIP3    H176019   5.788   1.651  16.559  0.1440 -0.8809 -0.7998
18176TIP3    H276020   5.935   1.620  16.540 -0.1155 -2.9586  0.3610
18177TIP3   OH276021   6.649   5.436   5.669 -0.1695  0.4779 -0.4373
18177TIP3    H176022   6.584   5.389   5.617 -0.5071  1.1371 -0.6174
18177TIP3    H276023   6.695   5.491   5.606 -0.1886  0.8472 -0.1351
18178TIP3   OH276024   0.402   3.550   5.475 -0.4295 -0.5851 -0.0051
18178TIP3    H176025   0.380   3.457   5.469  2.2684 -1.2324 -0.9686
18178TIP3    H276026   0.362   3.588   5.396 -2.7662 -0.5451  1.0925
18179TIP3   OH276027   1.433   2.732  10.606  0.3133  0.4341  0.6113
18179TIP3    H176028   1.390   2.658  10.649 -0.2251  0.3858 -0.0081
18179TIP3    H276029   1.527   2.713  10.616  0.1873  0.0422  1.1002
18180TIP3   OH276030   6.434   6.715  14.132  0.2274  0.0186  0.6347
18180TIP3    H176031   6.405   6.737  14.043  0.8789  0.2886  0.4849
18180TIP3    H276032   6.520   6.675  14.120 -0.9246 -2.7834  0.8882
18181TIP3   OH276033   1.882   4.039   1.658 -0.3316 -0.0117  0.2663
18181TIP3    H176034   1.934   4.010   1.583  1.4327 -2.5766  2.2557
18181TIP3    H276035   1.791   4.022   1.634  0.1003  0.2045 -1.6244
18182TIP3   OH276036   0.761   1.491   5.875 -1.0709  0.0727  0.6280
18182TIP3    H176037   0.684   1.447   5.837 -1.9319  0.7270  1.5810
18182TIP3    H276038   0.729   1.576   5.903 -0.2500 -0.0615  2.0425
18183TIP3   OH276039   6.318   5.235   0.431 -0.4002  0.2986 -0.3953
18183TIP3    H176040   6.372   5.164   0.397 -1.2115 -0.5681  0.0867
18183TIP3    H276041   6.232   5.220   0.392 -0.6590  0.8427 -0.0464
18184TIP3   OH276042   0.716   2.041  13.256  0.5196  0.1047  0.3916
18184TIP3    H176043   0.677   1.955  13.240  2.8308 -0.8232 -0.6283
18184TIP3    H276044   0.646   2.103  13.235 -0.7503 -1.4832 -0.2733
18185TIP3   OH276045   5.168   5.700   0.696 -0.2507  0.3116 -0.3008
18185TIP3    H176046   5.092   5.717   0.641 -1.0584 -0.8429  0.4075
18185TIP3    H276047   5.230   5.653   0.640 -0.6713 -0.0194 -0.4860
18186TIP3   OH276048   5.490   4.545  16.583  0.0322  0.0133 -0.5723
18186TIP3    H176049   5.574   4.535  16.538  0.5978 -1.4516  0.7225
18186TIP3    H276050   5.429   4.491  16.534  0.1914 -0.0624 -0.6860
18187TIP3   OH276051   3.822   0.057  13.872 -0.2707  1.0835 -0.4972
18187TIP3    H176052   3.821   0.026  13.781 -1.7819 -2.6803  0.6030
18187TIP3    H276053   3.729   0.067  13.894 -0.3191 -2.9103  1.9073
18188TIP3   OH276054   0.151   0.726  14.206  0.5457  0.7892 -0.4298
18188TIP3    H176055   0.218   0.712  14.140 -1.9072  2.2069 -3.4604
18188TIP3    H276056   0.092   0.651  14.197  0.2749  0.9047  0.2822
18189TIP3   OH276057   1.392   1.453  13.831  0.4759 -0.2760  0.1021
18189TIP3    H176058   1.386   1.517  13.903 -2.4410 -0.4583  0.1450
18189TIP3    H276059   1.427   1.503  13.758  1.1587  0.5685  0.9748
18190TIP3   OH276060   1.782   1.086   5.599 -0.2008  0.1580  0.4164
18190TIP3    H176061   1.713   1.080   5.532  1.4120 -0.4393 -1.2740
18190TIP3    H276062   1.770   1.173   5.637 -0.2178  1.1911 -1.7881
18191TIP3   OH276063   4.824   5.286   3.183 -0.5727  0.1835  0.8250
18191TIP3    H176064   4.858   5.365   3.225 -1.6323  1.6876 -0.9883
18191TIP3    H276065   4.735   5.278   3.216  0.0703 -1.3530  2.3627
18192TIP3   OH276066   2.721   1.345  13.994  0.1812 -0.1981 -0.6100
18192TIP3    H176067   2.634   1.309  14.013  0.2240 -0.9502 -1.7608
18192TIP3    H276068   2.703   1.431  13.954  0.0853  1.3059  2.3719
18193TIP3   OH276069   6.619   4.247  12.034 -0.2291 -0.3106  0.5417
18193TIP3    H176070   6.684   4.251  11.964 -0.3365 -1.1435  0.3868
18193TIP3    H276071   6.626   4.158  12.069 -2.1804 -0.8821 -0.3669
18194TIP3   OH276072   4.683   1.582   1.246 -0.2787  0.1328 -0.2423
18194TIP3    H176073   4.740   1.645   1.292 -1.3570 -0.0788  1.4790
18194TIP3    H276074   4.641   1.634   1.178 -0.1882  0.9999  0.3368
18195TIP3   OH276075   2.367   5.833   3.105 -0.7755  0.0382  0.7083
18195TIP3    H176076   2.286   5.843   3.056 -1.3478  1.8392  1.9079
18195TIP3    H276077   2.343   5.853   3.196  1.1163  1.3728  0.9823
18196TIP3   OH276078   5.466   2.508  13.057 -0.1074 -0.2343 -0.2098
18196TIP3    H176079   5.373   2.533  13.055  0.1086  0.7591 -3.2314
18196TIP3    H276080   5.482   2.470  12.971  2.2658 -0.6072  0.3359
18197TIP3   OH276081   2.435   5.066  11.504  0.0180 -0.5630  0.6964
18197TIP3    H176082   2.473   5.120  11.573 -0.7897  0.9599  0.0047
18197TIP3    H276083   2.341   5.081  11.510 -0.2088 -1.7163  0.3210
18198TIP3   OH276084   6.100   6.573  13.690  0.7630 -0.0185 -0.6659
18198TIP3    H176085   6.106   6.536  13.602  3.7445 -0.0311 -0.5464
18198TIP3    H276086   6.036   6.644  13.681 -1.1534 -1.7798 -2.1030
18199TIP3   OH276087   6.248   4.472   5.490 -0.6803 -0.5236  0.1822
18199TIP3    H176088   6.311   4.528   5.445 -2.5875  0.1670 -1.8293
18199TIP3    H276089   6.274   4.383   5.466 -0.1964 -0.2791 -0.2303
18200TIP3   OH276090   3.684   1.670  13.679  0.2999  0.3345 -0.1749
18200TIP3    H176091   3.688   1.735  13.609  0.2614  0.0669 -0.4248
18200TIP3    H276092   3.717   1.716  13.756  1.5227  0.2608 -0.6331
18201TIP3   OH276093   0.519   0.740  12.480 -0.3475  0.0560  0.1257
18201TIP3    H176094   0.562   0.699  12.405 -1.8714 -1.2596 -0.0768
18201TIP3    H276095   0.459   0.674  12.513 -1.5059  1.4638  0.9901
18202TIP3   OH276096   0.539   5.833  12.851 -0.0377  0.3670  0.2442
18202TIP3    H176097   0.471   5.824  12.784  0.4392 -0.2705 -0.1670
18202TIP3    H276098   0.610   5.879  12.805  0.3161 -0.1292  0.2948
18203TIP3   OH276099   2.781   6.238  16.857 -0.5475 -0.2232 -0.3942
18203TIP3    H176100   2.777   6.305  16.789 -0.9253 -0.3956 -0.5448
18203TIP3    H276101   2.794   6.286  16.938 -0.9696  0.0412 -0.4829
18204TIP3   OH276102   2.761   4.262  12.704 -0.2486 -0.4367  0.2616
18204TIP3    H176103   2.685   4.281  12.648  0.3112 -0.4616 -0.5158
18204TIP3    H276104   2.812   4.343  12.704 -0.9642  0.0633  1.9321
18205TIP3   OH276105   0.815   0.153   3.361  0.1225  0.2927  0.0390
18205TIP3    H176106   0.807   0.242   3.395 -1.6871 -0.0398  0.5664
18205TIP3    H276107   0.843   0.101   3.437 -0.5746  0.1228  0.1846
18206TIP3   OH276108   6.281   0.134  17.127 -0.0651 -0.0444  0.4133
18206TIP3    H176109   6.339   0.204  17.159  0.0421  0.1009 -0.0867
18206TIP3    H276110   6.213   0.127  17.194 -0.0685  0.5317  0.4778
18207TIP3   OH276111   5.102   6.772  15.458  0.6557  0.2481  0.2013
18207TIP3    H176112   5.140   6.798  15.374 -1.3370  1.3354 -0.4193
18207TIP3    H276113   5.039   6.703  15.435  0.9353 -0.2751  0.9704
18208TIP3   OH276114   4.788   0.637   1.702  0.3191 -0.3526 -0.2030
18208TIP3    H176115   4.708   0.655   1.751  0.8615 -0.8354  0.9061
18208TIP3    H276116   4.772   0.674   1.615 -0.3376  1.3678  0.5974
18209TIP3   OH276117   6.675   5.651   5.836 -0.0458 -0.5879 -0.1576
18209TIP3    H176118   6.720   5.716   5.783  1.3076 -1.2288  0.1595
18209TIP3    H276119   6.672   5.573   5.781 -1.7877 -0.2532 -0.5947
18210TIP3   OH276120   4.785   6.371   2.462  0.2249  0.6521 -0.2142
18210TIP3    H176121   4.791   6.378   2.558  0.4784  1.7381 -0.2992
18210TIP3    H276122   4.695   6.344   2.446  0.7309 -1.6525  0.4160
18211TIP3   OH276123   2.926   6.099   2.767  0.1017 -0.2490  0.1109
18211TIP3    H176124   2.893   6.083   2.678  0.3859  3.4539 -0.8381
18211TIP3    H276125   2.890   6.184   2.791  2.8422  0.4904  2.1006
18212TIP3   OH276126   5.244   1.504   0.291  0.6627  0.0678  0.2071
18212TIP3    H176127   5.238   1.409   0.289 -1.4749  0.1046 -3.1294
18212TIP3    H276128   5.307   1.525   0.221 -0.6017  1.0960 -0.6606
18213TIP3   OH276129   6.601   4.951  13.205  0.0513  0.1208  0.1398
18213TIP3    H176130   6.673   4.904  13.248  0.0600  1.0730  1.2049
18213TIP3    H276131   6.611   5.041  13.234 -0.0664  0.7848 -1.7559
18214TIP3   OH276132   5.002   0.970   3.367  0.1528 -0.4242  0.6684
18214TIP3    H176133   5.002   0.898   3.430  1.4012  0.5684  1.8777
18214TIP3    H276134   4.911   0.998   3.363 -0.0538 -0.9091  1.5751
18215TIP3   OH276135   3.936   3.505  10.518  0.0782 -0.2480  0.3437
18215TIP3    H176136   4.030   3.500  10.534  0.2204  1.8742  0.3780
18215TIP3    H276137   3.926   3.577  10.455 -1.5830  0.1034  0.9599
18216TIP3   OH276138   0.317   4.261   4.154 -0.0535  0.2649 -0.2535
18216TIP3    H176139   0.367   4.181   4.135  0.3110  0.5912 -0.6981
18216TIP3    H276140   0.227   4.230   4.167  0.6421 -0.6410  3.1096
18217TIP3   OH276141   1.621   5.303  12.956  0.2096  0.1915 -0.0899
18217TIP3    H176142   1.541   5.250  12.956  0.6630 -0.5551  0.9665
18217TIP3    H276143   1.658   5.289  13.044  2.6965 -1.3760 -1.2547
18218TIP3   OH276144   4.036   5.604   4.998  0.0186 -0.3712  0.0269
18218TIP3    H176145   4.017   5.681   4.945  0.2001  0.8815  1.7108
18218TIP3    H276146   3.962   5.546   4.983 -2.4105  1.9512  1.9392
18219TIP3   OH276147   2.108   4.331  17.122 -0.3305 -0.0908 -0.1840
18219TIP3    H176148   2.123   4.336  17.028 -0.5198  1.9004 -0.1395
18219TIP3    H276149   2.193   4.348  17.161 -0.0480 -1.8181  0.0487
18220TIP3   OH276150   5.858   3.035   4.400 -0.1077  0.6542 -0.2663
18220TIP3    H176151   5.936   3.053   4.346  0.1963  0.5497  0.1336
18220TIP3    H276152   5.866   3.096   4.473 -1.1746  1.6820 -0.9716
18221TIP3   OH276153   3.088   4.194   1.956  0.2700 -0.2559 -0.3961
18221TIP3    H176154   3.131   4.128   1.903  1.1204 -0.1586  0.1620
18221TIP3    H276155   3.107   4.170   2.047  2.4456  1.9069 -0.1691
18222TIP3   OH276156   5.060   2.444   5.411  0.1788 -0.0238  0.1833
18222TIP3    H176157   5.151   2.439   5.441  0.5090 -0.0507 -0.8083
18222TIP3    H276158   5.013   2.382   5.467  0.9715 -0.8237 -0.0318
18223TIP3   OH276159   6.296   2.577   6.594 -0.3671 -0.5193 -0.8940
18223TIP3    H176160   6.347   2.506   6.633  0.2748 -0.0368 -0.8377
18223TIP3    H276161   6.220   2.585   6.652  0.8093  0.5150  0.6102
18224TIP3   OH276162   1.236   0.578   3.776  0.1323  0.0714  0.6933
18224TIP3    H176163   1.176   0.649   3.799 -0.5481  0.5982 -2.3876
18224TIP3    H276164   1.179   0.506   3.747  0.9064 -0.7423  1.1326
18225TIP3   OH276165   2.687   0.883   0.009 -0.0604  0.2228 -0.3421
18225TIP3    H176166   2.738   0.905  -0.068 -1.4184 -0.9270 -1.6371
18225TIP3    H276167   2.607   0.934   0.001 -0.9887 -1.2348 -0.6710
18226TIP3   OH276168   2.945   0.358   6.045  0.0065 -0.0653 -0.2361
18226TIP3    H176169   3.004   0.309   6.103  0.3674  1.4171  0.7008
18226TIP3    H276170   2.860   0.356   6.090  0.1275  0.5160  0.0297
18227TIP3   OH276171   5.316   3.509  13.348  0.8502  0.2741  0.4369
18227TIP3    H176172   5.227   3.476  13.341  0.6128  0.8613  0.6444
18227TIP3    H276173   5.332   3.554  13.264  1.0987 -0.1741  0.2393
18228TIP3   OH276174   2.038   1.083  13.748  0.2288 -0.4893  0.2932
18228TIP3    H176175   2.062   1.008  13.802  1.1119  0.4226  1.2198
18228TIP3    H276176   1.942   1.087  13.753  0.2816 -0.3874  1.8920
18229TIP3   OH276177   5.315   4.775   5.729 -0.2105 -0.0718  0.3795
18229TIP3    H176178   5.362   4.848   5.771  0.9795 -1.2436  1.1762
18229TIP3    H276179   5.223   4.791   5.750  0.1127  0.7517  1.2733
18230TIP3   OH276180   6.512   5.815   1.158 -0.5178  0.1891  0.3310
18230TIP3    H176181   6.551   5.900   1.177 -2.2623  0.8427  1.1727
18230TIP3    H276182   6.579   5.751   1.184  0.4799  1.2693  0.4909
18231TIP3   OH276183   0.920   3.230   4.005 -0.0456  0.6182  0.3634
18231TIP3    H176184   0.925   3.171   4.080 -1.4255 -0.0327 -0.0306
18231TIP3    H276185   0.906   3.317   4.044 -1.1741  0.2317  0.8751
18232TIP3   OH276186   5.825   3.328   6.510 -0.2910 -0.6288  0.4218
18232TIP3    H176187   5.859   3.417   6.511 -1.2200 -0.1371 -2.5226
18232TIP3    H276188   5.903   3.272   6.513  0.5188  0.3782 -0.9257
18233TIP3   OH276189   4.956   3.882  15.888  0.0819  0.2863 -0.0395
18233TIP3    H176190   4.995   3.885  15.975 -0.5920  0.0606  0.2743
18233TIP3    H276191   4.994   3.957  15.843 -0.8841  1.4485  1.0178
18234TIP3   OH276192   1.334   6.574   3.923 -0.1115 -0.3125 -0.2525
18234TIP3    H176193   1.267   6.631   3.884 -1.2323  1.5134  3.8279
18234TIP3    H276194   1.417   6.619   3.904 -0.7969  1.6083  1.0078
18235TIP3   OH276195   2.572   0.437   1.356 -0.2263  0.2025 -0.2498
18235TIP3    H176196   2.491   0.443   1.406  0.3707  2.1778  0.5913
18235TIP3    H276197   2.572   0.515   1.300  1.0114  0.1833 -0.3218
18236TIP3   OH276198   0.870   6.558  11.836 -0.0714  0.2445 -0.0834
18236TIP3    H176199   0.777   6.562  11.859 -0.0296  0.3549  0.0610
18236TIP3    H276200   0.892   6.645  11.804 -0.2400 -0.0239 -0.9738
18237TIP3   OH276201   4.203   4.293   1.114 -0.3774 -0.3541  0.0012
18237TIP3    H176202   4.208   4.199   1.097  0.9124 -0.2546 -0.3115
18237TIP3    H276203   4.271   4.308   1.180  0.7188  0.6264 -1.2997
18238TIP3   OH276204   5.865   4.568  11.228  0.2981  0.3394  0.0633
18238TIP3    H176205   5.830   4.593  11.313  0.3920 -2.0703  0.8799
18238TIP3    H276206   5.925   4.496  11.246  0.6318  0.0202 -2.0039
18239TIP3   OH276207   5.167   6.319  11.541 -0.0701  0.4486  0.3385
18239TIP3    H176208   5.172   6.247  11.478  1.1209  0.1188  0.7697
18239TIP3    H276209   5.078   6.353  11.533 -1.4426 -2.4571  1.6160
18240TIP3   OH276210   2.270   5.963   4.288  0.2556 -0.4512 -0.0652
18240TIP3    H176211   2.316   5.999   4.212 -0.5766 -1.6244 -1.1831
18240TIP3    H276212   2.336   5.912   4.334  0.2648 -1.7058 -1.3712
18241TIP3   OH276213   4.171   4.319  10.544 -0.1943 -0.4116  0.0408
18241TIP3    H176214   4.133   4.398  10.582  1.4298  1.1339 -1.3670
18241TIP3    H276215   4.266   4.332  10.552  0.1103 -2.1091 -0.4614
18242TIP3   OH276216   3.260   0.799  12.562 -0.4302  0.0890  0.2916
18242TIP3    H176217   3.247   0.708  12.590 -0.6919 -0.2341 -0.8330
18242TIP3    H276218   3.215   0.805  12.477  1.1414  0.7468 -0.5456
18243TIP3   OH276219   3.553   6.237  16.636  0.0173 -0.2433 -0.2257
18243TIP3    H176220   3.498   6.312  16.662 -1.5457 -0.8199 -1.6539
18243TIP3    H276221   3.638   6.255  16.674 -1.0055  1.0009  1.6262
18244TIP3   OH276222   3.335   2.348   0.935 -0.0771  0.2567 -0.2369
18244TIP3    H176223   3.297   2.324   1.019  1.7144  1.3785  0.9702
18244TIP3    H276224   3.427   2.324   0.942  0.8868  3.3267 -0.5378
18245TIP3   OH276225   3.081   0.197   6.199  0.3859 -0.0439 -0.3462
18245TIP3    H176226   3.061   0.139   6.273 -0.3367 -0.6789 -1.0188
18245TIP3    H276227   3.168   0.168   6.169  0.6483  0.1671  0.1947
18246TIP3   OH276228   1.543   5.381  11.452 -0.2502  0.0886 -0.1769
18246TIP3    H176229   1.608   5.429  11.401 -0.7789  0.9286 -0.0685
18246TIP3    H276230   1.546   5.292  11.417  0.4146  0.3055 -0.6886
18247TIP3   OH276231   4.559   1.007   4.127 -0.0994 -0.0147  0.2180
18247TIP3    H176232   4.621   0.974   4.192  1.1315  1.7467  0.0108
18247TIP3    H276233   4.574   1.102   4.125 -1.7735  0.2782 -0.9313
18248TIP3   OH276234   4.456   6.242   0.400  0.2770  0.3477  0.3099
18248TIP3    H176235   4.539   6.194   0.407 -0.7543 -1.3051  2.2215
18248TIP3    H276236   4.462   6.310   0.468 -0.3257 -0.4667  1.2001
18249TIP3   OH276237   4.896   4.336   3.494  0.2349 -0.1536 -0.2578
18249TIP3    H176238   4.979   4.333   3.447  0.7578  1.3463  0.5126
18249TIP3    H276239   4.906   4.408   3.557 -2.0989  0.9070 -0.9894
18250TIP3   OH276240   3.868   5.598   1.039 -0.2820  0.0142 -0.1440
18250TIP3    H176241   3.803   5.573   1.105  0.5996  0.0622  0.7730
18250TIP3    H276242   3.879   5.693   1.051 -2.0125  0.5344 -2.1339
18251TIP3   OH276243   0.239   5.395  15.961 -0.1039 -0.7025  0.1792
18251TIP3    H176244   0.289   5.313  15.962 -0.7979 -1.1604 -1.0070
18251TIP3    H276245   0.148   5.367  15.951 -0.3966  0.2023  0.2340
18252TIP3   OH276246   2.835   5.809   4.491 -0.0376  0.3429 -0.3705
18252TIP3    H176247   2.793   5.745   4.435 -1.2641  0.5793  0.2525
18252TIP3    H276248   2.905   5.846   4.437 -1.7514  1.2308 -2.0881
18253TIP3   OH276249   3.311   5.976   5.233 -0.4187  0.1628  0.2237
18253TIP3    H176250   3.398   6.015   5.238 -0.2671 -0.1194 -0.1238
18253TIP3    H276251   3.299   5.954   5.140 -1.7886  2.2551 -0.1635
18254TIP3   OH276252   2.630   1.445   3.238 -0.0475  0.4816 -0.2469
18254TIP3    H176253   2.647   1.485   3.153 -0.6798 -0.0779 -0.6435
18254TIP3    H276254   2.632   1.351   3.221  1.0982  0.3140  0.6067
18255TIP3   OH276255   2.338   5.251  16.505  0.4313  0.1252 -0.2254
18255TIP3    H176256   2.373   5.162  16.504 -0.9714 -0.4610  0.2780
18255TIP3    H276257   2.301   5.261  16.592 -0.8853  0.5935 -0.8119
18256TIP3   OH276258   4.547   1.585  12.056 -0.0980 -0.4093 -0.4202
18256TIP3    H176259   4.581   1.554  12.140  0.8649 -0.5919 -0.8708
18256TIP3    H276260   4.593   1.667  12.040 -0.5023 -0.2209 -0.6269
18257TIP3   OH276261   0.228   6.147  11.432  0.1523  0.4595 -0.0354
18257TIP3    H176262   0.135   6.168  11.438  0.6974  3.6933 -0.6565
18257TIP3    H276263   0.267   6.189  11.508  1.2978  0.8022 -0.7863
18258TIP3   OH276264   0.215   3.602  16.725  0.2217 -0.5090  0.5098
18258TIP3    H176265   0.135   3.651  16.706  1.2521  1.2043  0.3855
18258TIP3    H276266   0.199   3.561  16.810 -1.2610 -1.2826 -0.1088
18259TIP3   OH276267   3.979   1.382  16.146 -0.4543 -0.8278 -0.0487
18259TIP3    H176268   3.963   1.455  16.205  0.0601 -0.1712 -0.6963
18259TIP3    H276269   3.916   1.315  16.172 -0.3165 -0.5081  1.1485
18260TIP3   OH276270   4.410   0.352   4.755  0.2628  0.1119 -0.3048
18260TIP3    H176271   4.412   0.256   4.757 -0.7681  0.0192 -1.7309
18260TIP3    H276272   4.337   0.376   4.811  1.0527  0.1354  0.7480
18261TIP3   OH276273   4.851   3.083   2.351  0.3399  0.3124  0.0474
18261TIP3    H176274   4.823   3.065   2.441 -2.3093 -0.2654 -0.8015
18261TIP3    H276275   4.840   3.177   2.340  1.8296  0.5787  0.6502
18262TIP3   OH276276   5.648   2.597   1.478 -0.2424  0.5207  0.0853
18262TIP3    H176277   5.657   2.526   1.414 -0.8373 -0.1613  0.7413
18262TIP3    H276278   5.623   2.673   1.425  0.9979  0.4197 -0.7025
18263TIP3   OH276279   4.945   0.851   2.779 -0.2013  0.7909 -0.0760
18263TIP3    H176280   4.979   0.922   2.725  0.5812 -0.2952 -1.0622
18263TIP3    H276281   4.859   0.831   2.743  0.0219  0.5453 -0.4789
18264TIP3   OH276282   1.414   1.240  11.951  0.1491 -0.0378  0.1367
18264TIP3    H176283   1.438   1.195  11.870 -0.2588 -0.9286  0.4982
18264TIP3    H276284   1.326   1.273  11.935  0.0178 -0.3266  0.2635
18265TIP3   OH276285   2.462   6.516   1.676  0.5483 -0.3222 -0.2688
18265TIP3    H176286   2.457   6.478   1.588  1.9665 -1.2010 -0.0060
18265TIP3    H276287   2.372   6.543   1.696  0.1962 -0.1341 -1.9637
18266TIP3   OH276288   6.750   5.949  16.373 -0.0850 -0.2651  0.0022
18266TIP3    H176289   6.668   5.900  16.381 -0.1560 -0.1460 -0.0074
18266TIP3    H276290   6.731   6.034  16.411 -0.0392 -0.1508 -0.2307
18267TIP3   OH276291   6.027   3.665  17.038  0.3065 -0.4060  0.8166
18267TIP3    H176292   6.057   3.590  16.987  1.1597 -0.7127  1.7264
18267TIP3    H276293   6.059   3.741  16.991 -2.0325 -0.4526 -1.0760
18268TIP3   OH276294   5.365   2.298   4.324  0.3174 -0.1818 -0.2103
18268TIP3    H176295   5.444   2.347   4.299  0.5570 -0.5467 -0.1854
18268TIP3    H276296   5.399   2.220   4.368 -0.1010  0.8916  2.1720
18269TIP3   OH276297   0.541   1.898   3.970 -0.4633  0.3763  0.3557
18269TIP3    H176298   0.608   1.842   4.009  0.5067  0.7413 -0.7437
18269TIP3    H276299   0.530   1.969   4.032  1.2748  1.1131 -0.1179
18270TIP3   OH276300   4.295   1.325   3.233 -0.5149 -0.1673  0.5050
18270TIP3    H176301   4.213   1.275   3.236 -1.0353  0.3019 -2.2989
18270TIP3    H276302   4.300   1.355   3.142  2.7189 -0.0346  0.6345
18271TIP3   OH276303   5.939   4.286   3.614 -0.1881 -0.4549 -0.0132
18271TIP3    H176304   5.886   4.255   3.688 -0.1048  1.4557  0.9204
18271TIP3    H276305   6.026   4.250   3.630  0.2701  1.2685  1.8252
18272TIP3   OH276306   3.309   1.933  14.691 -0.2307 -0.7832  0.2586
18272TIP3    H176307   3.375   2.002  14.697 -0.2631 -0.5766 -1.4423
18272TIP3    H276308   3.243   1.959  14.756 -2.0488  2.8563 -2.6567
18273TIP3   OH276309   1.042   3.290   6.474 -0.3481 -0.1089  0.5591
18273TIP3    H176310   1.045   3.334   6.389 -1.1733 -2.0024 -0.5112
18273TIP3    H276311   0.968   3.330   6.520 -0.6137  0.1362 -0.0774
18274TIP3   OH276312   1.020   6.056  14.035  0.1775 -0.6259 -0.1865
18274TIP3    H176313   0.951   6.122  14.029  0.6130 -0.3016 -2.5410
18274TIP3    H276314   1.082   6.092  14.098 -0.6431  0.1436  0.2130
18275TIP3   OH276315   3.688   3.255  14.397  0.4033  0.1445 -0.4014
18275TIP3    H176316   3.728   3.225  14.316  0.1228 -0.8910 -0.1732
18275TIP3    H276317   3.604   3.209  14.400  0.7484 -0.4340  0.8521
18276TIP3   OH276318   1.696   4.334  16.768  0.8775 -0.5963  0.8339
18276TIP3    H176319   1.625   4.312  16.829  1.1148 -0.0950  1.3018
18276TIP3    H276320   1.767   4.274  16.789  0.9802 -0.3855  1.0985
18277TIP3   OH276321   1.690   1.622   3.735 -0.1186 -0.1292 -0.1542
18277TIP3    H176322   1.664   1.596   3.647 -2.7266  0.1945  0.4417
18277TIP3    H276323   1.637   1.699   3.755  1.2172  0.4768  1.3157
18278TIP3   OH276324   6.647   3.299   0.059  0.2907  0.0370 -0.8251
18278TIP3    H176325   6.676   3.228   0.115  0.8748 -0.5008 -1.7712
18278TIP3    H276326   6.569   3.266   0.015 -0.2815  0.5286 -0.1877
18279TIP3   OH276327   5.131   1.650   5.568 -0.2951  0.3458 -0.3434
18279TIP3    H176328   5.111   1.743   5.562  1.9395  0.9530  0.5498
18279TIP3    H276329   5.054   1.611   5.610 -0.0413  2.3151  2.1492
18280TIP3   OH276330   3.294   1.828   2.265 -0.5481 -0.3680  0.4101
18280TIP3    H176331   3.382   1.832   2.302 -0.7260 -0.3220  0.8313
18280TIP3    H276332   3.307   1.793   2.177 -0.3450 -2.7233  1.2942
18281TIP3   OH276333   0.596   2.902  15.770  0.5673 -0.2368 -0.2598
18281TIP3    H176334   0.610   2.991  15.737 -0.5296  1.2441  2.8066
18281TIP3    H276335   0.648   2.846  15.712  2.8961  2.6044 -1.1917
18282TIP3   OH276336   5.017   1.326  13.588 -1.2184  0.3310  0.0735
18282TIP3    H176337   5.042   1.416  13.565 -2.0007  0.3954 -0.5633
18282TIP3    H276338   5.023   1.278  13.506 -2.3466  0.1668  0.0700
18283TIP3   OH276339   5.577   1.642  15.345  0.6071  0.1365  0.5449
18283TIP3    H176340   5.651   1.634  15.285 -0.0961 -0.8179 -0.2259
18283TIP3    H276341   5.500   1.618  15.292 -0.4141  2.1569  0.9984
18284TIP3   OH276342   2.707   1.886  12.409  0.3052  0.1764 -0.2501
18284TIP3    H176343   2.734   1.839  12.488  0.0297  2.2243  1.1407
18284TIP3    H276344   2.645   1.952  12.441 -0.1929  0.7338 -2.2681
18285TIP3   OH276345   5.146   1.582  15.517  0.0804  0.0657 -0.4660
18285TIP3    H176346   5.203   1.647  15.560 -1.2023  1.7953 -1.2644
18285TIP3    H276347   5.202   1.541  15.451  1.2208 -0.4443  0.7690
18286TIP3   OH276348   5.949   3.201   0.825 -0.7520  0.2479  0.2794
18286TIP3    H176349   5.932   3.172   0.735  0.2175  0.0266  0.1525
18286TIP3    H276350   5.889   3.149   0.879  0.4541 -1.5269 -0.0114
18287TIP3   OH276351   5.680   0.847   6.688  1.0213  0.5707  0.2241
18287TIP3    H176352   5.750   0.793   6.724  0.1988  0.3431  1.5751
18287TIP3    H276353   5.620   0.784   6.647  0.7161  0.5716  0.6580
18288TIP3   OH276354   1.469   3.749   2.597 -0.5762  0.9367  1.0695
18288TIP3    H176355   1.554   3.765   2.556 -0.5020  2.7329  1.8512
18288TIP3    H276356   1.413   3.819   2.564 -1.3453  0.6345  1.7041
18289TIP3   OH276357   3.109   2.275   3.303 -0.3337  0.0668  0.1240
18289TIP3    H176358   3.100   2.179   3.302 -0.9740  0.1149 -1.0831
18289TIP3    H276359   3.125   2.298   3.211 -0.5271  1.1487  0.3484
18290TIP3   OH276360   2.514   1.993   4.289  0.2445  0.2221  0.1281
18290TIP3    H176361   2.520   2.006   4.384 -1.0258 -1.5736  0.5008
18290TIP3    H276362   2.601   2.016   4.257  1.2668 -0.7870  1.9597
18291TIP3   OH276363   0.253   4.478   5.641  0.3514 -0.9159  0.1473
18291TIP3    H176364   0.181   4.440   5.591  0.0744  1.7163 -1.6321
18291TIP3    H276365   0.326   4.480   5.580 -0.1190  2.7910 -0.5184
18292TIP3   OH276366   3.950   4.263  16.678 -0.0151  0.0877 -0.0364
18292TIP3    H176367   3.992   4.249  16.763  0.1720  1.5502  0.1345
18292TIP3    H276368   3.857   4.246  16.693  0.0601  0.0337  0.3769
18293TIP3   OH276369   4.527   4.917  10.451 -0.5135  0.5886  0.4566
18293TIP3    H176370   4.438   4.951  10.445  0.1371  2.2076 -0.8123
18293TIP3    H276371   4.522   4.829  10.413 -1.3728  1.0711 -0.6060
18294TIP3   OH276372   0.091   5.333  16.280 -0.1562  0.3199  0.2024
18294TIP3    H176373   0.026   5.345  16.349  2.1458  0.1471  2.5526
18294TIP3    H276374   0.112   5.239  16.282 -1.6799 -0.1766 -2.4078
18295TIP3   OH276375   2.880   2.018  11.679  0.4211 -0.1350 -0.4306
18295TIP3    H176376   2.809   1.956  11.665 -0.2355  0.6886 -0.8575
18295TIP3    H276377   2.929   1.982  11.753 -0.8447 -0.3730  0.3333
18296TIP3   OH276378   4.392   5.568  13.650 -0.0311  0.0351  0.5026
18296TIP3    H176379   4.361   5.631  13.585 -0.1112 -0.5165 -0.0061
18296TIP3    H276380   4.422   5.622  13.724  1.5226  0.7471 -0.6024
18297TIP3   OH276381   5.971   4.211  15.840  0.4671 -0.3550  0.2697
18297TIP3    H176382   5.947   4.248  15.925  2.1337 -0.8942  1.0103
18297TIP3    H276383   6.066   4.218  15.837  0.3601  1.3913 -2.3904
18298TIP3   OH276384   5.999   3.907   2.538 -0.5112  0.1891 -0.2875
18298TIP3    H176385   6.025   3.893   2.629  0.2707  1.9404 -0.2051
18298TIP3    H276386   6.023   3.998   2.520 -1.8613  0.2815 -1.8441
18299TIP3   OH276387   0.831   3.768  16.924 -0.6704  0.1924 -0.4497
18299TIP3    H176388   0.911   3.782  16.873 -0.5842  1.6310  0.0295
18299TIP3    H276389   0.784   3.852  16.918 -0.1584  0.8305  2.6427
18300TIP3   OH276390   1.547   4.745  14.162 -0.1121  0.1461 -0.0493
18300TIP3    H176391   1.569   4.792  14.082 -0.6934  0.7924  0.1607
18300TIP3    H276392   1.465   4.700  14.143 -1.0690  1.5329  0.6449
18301TIP3   OH276393   4.436   3.952   2.834 -0.5460 -0.0386 -0.1099
18301TIP3    H176394   4.515   3.988   2.875 -0.7847  0.3463  0.0155
18301TIP3    H276395   4.412   4.016   2.768 -1.6118  0.6008  0.8652
18302TIP3   OH276396   3.128   4.826  11.652  0.7831  0.4750  0.1689
18302TIP3    H176397   3.039   4.860  11.657 -0.5488 -2.8718  2.0631
18302TIP3    H276398   3.182   4.897  11.686 -1.0642  2.5949 -1.0304
18303TIP3   OH276399   5.221   2.454  13.691 -0.2888  0.4786 -0.4084
18303TIP3    H176400   5.275   2.481  13.765 -1.2865  1.0258  0.1427
18303TIP3    H276401   5.280   2.458  13.615  0.6357  0.3024  0.2908
18304TIP3   OH276402   4.260   2.813  12.154  0.0611 -0.2544  0.3992
18304TIP3    H176403   4.345   2.800  12.196  0.8886  1.1537 -0.7415
18304TIP3    H276404   4.278   2.802  12.060 -0.9744  0.2068  0.1378
18305TIP3   OH276405   0.807   4.268  14.967 -0.2730  0.1993  0.4406
18305TIP3    H176406   0.843   4.297  15.050 -1.2839  1.3192  0.5195
18305TIP3    H276407   0.736   4.330  14.949  0.4112  0.4513 -1.6242
18306TIP3   OH276408   3.731   4.171   1.311  0.6345  0.3185 -0.0709
18306TIP3    H176409   3.744   4.204   1.400 -0.0929 -1.3417  0.6844
18306TIP3    H276410   3.697   4.246   1.263 -1.1176  0.6777  1.6282
18307TIP3   OH276411   5.286   1.737   3.834  0.3912  0.2130 -1.0076
18307TIP3    H176412   5.232   1.706   3.761 -0.1755 -1.2514  0.0137
18307TIP3    H276413   5.243   1.817   3.863 -0.8920 -0.5976 -0.6118
18308TIP3   OH276414   5.317   0.908  11.727 -0.5459 -0.7984 -0.1927
18308TIP3    H176415   5.326   1.003  11.732 -2.2285 -0.6205  0.2364
18308TIP3    H276416   5.253   0.893  11.657 -0.3618 -1.6135 -0.2008
18309TIP3   OH276417   0.413   3.157  12.159  0.2278  0.2664  0.0402
18309TIP3    H176418   0.420   3.212  12.236 -0.6777 -1.3596  1.3387
18309TIP3    H276419   0.374   3.213  12.092  0.6054  1.5721  0.8906
18310TIP3   OH276420   4.278   4.145   1.570 -0.1547  0.1910  0.0228
18310TIP3    H176421   4.278   4.239   1.589  2.8552  0.1114  0.9399
18310TIP3    H276422   4.360   4.113   1.608 -0.1068 -2.4533 -2.0110
18311TIP3   OH276423   2.684   2.260   4.336  0.0946  0.6809  0.1239
18311TIP3    H176424   2.704   2.268   4.243 -0.0805  0.6087  0.0793
18311TIP3    H276425   2.591   2.284   4.343  0.3920  1.8108  0.4415
18312TIP3   OH276426   6.685   0.023  15.183 -0.4641 -0.1182  0.2272
18312TIP3    H176427   6.761  -0.033  15.197 -0.8285 -0.8966 -0.7018
18312TIP3    H276428   6.678   0.030  15.087 -1.7902 -0.4214  0.2771
18313TIP3   OH276429   2.839   5.186  13.480  0.1119  0.3587 -0.0900
18313TIP3    H176430   2.830   5.262  13.537  0.8472 -1.1554  2.1858
18313TIP3    H276431   2.769   5.127  13.507  0.4023 -0.3536 -0.8413
18314TIP3   OH276432   0.868   6.146  15.608 -0.0082  0.4117 -0.4774
18314TIP3    H176433   0.871   6.061  15.653  0.2069  0.8666  0.3952
18314TIP3    H276434   0.889   6.126  15.517 -0.0660 -0.4849 -0.3057
18315TIP3   OH276435   6.502   2.636  12.193 -0.1094 -0.6419 -0.0998
18315TIP3    H176436   6.494   2.565  12.129  0.2631 -2.2875  1.5832
18315TIP3    H276437   6.595   2.660  12.191  0.6939 -3.0184  2.0242
18316TIP3   OH276438   4.632   2.068  11.224 -0.1128 -0.9334 -0.5409
18316TIP3    H176439   4.604   2.017  11.300  0.9072 -0.5933  0.0846
18316TIP3    H276440   4.562   2.132  11.211  0.5538  0.2494  1.3213
18317TIP3   OH276441   2.410   6.068  15.844 -0.7751 -0.3531 -0.2411
18317TIP3    H176442   2.451   6.115  15.772 -0.9567 -0.7269 -0.5936
18317TIP3    H276443   2.365   6.136  15.894  0.6104  0.1243  0.4055
18318TIP3   OH276444   1.864   0.191   3.256  0.0452 -0.3782 -0.4884
18318TIP3    H176445   1.856   0.137   3.335  0.9251 -0.7168 -0.6193
18318TIP3    H276446   1.921   0.263   3.282  0.1298 -0.3506 -0.7528
18319TIP3   OH276447   2.722   6.473  16.707  0.2175 -0.0713  0.1528
18319TIP3    H176448   2.768   6.520  16.777 -1.3571  0.2657  1.0074
18319TIP3    H276449   2.632   6.504  16.712 -0.2089 -0.9761 -1.2348
18320TIP3   OH276450   4.616   2.003  15.276 -0.2064  0.3244 -0.6493
18320TIP3    H176451   4.599   2.083  15.326 -0.6247  1.0636 -1.9311
18320TIP3    H276452   4.632   1.936  15.343  0.6424  1.5627  0.4521
18321TIP3   OH276453   5.153   6.121   6.540  0.4435 -0.3781 -0.8189
18321TIP3    H176454   5.079   6.105   6.482 -1.4551  0.8584  1.1220
18321TIP3    H276455   5.191   6.203   6.509 -1.1741  0.8113  0.1613
18322TIP3   OH276456   5.972   5.317   6.886  0.5651  0.1487  0.4045
18322TIP3    H176457   5.923   5.272   6.954  0.8582 -0.3956  0.2616
18322TIP3    H276458   6.060   5.279   6.891  0.9275  0.9809  0.5365
18323TIP3   OH276459   3.462   2.831   4.515  0.0772  0.2138 -0.6860
18323TIP3    H176460   3.508   2.870   4.441  0.8923  2.1076  0.7198
18323TIP3    H276461   3.381   2.881   4.523 -0.9832 -1.3138 -1.4848
18324TIP3   OH276462   2.993   0.235   5.047 -0.6714  0.5881  0.5711
18324TIP3    H176463   2.945   0.266   5.123 -0.8037  0.6839  0.4474
18324TIP3    H276464   3.044   0.161   5.080 -1.7487 -0.2335  0.4681
18325TIP3   OH276465   0.709   5.656   2.236  0.0864 -0.1943  0.1511
18325TIP3    H176466   0.747   5.737   2.268  0.7377  0.1296 -1.3493
18325TIP3    H276467   0.770   5.588   2.265 -0.6493 -0.2305  1.7259
18326TIP3   OH276468   5.772   6.782   3.350 -0.3377  0.5111 -0.1694
18326TIP3    H176469   5.832   6.800   3.422  1.2498 -0.0448 -1.2841
18326TIP3    H276470   5.829   6.757   3.277 -1.8150  1.6845 -1.8307
18327TIP3   OH276471   0.418   0.939   1.894  0.2974 -0.1819  0.3766
18327TIP3    H176472   0.484   0.965   1.830  0.6109  0.5871  0.9874
18327TIP3    H276473   0.343   0.996   1.877  0.2718 -0.1739  0.5112
18328TIP3   OH276474   3.017   5.308   2.763  0.0298 -0.2041 -0.0071
18328TIP3    H176475   3.077   5.295   2.690  0.7591  1.8521  0.1620
18328TIP3    H276476   2.998   5.220   2.794 -0.1659 -1.1350 -2.5391
18329TIP3   OH276477   2.715   5.795  14.583  0.4556 -0.2280  0.2499
18329TIP3    H176478   2.623   5.784  14.603  1.3202 -1.4209  4.5148
18329TIP3    H276479   2.735   5.885  14.608  0.6420 -0.2114  0.0505
18330TIP3   OH276480   4.198   3.000  16.225  0.0376 -0.1755 -0.0217
18330TIP3    H176481   4.138   2.956  16.165 -0.9279  2.0278 -0.7886
18330TIP3    H276482   4.285   2.976  16.193 -0.2737 -3.9703  1.5213
18331TIP3   OH276483   6.009   4.705  11.960 -0.6495 -0.3944 -0.1495
18331TIP3    H176484   6.062   4.652  12.019 -0.7054 -0.1908  0.0847
18331TIP3    H276485   5.918   4.681  11.980 -0.6336 -1.3101 -1.0840
18332TIP3   OH276486   5.802   3.408  16.484 -0.3814 -0.0980  0.3778
18332TIP3    H176487   5.839   3.341  16.541  2.8424  1.5232  0.4321
18332TIP3    H276488   5.835   3.490  16.520 -2.7244  1.4100 -0.7181
18333TIP3   OH276489   2.802   5.253  11.629  0.0917 -0.0712  0.2078
18333TIP3    H176490   2.793   5.232  11.536 -0.1925  2.5521 -0.4331
18333TIP3    H276491   2.712   5.267  11.659  0.2000 -0.6893  0.8572
18334TIP3   OH276492   2.899   0.022  11.537  0.6433 -0.0099 -0.3505
18334TIP3    H176493   2.870  -0.039  11.470  0.9905 -0.1292 -0.3983
18334TIP3    H276494   2.984  -0.013  11.565 -0.5926 -1.3598  1.9292
18335TIP3   OH276495   2.258   5.602  11.747  0.0362 -0.1592  0.2242
18335TIP3    H176496   2.250   5.511  11.776 -0.6691 -0.0952  0.2457
18335TIP3    H276497   2.182   5.646  11.784  0.0391  0.3051 -0.3014
18336TIP3   OH276498   3.084   1.413   4.371  0.5318  0.1200 -0.1115
18336TIP3    H176499   3.056   1.399   4.281 -0.4183 -2.1418  0.4527
18336TIP3    H276500   3.047   1.497   4.396  0.8818  0.8267 -1.8254
18337TIP3   OH276501   5.073   3.569   5.794  0.2337  0.1591 -0.0671
18337TIP3    H176502   5.126   3.611   5.863  0.0655 -1.2159  0.9315
18337TIP3    H276503   5.120   3.489   5.774 -0.7906 -0.4463 -0.0958
18338TIP3   OH276504   2.684   1.186  12.478  1.3468 -0.1408 -0.3772
18338TIP3    H176505   2.592   1.204  12.458  1.1905  0.3913  0.7017
18338TIP3    H276506   2.729   1.267  12.454  1.3536  0.0095  0.1212
18339TIP3   OH276507   2.283   3.560   4.060 -0.7762  0.2601  0.2115
18339TIP3    H176508   2.222   3.583   4.129 -1.3609 -0.6273  0.0052
18339TIP3    H276509   2.229   3.548   3.982 -0.0545  1.9493 -0.6056
18340TIP3   OH276510   0.502   4.010  13.210  0.1513  0.2863 -0.1379
18340TIP3    H176511   0.560   4.001  13.134  0.3556  1.2675 -0.1195
18340TIP3    H276512   0.416   3.982  13.178 -0.2012  2.5186 -1.3505
18341TIP3   OH276513   0.254   4.215  14.948 -0.3542 -0.1121  0.6046
18341TIP3    H176514   0.275   4.308  14.938 -1.3856  0.1053  0.3325
18341TIP3    H276515   0.173   4.215  14.999 -0.4027 -0.8650  0.5292
18342TIP3   OH276516   6.218   6.138  12.569 -0.2831 -0.0414 -0.0133
18342TIP3    H176517   6.263   6.080  12.508  1.3924  0.1682  0.9692
18342TIP3    H276518   6.188   6.081  12.640 -0.0926  0.0653  0.1522
18343TIP3   OH276519   1.559   1.419  16.967  0.2901 -0.1127  0.3474
18343TIP3    H176520   1.610   1.344  16.937 -0.0448 -0.4274  0.5521
18343TIP3    H276521   1.490   1.428  16.901 -1.1837 -1.5649  1.6103
18344TIP3   OH276522   2.565   3.665   3.077 -0.4436 -0.4316 -0.3293
18344TIP3    H176523   2.545   3.753   3.108  0.3204  0.3476 -1.9444
18344TIP3    H276524   2.534   3.663   2.987  0.9961 -1.2471 -0.8452
18345TIP3   OH276525   0.037   0.966   2.603 -0.3897 -0.1098  0.0521
18345TIP3    H176526  -0.010   0.919   2.671 -0.0580 -0.3514  0.1164
18345TIP3    H276527   0.022   0.915   2.523 -0.8698  0.2332 -0.0823
18346TIP3   OH276528   1.686   3.599  11.730  0.5531  0.5705 -0.1878
18346TIP3    H176529   1.668   3.505  11.725  2.1322  0.2379 -0.1368
18346TIP3    H276530   1.655   3.634  11.646  1.9381 -0.3967 -1.1524
18347TIP3   OH276531   0.405   0.879  13.525  0.6347 -0.2700  0.1765
18347TIP3    H176532   0.443   0.825  13.456  0.8781 -0.2704  0.3115
18347TIP3    H276533   0.411   0.825  13.604 -1.6660 -1.1989 -0.1879
18348TIP3   OH276534   1.931   4.465  15.011 -0.2532  0.9792  0.1020
18348TIP3    H176535   1.948   4.477  15.104 -1.1385 -0.3281  0.4595
18348TIP3    H276536   1.837   4.444  15.006 -0.0759  0.3814 -1.0050
18349TIP3   OH276537   3.556   4.244   2.731 -0.2817 -0.3637 -0.2615
18349TIP3    H176538   3.644   4.282   2.724 -0.2026 -0.1877  1.3628
18349TIP3    H276539   3.564   4.178   2.801 -2.0006  1.4187  1.7514
18350TIP3   OH276540   1.512   2.262  12.767 -0.0833 -0.2592  0.6610
18350TIP3    H176541   1.528   2.168  12.771  1.7642 -0.0693 -0.7607
18350TIP3    H276542   1.582   2.301  12.820  0.6816  0.3700 -0.7420
18351TIP3   OH276543   5.067   1.269  15.587 -0.3607 -0.2676 -0.0578
18351TIP3    H176544   5.061   1.280  15.492 -1.4117  0.9820  0.1308
18351TIP3    H276545   5.050   1.176  15.601 -0.3014 -0.4466 -1.0914
18352TIP3   OH276546   2.758   2.923  10.872 -0.2647 -0.5126 -0.0448
18352TIP3    H176547   2.705   2.844  10.887 -2.2444  1.0365  1.6988
18352TIP3    H276548   2.750   2.939  10.778 -3.1269 -0.2923  0.1410
18353TIP3   OH276549   2.565   2.570   5.687  0.9937 -0.5567 -0.5067
18353TIP3    H176550   2.572   2.662   5.713  2.9051 -0.6439 -0.5924
18353TIP3    H276551   2.655   2.536   5.692  0.1445 -2.8163  0.9117
18354TIP3   OH276552   2.360   6.543   3.588  0.2156 -0.5440 -0.3350
18354TIP3    H176553   2.377   6.489   3.511  3.5221 -0.0318 -0.1074
18354TIP3    H276554   2.349   6.632   3.553 -0.1174 -0.5722 -0.3126
18355TIP3   OH276555   5.793   1.426  16.148  0.2954 -0.8360 -1.0067
18355TIP3    H176556   5.733   1.462  16.213  1.1130  1.1861 -1.2953
18355TIP3    H276557   5.846   1.363  16.196 -0.7475 -1.2032 -0.3121
18356TIP3   OH276558   0.287   6.629  13.432  0.2865  0.4845  0.5090
18356TIP3    H176559   0.258   6.585  13.512 -1.5828  0.8210  0.0713
18356TIP3    H276560   0.377   6.656  13.451  0.8600 -1.8321  1.4734
18357TIP3   OH276561   5.140   1.564   2.479  0.2980 -0.2664 -0.3130
18357TIP3    H176562   5.104   1.541   2.394 -0.1457  0.2688 -0.2726
18357TIP3    H276563   5.227   1.600   2.460  0.1818 -0.1083 -0.5379
18358TIP3   OH276564   4.759   4.371  15.533  0.8848  0.2578  0.5426
18358TIP3    H176565   4.693   4.438  15.550 -2.3109 -1.5302 -3.0662
18358TIP3    H276566   4.753   4.312  15.609 -2.5141 -0.2852  0.0340
18359TIP3   OH276567   5.441   3.251   0.498 -0.2998 -0.0895  0.2876
18359TIP3    H176568   5.507   3.208   0.551  0.2533  0.3974  0.0006
18359TIP3    H276569   5.488   3.318   0.449 -1.2383  1.2916  1.2064
18360TIP3   OH276570   3.893   6.316   1.889 -1.0081 -0.3785  0.2690
18360TIP3    H176571   3.842   6.395   1.871 -1.8046 -0.7447  0.8589
18360TIP3    H276572   3.903   6.274   1.804 -1.0096  0.1042  0.0279
18361TIP3   OH276573   2.029   0.146   5.948 -0.4241 -0.4327 -0.1004
18361TIP3    H176574   1.993   0.203   5.881  0.7395  0.0308 -0.3534
18361TIP3    H276575   1.988   0.176   6.029 -0.0445  0.5933 -0.2710
18362TIP3   OH276576   5.711   0.249   1.255 -0.2915  0.5284  0.4675
18362TIP3    H176577   5.672   0.334   1.277 -0.3324  0.6017  0.1101
18362TIP3    H276578   5.799   0.270   1.224 -0.8572  0.5899 -1.1660
18363TIP3   OH276579   1.581   3.543  15.557  0.5644  0.5427 -0.4222
18363TIP3    H176580   1.644   3.513  15.624 -1.6298 -2.0225  0.6633
18363TIP3    H276581   1.580   3.473  15.492  0.5532  1.6994 -1.7143
18364TIP3   OH276582   6.676   1.105  16.485  0.1795 -0.6359  0.1624
18364TIP3    H176583   6.654   1.191  16.520 -0.4713 -0.2121 -1.2025
18364TIP3    H276584   6.594   1.055  16.491  0.3179 -0.8684  0.1352
18365TIP3   OH276585   4.660   4.641   3.789  0.1103  0.2527 -0.4611
18365TIP3    H176586   4.585   4.691   3.819  0.7691  1.0698 -0.1390
18365TIP3    H276587   4.680   4.581   3.861  1.1846  1.6449  0.4414
18366TIP3   OH276588   2.563   4.562   1.524 -0.4144 -0.1888 -0.3047
18366TIP3    H176589   2.488   4.519   1.564 -0.4216  0.3984  0.3408
18366TIP3    H276590   2.525   4.619   1.457 -0.2691 -2.8470 -2.8536
18367TIP3   OH276591   6.449   1.343  12.480  0.2257  0.3592 -0.0194
18367TIP3    H176592   6.358   1.366  12.463  0.0729 -0.5038 -0.4142
18367TIP3    H276593   6.473   1.394  12.558 -0.5415  0.7054 -0.0049
18368TIP3   OH276594   0.919   0.883   3.588 -0.6382 -0.4067  0.0587
18368TIP3    H176595   0.994   0.837   3.552 -0.4706  0.6505 -1.0166
18368TIP3    H276596   0.882   0.823   3.653 -0.7273 -2.2436 -1.6137
18369TIP3   OH276597   2.009   6.477   3.597 -0.0861  0.8390  0.3560
18369TIP3    H176598   2.073   6.540   3.631 -0.3960  1.5648 -0.3673
18369TIP3    H276599   2.030   6.395   3.642  2.0883  0.7385 -0.7316
18370TIP3   OH276600   6.309   5.857   4.135  0.0705  0.8446 -0.1637
18370TIP3    H176601   6.259   5.934   4.161  1.9307  1.7924  0.8705
18370TIP3    H276602   6.337   5.875   4.045 -1.3285  0.3267 -0.7321
18371TIP3   OH276603   0.276   4.470  16.219  0.5227  0.4867  0.6242
18371TIP3    H176604   0.253   4.502  16.131  0.6583  1.9060  1.0871
18371TIP3    H276605   0.364   4.433  16.209  0.1577 -0.2363 -0.0287
18372TIP3   OH276606   3.416   2.904   5.807 -0.0155  0.2158  0.3492
18372TIP3    H176607   3.376   2.921   5.892 -0.1119  0.4430  0.2597
18372TIP3    H276608   3.431   2.992   5.770  0.8390  0.1475  0.5122
18373TIP3   OH276609   5.561   4.121  12.907 -0.2282 -0.2168 -0.8879
18373TIP3    H176610   5.473   4.088  12.924  0.3422 -1.8281 -0.9253
18373TIP3    H276611   5.616   4.079  12.973  0.7836 -0.6197 -1.9441
18374TIP3   OH276612   2.185   0.307   0.630  0.3360 -0.2154  0.1188
18374TIP3    H176613   2.230   0.320   0.546  1.0309 -0.3798  0.4565
18374TIP3    H276614   2.128   0.231   0.615  0.7171 -0.4607 -0.1082
18375TIP3   OH276615   3.927   2.438   4.832 -0.6356 -0.4821 -0.2227
18375TIP3    H176616   4.006   2.386   4.846 -1.4110 -1.5820  0.2008
18375TIP3    H276617   3.959   2.528   4.822  0.6253 -0.8445  0.3686
18376TIP3   OH276618   4.009   1.394  15.850  0.2002  0.4233  0.0122
18376TIP3    H176619   4.032   1.302  15.859 -0.0519  0.1916 -1.4524
18376TIP3    H276620   4.017   1.430  15.939 -0.6780 -1.2194  0.8107
18377TIP3   OH276621   0.436   3.536  14.662  0.0011 -0.2040  0.4168
18377TIP3    H176622   0.358   3.578  14.697  0.5345  1.3037 -0.1212
18377TIP3    H276623   0.438   3.450  14.703 -2.0010 -0.3214  0.3474
18378TIP3   OH276624   6.632   4.869  15.695 -0.3493  0.2450 -0.2657
18378TIP3    H176625   6.654   4.954  15.734 -1.1414  0.0908  0.5687
18378TIP3    H276626   6.590   4.890  15.612  0.0452  0.6478 -0.3632
18379TIP3   OH276627   4.338   3.887  11.011  0.2413  0.4852  0.2215
18379TIP3    H176628   4.377   3.954  10.956 -1.2136  1.3384  0.1818
18379TIP3    H276629   4.346   3.806  10.960  2.6502  0.4422  0.5767
18380TIP3   OH276630   3.844   6.201  15.156 -0.5068 -0.4769 -0.0519
18380TIP3    H176631   3.878   6.285  15.124  1.0615 -0.7571  0.7276
18380TIP3    H276632   3.829   6.149  15.077  1.2535 -0.4244 -0.4791
18381TIP3   OH276633   3.343   4.467  12.456  0.2771  0.8946 -0.4544
18381TIP3    H176634   3.396   4.393  12.426 -0.1621 -0.2129  1.3235
18381TIP3    H276635   3.259   4.455  12.411 -0.2008 -0.4323  0.7260
18382TIP3   OH276636   5.740   4.220   5.383  0.2652 -0.0521  0.2761
18382TIP3    H176637   5.756   4.125   5.381 -0.4960 -0.2077  0.9212
18382TIP3    H276638   5.644   4.228   5.380  0.3527  0.8137 -2.5965
18383TIP3   OH276639   3.055   1.728   2.168  0.4863  0.0965  0.4471
18383TIP3    H176640   2.995   1.802   2.171 -0.1391 -0.3997  0.4735
18383TIP3    H276641   3.086   1.719   2.258 -1.8646 -1.5944  1.1839
18384TIP3   OH276642   6.793   1.586  12.740  0.1653  0.2027 -0.3574
18384TIP3    H176643   6.841   1.510  12.706 -1.5710 -1.0147 -0.1894
18384TIP3    H276644   6.842   1.611  12.819  0.9449 -0.5266 -0.5901
18385TIP3   OH276645   5.222   5.280  16.761 -0.1008  0.2545  0.2234
18385TIP3    H176646   5.185   5.366  16.782  0.2804  0.1020  1.5965
18385TIP3    H276647   5.308   5.299  16.723 -0.3693  0.5061 -0.2630
18386TIP3   OH276648   1.463   5.085  14.295 -0.0356  0.6516  0.4019
18386TIP3    H176649   1.558   5.089  14.287  0.1142  0.3656  1.8063
18386TIP3    H276650   1.446   5.095  14.389 -1.2082 -2.4255  0.6229
18387TIP3   OH276651   1.222   6.177  15.773  0.0072 -0.1186 -0.0384
18387TIP3    H176652   1.298   6.137  15.730 -0.6909 -3.0344  1.1647
18387TIP3    H276653   1.157   6.106  15.777 -2.4734  1.9872 -0.1984
18388TIP3   OH276654   2.636   1.941   4.531  0.5252  0.2445  0.2363
18388TIP3    H176655   2.655   1.940   4.625  2.0058  2.1748  0.0131
18388TIP3    H276656   2.718   1.913   4.490  0.0008 -0.2357 -0.5136
18389TIP3   OH276657   0.885   5.632  13.191  0.1461 -0.3534 -0.5917
18389TIP3    H176658   0.863   5.687  13.267 -1.0922  0.2768 -1.3670
18389TIP3    H276659   0.800   5.600  13.160  0.6906 -1.1140 -1.3377
18390TIP3   OH276660   5.648   4.590   5.164  0.0166  0.4775  0.0942
18390TIP3    H176661   5.645   4.510   5.111 -1.1097 -0.4110  1.4531
18390TIP3    H276662   5.720   4.641   5.125  2.4111 -2.2184  0.6130
18391TIP3   OH276663   0.163   1.977   3.226  0.4315  0.0209 -0.2008
18391TIP3    H176664   0.204   1.950   3.143  0.6153  1.3683 -0.5643
18391TIP3    H276665   0.237   1.986   3.286  0.3580 -0.3772 -0.0483
18392TIP3   OH276666   6.151   4.613  14.408  0.1970  0.2833 -0.5201
18392TIP3    H176667   6.187   4.700  14.391  0.6821  0.2820  0.4344
18392TIP3    H276668   6.221   4.567  14.455 -1.1329  0.3882  1.6750
18393TIP3   OH276669   0.844   6.804   1.242 -0.0640 -0.3212 -0.3858
18393TIP3    H176670   0.806   6.889   1.220 -2.3995 -1.3333 -0.4914
18393TIP3    H276671   0.916   6.793   1.180  0.0431  1.4033 -0.6063
18394TIP3   OH276672   2.938   3.683   4.963 -0.0551  0.4828  0.1992
18394TIP3    H176673   2.996   3.757   4.948 -1.0279  1.0440 -1.0315
18394TIP3    H276674   2.850   3.718   4.947 -0.6828 -0.5435  1.1930
18395TIP3   OH276675   4.116   3.844  14.425 -0.3128  0.3446 -0.3460
18395TIP3    H176676   4.141   3.817  14.337 -0.5689 -2.3580  0.3050
18395TIP3    H276677   4.113   3.762  14.475  0.5701  1.8532  2.3862
18396TIP3   OH276678   3.622   6.559  12.171 -0.0281 -0.5158  0.7158
18396TIP3    H176679   3.557   6.500  12.208 -1.7637  0.8744  0.0189
18396TIP3    H276680   3.629   6.630  12.235 -1.6551  0.9527 -0.6174
18397TIP3   OH276681   1.827   5.344  15.394 -0.0401 -0.7092  0.5237
18397TIP3    H176682   1.858   5.254  15.382 -4.8668 -2.4314 -1.5201
18397TIP3    H276683   1.815   5.352  15.489  0.9870 -1.9939  0.8008
18398TIP3   OH276684   2.178   3.461  15.111  0.2459  0.2850 -0.2884
18398TIP3    H176685   2.174   3.541  15.163 -0.5536  0.5205 -0.7004
18398TIP3    H276686   2.270   3.453  15.086  0.1821  1.5588 -0.9914
18399TIP3   OH276687   1.903   1.482  15.151 -0.6089  0.3218 -0.4354
18399TIP3    H176688   1.835   1.442  15.205 -0.9558  0.7558 -0.5465
18399TIP3    H276689   1.949   1.407  15.112 -1.1653  0.0261 -0.5413
18400TIP3   OH276690   6.626   1.125  12.478  0.4032  0.8943  0.2999
18400TIP3    H176691   6.667   1.180  12.411  1.9404  0.7681  1.0863
18400TIP3    H276692   6.562   1.182  12.520 -1.3288  0.6937 -1.8903
18401TIP3   OH276693   2.063   1.669   4.954  0.2565  0.0809 -0.3817
18401TIP3    H176694   2.133   1.611   4.923 -0.0762 -1.0019  0.8059
18401TIP3    H276695   1.988   1.611   4.968  0.7500  0.1474  3.6585
18402TIP3   OH276696   5.685   1.688  16.267  0.1447  0.2147 -0.5956
18402TIP3    H176697   5.658   1.671  16.357  2.2372 -3.0475 -0.3948
18402TIP3    H276698   5.604   1.688  16.217 -0.8385 -1.5436  0.8712
18403TIP3   OH276699   6.015   4.994   3.982  0.1385  0.0709 -0.1990
18403TIP3    H176700   6.108   4.981   3.961  0.8705  4.4040 -0.5829
18403TIP3    H276701   6.006   4.957   4.070  2.4558  0.1640  0.1568
18404TIP3   OH276702   5.330   0.497   4.376  0.1686 -0.3289 -0.6025
18404TIP3    H176703   5.424   0.483   4.384  0.0313 -2.6332 -2.0453
18404TIP3    H276704   5.319   0.540   4.292 -0.0550 -0.0454 -0.4275
18405TIP3   OH276705   6.065   6.059  14.497  0.2727  0.2372 -0.1754
18405TIP3    H176706   6.125   6.086  14.427  0.9580  0.5420  0.5221
18405TIP3    H276707   6.079   5.964  14.506  0.0836  0.1726 -0.5341
18406TIP3   OH276708   0.750   0.702  13.463  0.0549 -0.5069 -0.0085
18406TIP3    H176709   0.759   0.722  13.557  0.3949 -2.1984  0.3556
18406TIP3    H276710   0.816   0.757  13.421  0.7352 -0.6126  0.8854
18407TIP3   OH276711   0.446   6.616   1.343 -0.3562  0.3749 -0.1650
18407TIP3    H176712   0.426   6.684   1.279 -0.5960  0.9820  0.5436
18407TIP3    H276713   0.454   6.662   1.426 -1.4222 -0.5552  0.4918
18408TIP3   OH276714   6.691   0.695   5.852  0.1223 -0.3063  0.2685
18408TIP3    H176715   6.730   0.703   5.939  0.3343  0.7757  0.0940
18408TIP3    H276716   6.597   0.691   5.869  0.1667 -0.1776  0.5552
18409TIP3   OH276717   3.348   2.538  16.202  0.1382  0.2952  0.0636
18409TIP3    H176718   3.291   2.479  16.152  1.2293 -2.2164  1.6138
18409TIP3    H276719   3.301   2.553  16.284  0.8290 -0.2453  0.5676
18410TIP3   OH276720   5.100   2.174  14.032  0.2344  0.1816 -0.3451
18410TIP3    H176721   5.083   2.257  14.076 -1.0249 -0.4995  0.4858
18410TIP3    H276722   5.158   2.126  14.092 -2.1165 -1.0755  1.0769
18411TIP3   OH276723   3.942   6.799  10.401 -0.4871 -0.4902 -0.0291
18411TIP3    H176724   3.872   6.741  10.432  0.3398 -1.3388  0.3150
18411TIP3    H276725   3.981   6.752  10.327 -1.0446  0.5363 -1.0097
18412TIP3   OH276726   4.067   4.838  10.526  0.6864 -0.3189  0.4037
18412TIP3    H176727   4.081   4.865  10.617 -0.3048 -0.4133  0.5875
18412TIP3    H276728   4.131   4.889  10.476 -0.1081  1.2305  0.9251
18413TIP3   OH276729   5.036   6.817  10.026 -1.0097 -0.9016  0.8407
18413TIP3    H176730   5.042   6.787  10.116 -0.2448 -0.8802  0.8015
18413TIP3    H276731   5.066   6.743   9.973  2.3095  0.2978  0.8138
18414TIP3   OH276732   1.449   6.498  12.698 -0.1078  0.3624 -0.6015
18414TIP3    H176733   1.370   6.475  12.746 -0.5403  0.1640 -1.3794
18414TIP3    H276734   1.467   6.589  12.722 -1.2506  0.7952 -1.2881
18415TIP3   OH276735   6.486   2.134   4.030  0.3240  0.4229 -0.0474
18415TIP3    H176736   6.559   2.188   4.060  0.1466  0.6171  0.0344
18415TIP3    H276737   6.423   2.196   3.993  0.0586  0.2903  0.1723
18416TIP3   OH276738   4.024   2.799   5.052  0.1285 -0.0331 -0.2344
18416TIP3    H176739   4.093   2.854   5.017  1.5982 -1.9559 -0.5636
18416TIP3    H276740   4.011   2.830   5.142  1.5035  0.3155 -0.1396
18417TIP3   OH276741   6.210   4.529   3.594 -0.5325  0.3373 -0.1387
18417TIP3    H176742   6.208   4.606   3.650 -0.4918  0.1178  0.1669
18417TIP3    H276743   6.271   4.552   3.524  0.3037  0.1907  0.5268
18418TIP3   OH276744   0.675   5.454   2.577 -0.1672  0.4288  0.0126
18418TIP3    H176745   0.588   5.436   2.541  0.4410 -0.0332 -1.2992
18418TIP3    H276746   0.675   5.413   2.663 -0.8346 -0.6580 -0.4944
18419TIP3   OH276747   3.724   1.700  16.928  0.6351  0.2268  0.2951
18419TIP3    H176748   3.819   1.709  16.922  0.7010  0.8025  1.7221
18419TIP3    H276749   3.711   1.613  16.966  0.5488 -0.1508 -0.5775
18420TIP3   OH276750   0.699   6.052  13.587 -0.2186  0.1370  0.1391
18420TIP3    H176751   0.731   6.084  13.503  0.0417  0.0221  0.1946
18420TIP3    H276752   0.778   6.031  13.637 -0.3545 -1.8389 -0.3627
18421TIP3   OH276753   5.987   3.734  15.695  0.1014 -0.5432  0.1196
18421TIP3    H176754   5.965   3.760  15.606  1.6710 -0.2186 -0.2006
18421TIP3    H276755   5.940   3.796  15.751  0.3601  0.2491 -0.5289
18422TIP3   OH276756   4.747   1.691  16.607 -0.2236 -0.5712 -0.5623
18422TIP3    H176757   4.731   1.752  16.535 -2.7546 -0.1410  0.2821
18422TIP3    H276758   4.819   1.730  16.656  1.5222 -0.8444 -2.7393
18423TIP3   OH276759   2.770   6.071  14.658 -0.8982  0.3910  1.2066
18423TIP3    H176760   2.859   6.039  14.672 -0.9379  0.3553  1.3871
18423TIP3    H276761   2.781   6.152  14.608 -0.8476 -0.3052  0.0755
18424TIP3   OH276762   4.090   6.136   5.117 -0.1753 -0.0255  0.2683
18424TIP3    H176763   4.066   6.147   5.209 -2.2729  0.0433 -0.2242
18424TIP3    H276764   4.172   6.087   5.119 -0.4043 -0.4134  2.1678
18425TIP3   OH276765   0.106   0.634   5.375 -0.2549 -0.2756 -0.1836
18425TIP3    H176766   0.139   0.555   5.331  0.2696 -0.6015  0.7563
18425TIP3    H276767   0.177   0.698   5.366 -0.1139 -0.3674  0.2286
18426TIP3   OH276768   0.277   2.313  15.963  0.1450  0.4101  0.6656
18426TIP3    H176769   0.273   2.389  16.022  1.0616  1.4518 -0.5592
18426TIP3    H276770   0.331   2.249  16.010 -0.2534  0.6705  1.5135
18427TIP3   OH276771   4.974   0.339   4.881 -0.2082  0.3103 -0.7452
18427TIP3    H176772   4.980   0.400   4.954 -1.6055  0.7172 -0.9391
18427TIP3    H276773   4.890   0.359   4.840  0.6350  0.2529 -2.6190
18428TIP3   OH276774   1.532   3.171  13.137 -0.0041 -0.2675  0.1511
18428TIP3    H176775   1.562   3.161  13.227 -0.1836 -0.4888  0.1879
18428TIP3    H276776   1.436   3.164  13.142  0.0030 -0.6165 -0.0931
18429TIP3   OH276777   3.820   1.179  16.622 -0.7230  0.0073  0.0293
18429TIP3    H176778   3.804   1.099  16.671 -1.1714  0.4025  0.5419
18429TIP3    H276779   3.778   1.248  16.674  0.7834  0.7661  0.2907
18430TIP3   OH276780   5.969   4.068  11.072 -0.1635  0.6751 -0.0490
18430TIP3    H176781   6.054   4.047  11.033  0.2553 -1.0959  1.6466
18430TIP3    H276782   5.970   4.163  11.081  2.5848  0.5840  1.8256
18431TIP3   OH276783   6.387   2.656   0.093  0.1539 -0.3527  0.4550
18431TIP3    H176784   6.363   2.596   0.023 -1.1607  1.4945 -0.7870
18431TIP3    H276785   6.347   2.618   0.171 -2.8574  0.0973 -0.7290
18432TIP3   OH276786   0.572   2.848   3.115 -0.2022  0.0328 -0.0833
18432TIP3    H176787   0.622   2.898   3.179 -1.2448 -1.4970  2.0339
18432TIP3    H276788   0.631   2.779   3.086 -0.2014 -0.1681  0.3855
18433TIP3   OH276789   1.368   3.479  15.943  0.0469  0.6729  0.4638
18433TIP3    H176790   1.363   3.572  15.919 -0.7693  0.3557 -0.6349
18433TIP3    H276791   1.412   3.479  16.028  0.1228  2.0619  0.4452
18434TIP3   OH276792   5.244   4.774   1.437  0.6426  0.0239 -0.0963
18434TIP3    H176793   5.151   4.752   1.444  0.6324 -0.1673 -0.7749
18434TIP3    H276794   5.280   4.751   1.523  0.6318 -2.7311 -0.7362
18435TIP3   OH276795   1.287   4.820   4.726 -0.4458 -0.5952 -0.4769
18435TIP3    H176796   1.276   4.725   4.719  2.7722 -1.1239  0.3404
18435TIP3    H276797   1.292   4.837   4.820 -1.4728  0.5107 -0.5913
18436TIP3   OH276798   4.091   2.518  15.027  0.1439  0.3146  0.0460
18436TIP3    H176799   4.027   2.452  15.051  0.2206  0.1567 -0.1834
18436TIP3    H276800   4.168   2.468  14.999  0.1077  0.4941 -0.3914
18437TIP3   OH276801   1.545   0.151   3.608 -0.8751  0.1605  0.0101
18437TIP3    H176802   1.520   0.183   3.694 -1.2752 -1.5752  0.5779
18437TIP3    H276803   1.519   0.059   3.608  0.9027 -0.4017 -1.2356
18438TIP3   OH276804   3.726   3.148  15.445  0.3124  0.7150 -0.3597
18438TIP3    H176805   3.761   3.061  15.423  0.9626  0.8795  0.0011
18438TIP3    H276806   3.791   3.209  15.411 -0.9820  1.1548 -2.1851
18439TIP3   OH276807   2.849   1.110   5.813 -0.0175  0.3815  0.2962
18439TIP3    H176808   2.866   1.031   5.761 -2.2348 -1.1369  1.6873
18439TIP3    H276809   2.790   1.161   5.757 -0.2176  0.0510  0.1948
18440TIP3   OH276810   5.913   1.711   4.367 -0.2835 -0.0426  0.4576
18440TIP3    H176811   5.897   1.783   4.428 -1.3083  0.7415 -0.6838
18440TIP3    H276812   5.829   1.698   4.323  0.4513 -0.5300 -0.8418
18441TIP3   OH276813   1.436   3.675   5.992  0.0328 -0.5714  0.1979
18441TIP3    H176814   1.378   3.599   5.990 -1.0177  0.2230 -1.3517
18441TIP3    H276815   1.425   3.712   6.080 -1.9508 -0.3669 -0.0992
18442TIP3   OH276816   6.362   6.579   0.369 -0.1508  0.3057  0.0715
18442TIP3    H176817   6.357   6.493   0.328  1.4762  0.1645  0.0707
18442TIP3    H276818   6.377   6.561   0.462 -0.2416  0.5847  0.1412
18443TIP3   OH276819   1.193   5.408   4.417 -0.0519  0.2332 -0.2703
18443TIP3    H176820   1.255   5.481   4.418  0.3475 -0.0940 -0.4961
18443TIP3    H276821   1.247   5.331   4.434 -0.6504  0.1187  1.2373
18444TIP3   OH276822   0.403   0.366   5.612  0.3593 -0.6146  0.2929
18444TIP3    H176823   0.419   0.454   5.645 -1.4349  0.7434 -2.0872
18444TIP3    H276824   0.307   0.359   5.609  0.4653 -1.9470 -1.2219
18445TIP3   OH276825   5.941   2.511   4.680 -0.0490 -0.2785  0.4709
18445TIP3    H176826   5.877   2.570   4.721 -1.1791 -2.5862  2.3334
18445TIP3    H276827   6.026   2.551   4.697 -0.8270  1.4296  0.5118
18446TIP3   OH276828   4.657   2.514  13.104  0.2656  0.6123  0.0281
18446TIP3    H176829   4.692   2.499  13.016  0.0932 -3.0997  0.4477
18446TIP3    H276830   4.709   2.457  13.161 -2.4216 -0.4691  1.5905
18447TIP3   OH276831   4.388   5.417   1.594  0.5476  0.0360 -0.3116
18447TIP3    H176832   4.330   5.487   1.566  0.3894 -0.0947 -0.3106
18447TIP3    H276833   4.465   5.425   1.538  0.9099  0.7595  0.2745
18448TIP3   OH276834   0.972   2.562  11.836 -0.2883  0.0561 -0.6372
18448TIP3    H176835   0.954   2.514  11.917  0.7836 -0.2627 -0.5725
18448TIP3    H276836   0.946   2.502  11.766 -0.5123  0.0396 -0.5426
18449TIP3   OH276837   5.986   2.281   0.663  0.1580  0.0250  0.4116
18449TIP3    H176838   6.058   2.255   0.720  0.2716  0.3967  0.4402
18449TIP3    H276839   5.921   2.211   0.672  0.9103 -0.8060 -0.3508
18450TIP3   OH276840   6.268   0.164   3.515  0.2431 -0.1663  0.1816
18450TIP3    H176841   6.291   0.142   3.425  2.0249 -0.3944  0.6497
18450TIP3    H276842   6.173   0.168   3.516  0.1905 -0.4331 -1.6419
18451TIP3   OH276843   4.093   5.551   0.863 -0.3815  0.0946  0.4630
18451TIP3    H176844   4.121   5.460   0.875  1.3067  0.7498  1.9965
18451TIP3    H276845   4.020   5.562   0.923  0.7988  0.2989  1.9001
18452TIP3   OH276846   6.698   6.647  15.531  0.3752 -0.4802 -0.1385
18452TIP3    H176847   6.703   6.725  15.587  0.0352 -0.8658  0.4455
18452TIP3    H276848   6.645   6.585  15.582 -0.2167 -0.7233 -1.0399
18453TIP3   OH276849   6.335   0.195   3.252 -0.2286  0.5821  0.4397
18453TIP3    H176850   6.288   0.204   3.169 -0.3685  3.5413  0.7345
18453TIP3    H276851   6.374   0.107   3.249 -2.1032 -0.2604 -1.7191
18454TIP3   OH276852   1.389   0.744  14.520  0.5889 -0.0997 -0.3597
18454TIP3    H176853   1.421   0.834  14.510  1.3284 -0.2782  0.3392
18454TIP3    H276854   1.358   0.720  14.433  4.1533 -0.5978 -1.6830
18455TIP3   OH276855   4.040   6.183  12.139  0.2508 -0.0879  0.1599
18455TIP3    H176856   4.023   6.148  12.227  2.1683 -0.0772  0.5807
18455TIP3    H276857   3.960   6.232  12.117 -1.3460 -2.2770  0.7397
18456TIP3   OH276858   4.780   5.844   4.409  0.2584 -0.3486 -0.2442
18456TIP3    H176859   4.779   5.928   4.364 -0.8505 -0.9124 -1.3253
18456TIP3    H276860   4.690   5.813   4.405  0.5729 -1.4305  0.4614
18457TIP3   OH276861   3.269   0.188  13.423  0.0088  0.4675 -0.1146
18457TIP3    H176862   3.198   0.140  13.465 -2.0055  3.5974  0.3832
18457TIP3    H276863   3.245   0.280  13.433  1.3793  1.5785 -4.7234
18458TIP3   OH276864   3.455   4.596  14.781 -0.5146 -0.3940 -0.2588
18458TIP3    H176865   3.542   4.599  14.741  0.2536 -1.6023  1.2518
18458TIP3    H276866   3.405   4.664  14.735  1.2239  0.3459 -1.1189
18459TIP3   OH276867   0.628   3.335  15.929 -0.4726 -0.1295 -0.5629
18459TIP3    H176868   0.601   3.419  15.893  0.1070  0.0565 -0.5704
18459TIP3    H276869   0.556   3.310  15.987  0.4719  1.6394  1.5139
18460TIP3   OH276870   2.309   5.198   3.377 -0.5861 -0.6022 -0.0529
18460TIP3    H176871   2.379   5.247   3.422 -0.7612 -1.0973  0.7731
18460TIP3    H276872   2.356   5.139   3.318 -0.3287 -0.4876  0.0336
18461TIP3   OH276873   3.856   6.499  15.013  0.2146 -0.0752 -0.2135
18461TIP3    H176874   3.810   6.562  14.958  0.8732  0.3724 -0.2657
18461TIP3    H276875   3.866   6.543  15.097  0.4121 -0.2301 -0.1535
18462TIP3   OH276876   3.476   6.651   3.124  0.2334  0.0333  0.3854
18462TIP3    H176877   3.569   6.667   3.141  0.6382 -0.2734 -1.3008
18462TIP3    H276878   3.432   6.731   3.154  0.5813 -1.0185  4.1605
18463TIP3   OH276879   4.558   4.695   1.725  0.3644  0.3664 -0.0685
18463TIP3    H176880   4.608   4.759   1.674 -0.3187  0.1242 -1.0654
18463TIP3    H276881   4.619   4.621   1.736  0.4292  0.3056 -0.7808
18464TIP3   OH276882   5.689   3.916  10.443 -0.3966  0.5843 -0.0920
18464TIP3    H176883   5.637   3.945  10.369 -0.1867  1.8091  0.2168
18464TIP3    H276884   5.707   3.996  10.493  1.5806  0.1817 -0.0799
18465TIP3   OH276885   3.084   1.010  12.771  0.0210  0.1380  0.4972
18465TIP3    H176886   3.094   1.096  12.811  0.0014  0.4920 -0.2405
18465TIP3    H276887   3.125   1.019  12.685 -1.8284  0.0490 -0.4487
18466TIP3   OH276888   5.048   4.700   5.922  0.1575 -0.0164 -0.1466
18466TIP3    H176889   4.988   4.626   5.923  0.3429 -0.1708  0.5311
18466TIP3    H276890   5.114   4.676   5.857  1.4780 -1.5177  1.6276
18467TIP3   OH276891   6.346   3.953   2.961 -0.2012  0.5743 -0.6185
18467TIP3    H176892   6.425   3.900   2.976  0.1965  0.7793 -1.8804
18467TIP3    H276893   6.349   3.975   2.868 -1.7190  0.6557 -0.6683
18468TIP3   OH276894   3.012   3.906  15.751  0.6562 -0.3157 -0.0048
18468TIP3    H176895   3.046   3.827  15.793  0.6555  0.0989  0.8138
18468TIP3    H276896   3.083   3.970  15.758 -0.3562  0.6997  2.1319
18469TIP3   OH276897   4.608   2.360  16.784 -0.2731 -0.0568  0.4444
18469TIP3    H176898   4.556   2.292  16.741  1.8032 -1.0496 -0.6538
18469TIP3    H276899   4.613   2.331  16.876 -3.2855  1.1684  1.1179
18470TIP3   OH276900   0.853   0.571  14.705  0.0768  0.0682 -0.5335
18470TIP3    H176901   0.778   0.515  14.725 -0.3117  1.3047  1.7936
18470TIP3    H276902   0.875   0.612  14.789  2.4465  0.8466 -1.4728
18471TIP3   OH276903   4.490   2.572   5.333 -0.5145 -0.3388 -0.3021
18471TIP3    H176904   4.465   2.589   5.242  0.8760 -1.9371 -1.0478
18471TIP3    H276905   4.443   2.492   5.356 -1.0213  0.1715  0.4793
18472TIP3   OH276906   3.670   0.293   6.783 -0.3050  0.0531  0.3034
18472TIP3    H176907   3.612   0.241   6.727 -2.1526 -0.2755  2.3903
18472TIP3    H276908   3.723   0.228   6.829  1.3835  0.3317 -1.1556
18473TIP3   OH276909   6.100   2.797   5.486 -0.1076 -0.6649  0.3308
18473TIP3    H176910   6.123   2.778   5.395  0.7349 -0.0343  0.4000
18473TIP3    H276911   6.105   2.713   5.531  0.6048 -0.7858  0.0298
18474TIP3   OH276912   5.056   3.817   5.676 -0.3702  0.1359  0.0635
18474TIP3    H176913   5.039   3.724   5.696  1.0708  0.2066  1.8987
18474TIP3    H276914   5.134   3.838   5.727 -0.0391  2.1054 -1.1620
18475TIP3   OH276915   0.665   2.142  12.872 -0.2417 -0.1649 -0.4385
18475TIP3    H176916   0.683   2.222  12.920  0.3853 -0.7880  0.3850
18475TIP3    H276917   0.573   2.150  12.846 -0.8983 -0.2474  1.7215
18476TIP3   OH276918   2.110   2.861   0.365 -0.0228 -0.4093 -0.2542
18476TIP3    H176919   2.071   2.942   0.399 -0.6904 -1.0590  0.5596
18476TIP3    H276920   2.049   2.832   0.298  0.3472 -0.1194 -0.7266
18477TIP3   OH276921   1.882   6.144  12.598  0.6910  0.6340 -0.4596
18477TIP3    H176922   1.863   6.103  12.514 -0.2229  1.1893 -0.5354
18477TIP3    H276923   1.861   6.236  12.586 -1.8182  0.3647  1.0416
18478TIP3   OH276924   6.339   6.698   0.872 -0.6027  0.1222 -0.2503
18478TIP3    H176925   6.424   6.742   0.879 -0.5212  0.0819 -0.9303
18478TIP3    H276926   6.286   6.756   0.818 -1.1008  0.2704  0.3777
18479TIP3   OH276927   3.755   5.286  15.216  0.1594 -0.3626  0.7016
18479TIP3    H176928   3.736   5.195  15.193  2.0046 -0.5083 -0.4824
18479TIP3    H276929   3.850   5.288  15.229  0.3019  1.5737 -0.2712
18480TIP3   OH276930   2.588   6.641  16.877 -0.3911  0.5433  0.4198
18480TIP3    H176931   2.556   6.562  16.921 -1.0751  1.1419  1.0260
18480TIP3    H276932   2.521   6.661  16.812  0.7904 -0.5457 -1.2124
18481TIP3   OH276933   0.510   2.760  16.694 -0.3813 -0.3737 -0.0993
18481TIP3    H176934   0.516   2.747  16.789 -1.2408  1.5543  0.2494
18481TIP3    H276935   0.454   2.836  16.683 -0.3954 -0.6267 -2.1837
18482TIP3   OH276936   6.229   6.513   4.145 -0.0196  0.4924  0.2974
18482TIP3    H176937   6.309   6.477   4.108  0.8478  1.7941  0.8497
18482TIP3    H276938   6.213   6.461   4.223  0.7931  0.7886  0.6722
18483TIP3   OH276939   1.805   2.179   0.921  0.3023  0.6459 -0.0939
18483TIP3    H176940   1.878   2.123   0.894  1.4730  1.8074  0.5590
18483TIP3    H276941   1.736   2.158   0.859  0.9212 -1.0136 -0.2951
18484TIP3   OH276942   0.684   2.690  14.557 -0.0168 -0.0320  0.1598
18484TIP3    H176943   0.745   2.616  14.557 -0.4695 -0.4364  1.5370
18484TIP3    H276944   0.739   2.767  14.541  0.8905 -0.3723  1.4983
18485TIP3   OH276945   0.087   4.915   0.420 -0.2659  0.4324  0.3551
18485TIP3    H176946   0.056   4.825   0.425  0.1086  0.3428  1.2390
18485TIP3    H276947   0.115   4.926   0.329 -0.8476 -0.1592  0.0978
18486TIP3   OH276948   3.001   0.087  12.101  0.6769  0.1785  0.3206
18486TIP3    H176949   3.020   0.010  12.154 -0.1135 -0.8376 -0.8037
18486TIP3    H276950   3.080   0.100  12.048  0.3316 -0.6974 -0.4377
18487TIP3   OH276951   1.928   4.179   5.527 -0.4741 -0.2867 -0.1346
18487TIP3    H176952   1.958   4.247   5.587 -0.3597  0.8478 -1.4178
18487TIP3    H276953   1.891   4.112   5.583 -0.0429  0.5615  1.2143
18488TIP3   OH276954   5.808   4.594   3.082 -0.4308  0.3498  0.8079
18488TIP3    H176955   5.794   4.593   2.987 -0.7342 -0.0061  0.8544
18488TIP3    H276956   5.759   4.518   3.114  3.1947 -2.2402  0.7688
18489TIP3   OH276957   6.294   0.801  16.241  0.6905 -0.0001  0.4111
18489TIP3    H176958   6.304   0.824  16.149 -0.5173 -0.9967  0.0062
18489TIP3    H276959   6.360   0.732  16.256  0.1283 -0.6428 -0.0220
18490TIP3   OH276960   2.813   1.401   4.226  0.3112  0.5111 -0.5702
18490TIP3    H176961   2.802   1.322   4.173 -0.3555  0.6520 -0.6606
18490TIP3    H276962   2.801   1.372   4.316  0.3468  0.4601 -0.5822
18491TIP3   OH276963   6.497   3.578   1.284 -0.5040  0.0156 -0.6541
18491TIP3    H176964   6.552   3.596   1.207  1.0675 -0.3723  0.3329
18491TIP3    H276965   6.426   3.524   1.250  0.2659 -0.3131 -1.8122
18492TIP3   OH276966   4.790   3.910  15.656 -0.1663  0.1014 -0.6164
18492TIP3    H176967   4.832   3.887  15.740 -0.2474 -0.7265 -0.7910
18492TIP3    H276968   4.860   3.948  15.604  0.0128  0.1300 -0.3577
18493TIP3   OH276969   1.601   3.371   6.175  0.1593 -1.0971  0.4196
18493TIP3    H176970   1.641   3.445   6.130 -0.4163 -0.4812  0.9106
18493TIP3    H276971   1.660   3.298   6.156 -0.7587 -1.2126 -2.5035
18494TIP3   OH276972   1.399   0.808   3.433 -0.1791  0.9643  0.0156
18494TIP3    H176973   1.400   0.804   3.338  0.4814  0.4520  0.0402
18494TIP3    H276974   1.426   0.721   3.461  1.0764  1.5494  0.6736
18495TIP3   OH276975   1.976   5.504   3.365  0.0645  0.5827 -0.0368
18495TIP3    H176976   1.996   5.416   3.397 -1.1831  0.5318  0.6673
18495TIP3    H276977   2.054   5.531   3.317  0.3128 -1.0566 -0.6032
18496TIP3   OH276978   2.914   4.474  16.902  0.1620  0.2153 -0.1870
18496TIP3    H176979   2.988   4.462  16.842  1.1213  0.4738  0.9154
18496TIP3    H276980   2.938   4.425  16.980 -2.5802 -3.0761 -1.1224
18497TIP3   OH276981   2.939   1.611  12.399  1.0329 -0.0249 -0.0054
18497TIP3    H176982   2.918   1.653  12.316 -0.9759  0.7362  0.8288
18497TIP3    H276983   2.909   1.672  12.465 -1.3601 -2.3536  1.2718
18498TIP3   OH276984   0.007   0.239   0.274  0.3967 -0.1858 -0.1441
18498TIP3    H176985  -0.060   0.171   0.269 -0.9016  1.1049 -0.7250
18498TIP3    H276986   0.069   0.217   0.205 -1.6737  0.9078 -2.4777
18499TIP3   OH276987   2.632   0.517   4.959  0.2123 -0.6750 -0.3775
18499TIP3    H176988   2.626   0.602   4.916 -2.8433 -0.8514 -0.5073
18499TIP3    H276989   2.575   0.460   4.908 -0.0246 -2.0517  1.3306
18500TIP3   OH276990   5.646   5.255   5.681 -0.0648  0.1818 -0.1148
18500TIP3    H176991   5.587   5.311   5.630 -0.0583  0.8707  0.6187
18500TIP3    H276992   5.666   5.306   5.760  1.2099 -0.1960 -0.1688
18501TIP3   OH276993   4.445   1.210   5.090 -0.0448  0.2855  0.1666
18501TIP3    H176994   4.469   1.120   5.112  2.4163  0.7969 -0.1315
18501TIP3    H276995   4.470   1.261   5.167  0.2086  0.9111 -0.3184
18502TIP3   OH276996   2.191   3.019   4.809  0.6043 -0.4695  0.1627
18502TIP3    H176997   2.192   3.109   4.843 -1.7703 -0.5512  0.6296
18502TIP3    H276998   2.200   3.029   4.714 -0.4788  0.3571  0.1247
18503TIP3   OH276999   1.888   0.809   5.396 -0.0499  0.6167  0.3168
18503TIP3    H177000   1.924   0.885   5.443  0.8232  0.1443  0.4446
18503TIP3    H277001   1.890   0.834   5.304  3.4130 -0.4026 -0.0370
18504TIP3   OH277002   6.542   3.257  15.499  0.6313  0.8003  0.3519
18504TIP3    H177003   6.615   3.228  15.444  0.3186 -1.0513  0.8336
18504TIP3    H277004   6.577   3.253  15.588  0.1545  0.5569  0.5322
18505TIP3   OH277005   6.522   5.490   1.022 -0.1801 -0.0184  0.1284
18505TIP3    H177006   6.473   5.408   1.025  0.9712 -0.8376 -1.8391
18505TIP3    H277007   6.612   5.464   1.001 -0.2206  1.8403 -2.9498
18506TIP3   OH277008   6.687   3.777   0.612 -0.5728 -0.0892 -0.0780
18506TIP3    H177009   6.745   3.710   0.576 -1.7593 -1.8293  1.0772
18506TIP3    H277010   6.718   3.859   0.573 -0.2731 -1.4932 -3.0700
18507TIP3   OH277011   5.834   3.677   4.298  0.0757  0.1917  0.4284
18507TIP3    H177012   5.779   3.656   4.223 -0.3991 -0.0399  0.8323
18507TIP3    H277013   5.920   3.697   4.260 -0.1965  0.2317 -0.1820
18508TIP3   OH277014   6.657   3.500  13.987 -0.3666 -0.1326 -0.0508
18508TIP3    H177015   6.595   3.466  14.051 -1.9899 -0.3128 -1.6288
18508TIP3    H277016   6.743   3.483  14.025 -1.2575 -0.2905  2.0107
18509TIP3   OH277017   4.719   1.253  12.392  0.5400  0.1789 -0.1092
18509TIP3    H177018   4.716   1.158  12.381 -0.9778  0.0923  0.7791
18509TIP3    H277019   4.805   1.278  12.357  1.7371 -1.7204  1.2482
18510TIP3   OH277020   2.014   3.355   0.474  0.1822  0.2341 -0.5587
18510TIP3    H177021   1.930   3.396   0.493 -0.3355 -0.8971 -0.3264
18510TIP3    H277022   2.079   3.417   0.506 -0.5964  0.4495  0.6795
18511TIP3   OH277023   1.887   3.528  16.210  0.1304 -0.3416 -0.9392
18511TIP3    H177024   1.973   3.499  16.178  0.0123 -0.7121 -0.9294
18511TIP3    H277025   1.905   3.565  16.297  0.3914  0.2903 -1.2560
18512TIP3   OH277026   0.604   0.791  10.416  0.2319 -0.0783 -0.1811
18512TIP3    H177027   0.652   0.825  10.491 -0.1209  1.2978 -0.5389
18512TIP3    H277028   0.528   0.850  10.408 -1.6172 -2.2161  0.4476
18513TIP3   OH277029   0.881   3.600   3.159  0.2360  0.3923  0.3104
18513TIP3    H177030   0.967   3.642   3.160  0.5497 -0.0480 -2.0513
18513TIP3    H277031   0.895   3.519   3.109 -1.6620  0.5824 -0.6110
18514TIP3   OH277032   0.270   2.590   5.117 -0.7153 -0.2562  0.4521
18514TIP3    H177033   0.194   2.539   5.090 -0.5006 -0.6924  0.6570
18514TIP3    H277034   0.330   2.525   5.154  0.8757 -0.3745 -2.0430
18515TIP3   OH277035   0.038   1.111   3.044 -0.4650 -0.8357  0.1766
18515TIP3    H177036  -0.008   1.089   2.964  0.8259 -1.4147 -0.4326
18515TIP3    H277037   0.058   1.204   3.036 -0.0878 -0.9570 -0.3073
18516TIP3   OH277038   2.166   4.915  15.725 -0.5800 -0.1125 -0.3168
18516TIP3    H177039   2.143   4.843  15.783 -2.1510  0.8579  0.3429
18516TIP3    H277040   2.094   4.919  15.662 -0.7735  1.1195 -0.0648
18517TIP3   OH277041   0.019   4.175  11.837 -0.1693 -0.1885 -0.1376
18517TIP3    H177042   0.083   4.169  11.909  0.5097  0.1891 -0.6901
18517TIP3    H277043   0.040   4.101  11.780  0.2961  0.3738 -0.7168
18518TIP3   OH277044   4.648   1.003   3.861 -0.1677 -0.2556 -0.2926
18518TIP3    H177045   4.618   0.989   3.951  3.0292 -0.5400  0.8372
18518TIP3    H277046   4.627   1.094   3.843 -2.4322 -0.6587  0.0188
18519TIP3   OH277047   1.055   3.572  10.789  0.0788  0.0293 -0.3847
18519TIP3    H177048   1.072   3.531  10.704 -1.6685 -1.2922 -0.1739
18519TIP3    H277049   1.080   3.506  10.853  0.3988  0.6073  0.0902
18520TIP3   OH277050   2.033   5.897  17.056 -0.0449 -0.3352 -0.2205
18520TIP3    H177051   2.008   5.965  16.993  1.8868  2.0133  1.3664
18520TIP3    H277052   1.958   5.837  17.057 -1.0965  0.7613 -3.0133
18521TIP3   OH277053   1.680   0.654   3.078 -0.4705  0.6120 -0.4559
18521TIP3    H177054   1.600   0.703   3.098 -1.0082 -1.2730  2.5214
18521TIP3    H277055   1.751   0.714   3.101 -1.1006  0.8236  1.0622
18522TIP3   OH277056   2.632   0.334  13.952 -0.2072 -0.6797  0.2035
18522TIP3    H177057   2.557   0.348  13.894 -0.1060 -0.1688  0.1894
18522TIP3    H277058   2.605   0.373  14.035  0.4759  0.5821 -0.1315
18523TIP3   OH277059   0.984   5.208   5.579 -0.4712  0.0617  0.5218
18523TIP3    H177060   0.936   5.200   5.497  1.2250 -0.4586 -0.4703
18523TIP3    H277061   1.056   5.145   5.571 -1.1892 -1.2312  3.1209
18524TIP3   OH277062   5.308   4.691   6.050  0.1085 -0.5155 -0.3017
18524TIP3    H177063   5.330   4.734   6.132  0.2652  0.4178 -0.8106
18524TIP3    H277064   5.212   4.685   6.051 -0.0981  1.6538 -1.0492
18525TIP3   OH277065   1.013   0.901  13.434 -0.0468 -0.2961 -0.5079
18525TIP3    H177066   1.102   0.880  13.405  0.1138 -0.9630  0.4532
18525TIP3    H277067   1.016   0.994  13.456  0.8798 -0.6930  1.1597
18526TIP3   OH277068   6.141   2.618  11.998 -0.2602  0.3307  0.8495
18526TIP3    H177069   6.232   2.587  12.002 -0.2975 -0.2044 -1.2295
18526TIP3    H277070   6.149   2.712  11.984 -0.1184  0.7913  3.4346
18527TIP3   OH277071   3.487   1.811   2.761 -0.4048 -0.4866 -0.1919
18527TIP3    H177072   3.567   1.764   2.737  0.7190  1.6171 -0.8193
18527TIP3    H277073   3.511   1.856   2.842 -0.3220  1.5389 -1.2923
18528TIP3   OH277074   5.431   2.669   3.730  0.3023  0.1085  0.2396
18528TIP3    H177075   5.384   2.710   3.657  1.8902 -0.3863 -1.1422
18528TIP3    H277076   5.373   2.679   3.805 -1.2898  0.8910 -1.0296
18529TIP3   OH277077   2.928   1.943  16.674  0.1681 -0.2695  0.3617
18529TIP3    H177078   2.891   1.928  16.587 -0.1297 -2.1540  0.7611
18529TIP3    H277079   2.857   1.920  16.734 -0.0543  2.1969  1.1667
18530TIP3   OH277080   6.571   1.362   1.496  0.1974 -0.1121  0.0851
18530TIP3    H177081   6.659   1.338   1.466  1.4883  0.1758  3.2214
18530TIP3    H277082   6.552   1.300   1.566 -0.9630  1.4484  1.2104
18531TIP3   OH277083   5.172   2.217   3.809  0.5059 -0.2370 -0.5944
18531TIP3    H177084   5.248   2.271   3.829 -0.4223  1.2834 -1.0238
18531TIP3    H277085   5.181   2.196   3.716  0.3595 -0.0047 -0.6599
18532TIP3   OH277086   4.856   4.720  14.735  0.1002  0.2372 -0.5799
18532TIP3    H177087   4.826   4.694  14.648  0.4963  0.7998 -0.8975
18532TIP3    H277088   4.874   4.814  14.727 -1.0198  0.5720  0.4491
18533TIP3   OH277089   1.252   2.764  11.994  0.2651 -0.1942  0.3046
18533TIP3    H177090   1.274   2.858  11.990 -0.2012 -0.1241 -0.7144
18533TIP3    H277091   1.160   2.762  12.022 -0.0779 -0.3037 -0.8115
18534TIP3   OH277092   4.967   2.795   0.559 -0.2637 -0.0864  1.0456
18534TIP3    H177093   4.995   2.780   0.469 -2.2517  2.6851 -0.1710
18534TIP3    H277094   5.048   2.790   0.610  1.4755  1.3567 -1.3398
18535TIP3   OH277095   3.243   4.719  15.729 -0.4079  0.3121 -0.2203
18535TIP3    H177096   3.285   4.799  15.697 -1.5308  0.8489 -0.3821
18535TIP3    H277097   3.280   4.650  15.674  0.2277  0.7716 -0.3886
18536TIP3   OH277098   1.659   6.635   2.633 -0.3016 -0.0164 -0.1536
18536TIP3    H177099   1.671   6.709   2.692 -0.4257  0.9236 -1.2689
18536TIP3    H277100   1.747   6.602   2.617 -0.1887  0.2453 -0.0831
18537TIP3   OH277101   0.112   5.358   0.253 -0.3780  1.0428  0.0265
18537TIP3    H177102   0.170   5.349   0.329  0.0607 -0.2295 -0.4316
18537TIP3    H277103   0.149   5.431   0.203 -0.3369  1.5163  0.7459
18538TIP3   OH277104   6.415   1.019  11.477 -0.5767  0.3103 -0.0402
18538TIP3    H177105   6.399   0.943  11.532 -0.3720  0.2303 -0.0920
18538TIP3    H277106   6.376   0.997  11.393 -0.0267  0.0365 -0.2265
18539TIP3   OH277107   0.820   0.713  11.144  0.6123 -0.1253  0.3448
18539TIP3    H177108   0.880   0.784  11.122  0.8978 -1.0312 -1.9779
18539TIP3    H277109   0.854   0.677  11.226  3.1938 -0.5143 -0.8287
18540TIP3   OH277110   3.334   5.185   1.850 -0.3140 -0.3041  0.3754
18540TIP3    H177111   3.426   5.168   1.831 -0.4725 -0.0921 -0.6677
18540TIP3    H277112   3.313   5.126   1.923 -0.1733 -2.7378 -1.4164
18541TIP3   OH277113   3.344   1.168  12.845 -0.4259  0.6510 -0.3692
18541TIP3    H177114   3.385   1.082  12.833 -2.1767 -0.1110 -1.2590
18541TIP3    H277115   3.402   1.229  12.799  1.3596  0.1386  1.0900
18542TIP3   OH277116   1.380   5.598  13.803  1.0649  0.0249  0.0216
18542TIP3    H177117   1.412   5.585  13.892  4.8501 -0.7905 -1.2976
18542TIP3    H277118   1.331   5.518  13.784  0.1814  0.2157  1.3173
18543TIP3   OH277119   1.737   1.630  13.546 -0.6769 -0.4728 -0.2091
18543TIP3    H177120   1.693   1.545  13.553 -0.8240 -0.2946  1.1643
18543TIP3    H277121   1.707   1.680  13.621  0.1760  0.4460 -0.4530
18544TIP3   OH277122   3.745   3.885  13.468 -0.5150  0.7479  0.2186
18544TIP3    H177123   3.838   3.884  13.492 -0.4045  1.7635 -0.1092
18544TIP3    H277124   3.728   3.796  13.437  0.5458  0.7275 -0.3864
18545TIP3   OH277125   5.071   0.156  15.628  0.1246 -0.0614  0.2914
18545TIP3    H177126   5.081   0.079  15.572  0.2737  0.5997 -0.5960
18545TIP3    H277127   4.977   0.174  15.628  0.2156  0.4132 -0.3856
18546TIP3   OH277128   5.514   1.023  16.712  0.4879 -0.3488 -0.1384
18546TIP3    H177129   5.435   1.044  16.662  2.0935  2.0609 -1.8932
18546TIP3    H277130   5.583   1.016  16.646  1.9844 -1.2272  1.4322
18547TIP3   OH277131   4.303   5.919   2.474 -0.1631  0.3424 -0.3532
18547TIP3    H177132   4.371   5.964   2.524 -1.0152  1.6325 -0.3048
18547TIP3    H277133   4.306   5.960   2.387  1.1993 -1.7661 -1.3632
18548TIP3   OH277134   1.539   6.663   4.402  0.5339 -0.5399 -0.2188
18548TIP3    H177135   1.501   6.750   4.388  0.8122 -0.3608  0.1028
18548TIP3    H277136   1.544   6.624   4.315  0.6955 -0.1129 -0.4021
18549TIP3   OH277137   4.337   4.446   5.412  0.8982 -0.1798  0.0077
18549TIP3    H177138   4.359   4.365   5.367  0.1630 -0.0782 -0.5649
18549TIP3    H277139   4.309   4.505   5.342 -2.4444 -0.7221  0.7183
18550TIP3   OH277140   1.788   0.003   5.601  0.2226  0.4631 -0.2495
18550TIP3    H177141   1.743   0.080   5.636 -1.7464 -1.4787  1.7970
18550TIP3    H277142   1.767   0.003   5.507 -0.5626  1.8576 -0.0943
18551TIP3   OH277143   2.765   4.316   2.802 -0.0768  0.8438  0.2694
18551TIP3    H177144   2.802   4.298   2.716  0.9942 -1.4220  1.1243
18551TIP3    H277145   2.670   4.322   2.787  0.1606  1.4104 -1.1636
18552TIP3   OH277146   1.553   5.394   2.320 -0.2099 -0.4472  0.2128
18552TIP3    H177147   1.583   5.304   2.328 -1.8926 -0.9215  2.1783
18552TIP3    H277148   1.458   5.387   2.316 -0.3328  1.2089 -0.6688
18553TIP3   OH277149   3.620   2.750  11.868 -0.0196 -0.3645 -0.5324
18553TIP3    H177150   3.703   2.798  11.860  0.1017 -0.6213 -0.8760
18553TIP3    H277151   3.610   2.734  11.962 -0.6501  1.3396 -0.2856
18554TIP3   OH277152   2.612   4.326   5.372  0.1979  0.0780 -0.4676
18554TIP3    H177153   2.543   4.264   5.394 -0.1678  1.2690  2.1167
18554TIP3    H277154   2.591   4.356   5.284 -0.4527 -2.2908 -1.1852
18555TIP3   OH277155   1.669   2.969  15.907 -0.4555  0.2188 -0.0810
18555TIP3    H177156   1.581   2.984  15.942 -1.0663  0.5498 -1.6896
18555TIP3    H277157   1.667   3.009  15.820  0.6477 -1.5522 -0.9638
18556TIP3   OH277158   3.121   3.054   3.448  0.4844  0.4206 -0.1306
18556TIP3    H177159   3.090   3.055   3.538 -0.0831 -1.1092 -0.2868
18556TIP3    H277160   3.087   2.972   3.411  1.1714  0.7474 -1.5665
18557TIP3   OH277161   2.245   4.978  14.702 -0.0094 -0.3094  0.2514
18557TIP3    H177162   2.327   4.956  14.658  0.5402  0.6405  0.7718
18557TIP3    H277163   2.252   5.072  14.720 -0.9950 -0.3225  0.7502
18558TIP3   OH277164   5.185   2.430   3.413 -0.4405 -0.4439 -0.2789
18558TIP3    H177165   5.172   2.502   3.474  0.3447 -0.4226 -0.1336
18558TIP3    H277166   5.223   2.471   3.335 -2.2745 -0.3180 -1.1672
18559TIP3   OH277167   4.203   1.263  14.322 -0.4455 -0.1685  0.0049
18559TIP3    H177168   4.118   1.230  14.294 -0.2831 -0.3153 -0.3167
18559TIP3    H277169   4.227   1.329  14.258  0.3656 -1.1870 -0.7849
18560TIP3   OH277170   6.682   6.739  16.350  0.2839  0.4268  0.3876
18560TIP3    H177171   6.754   6.789  16.388 -0.7081  1.5302  0.8814
18560TIP3    H277172   6.650   6.794  16.278 -2.8030  2.1669  2.7992
18561TIP3   OH277173   0.700   4.294  11.827 -0.0680 -0.2261  0.3766
18561TIP3    H177174   0.714   4.323  11.917 -0.9116 -1.0687  0.7966
18561TIP3    H277175   0.723   4.201  11.827  0.6698 -0.0561 -0.4646
18562TIP3   OH277176   3.434   0.494   1.877 -0.0017 -0.0842  0.5306
18562TIP3    H177177   3.350   0.460   1.909  0.2534 -0.2218  1.0806
18562TIP3    H277178   3.445   0.577   1.924  0.8318 -0.7453  1.5684
18563TIP3   OH277179   2.327   3.106  11.802  0.6455  0.1510 -0.2635
18563TIP3    H177180   2.377   3.025  11.812 -0.0066 -0.2686 -0.3172
18563TIP3    H277181   2.239   3.083  11.832  0.2912  0.6556 -0.9009
18564TIP3   OH277182   1.613   2.153   3.771  0.5774  0.3021  0.0444
18564TIP3    H177183   1.697   2.110   3.788  1.5672  2.2497  0.3090
18564TIP3    H277184   1.614   2.171   3.677  0.1671 -0.2383 -0.0656
18565TIP3   OH277185   2.022   6.237  15.193  0.4063  0.5741 -0.4220
18565TIP3    H177186   2.090   6.239  15.126  0.2364 -0.7671 -0.6565
18565TIP3    H277187   2.067   6.204  15.271  0.5041  1.7208  0.0224
18566TIP3   OH277188   2.597   5.784  16.739  0.1492  0.4619 -0.4439
18566TIP3    H177189   2.601   5.813  16.831 -0.7003 -0.9589  0.0743
18566TIP3    H277190   2.504   5.766  16.724  0.3047  0.5361 -1.5517
18567TIP3   OH277191   6.160   1.727  11.633  0.1502  0.9920 -0.2474
18567TIP3    H177192   6.248   1.708  11.666 -0.9698 -1.6330  1.5980
18567TIP3    H277193   6.102   1.674  11.688 -2.5536  2.0427 -1.8824
18568TIP3   OH277194   6.355   1.861   0.179  0.0651 -0.3710 -0.9038
18568TIP3    H177195   6.406   1.789   0.214 -0.2745  0.4457  1.4439
18568TIP3    H277196   6.278   1.865   0.235 -1.1587  0.2725 -2.5445
18569TIP3   OH277197   5.598   2.347  14.998  0.0108 -0.2100  0.5276
18569TIP3    H177198   5.586   2.441  15.008 -1.0500 -0.2897  0.1652
18569TIP3    H277199   5.552   2.326  14.916  0.8589 -0.9236  0.2245
18570TIP3   OH277200   6.132   5.526  15.468  0.4785  0.5091 -0.1879
18570TIP3    H177201   6.145   5.436  15.499  0.0882  1.3239  2.6265
18570TIP3    H277202   6.167   5.526  15.379  0.3798 -2.4421 -0.3287
18571TIP3   OH277203   6.501   1.450   6.391  0.0413  0.5516 -0.3900
18571TIP3    H177204   6.428   1.404   6.350  1.1394  0.2505 -2.1195
18571TIP3    H277205   6.485   1.542   6.372 -1.1290  0.7467  1.3668
18572TIP3   OH277206   2.703   4.783  11.218 -0.0833  0.1471 -0.0825
18572TIP3    H177207   2.668   4.706  11.174  1.8392  0.3345 -2.0766
18572TIP3    H277208   2.783   4.805  11.170  0.5163  2.1977  1.6719
18573TIP3   OH277209   2.749   2.982  10.615  0.2972  0.0060 -0.3479
18573TIP3    H177210   2.717   3.063  10.574  1.6059  0.1835 -1.0866
18573TIP3    H277211   2.843   2.983  10.599  0.4286 -1.3475  0.2127
18574TIP3   OH277212   6.003   3.425  13.318 -0.0074 -0.2231  0.1331
18574TIP3    H177213   6.038   3.510  13.292 -0.1206 -0.6401 -1.4650
18574TIP3    H277214   6.080   3.376  13.348  0.0563  0.4307  1.0793
18575TIP3   OH277215   0.852   5.904   0.261 -0.6633  0.1256  0.1323
18575TIP3    H177216   0.843   5.872   0.351 -0.6971 -2.6354 -0.7329
18575TIP3    H277217   0.779   5.863   0.214  1.9403 -2.5026 -2.0462
18576TIP3   OH277218   4.643   3.239   4.141  0.0102 -0.4438  0.2719
18576TIP3    H177219   4.629   3.286   4.059 -1.3786  0.4519  0.9809
18576TIP3    H277220   4.589   3.285   4.205  2.2546 -0.1385  2.0881
18577TIP3   OH277221   2.843   2.585  13.993  0.3802  0.1281  0.1870
18577TIP3    H177222   2.890   2.571  14.075  1.0638 -2.4165 -0.5444
18577TIP3    H277223   2.841   2.499  13.951 -1.5670  0.9500 -1.6305
18578TIP3   OH277224   3.714   1.918   2.545 -0.3656 -0.6298 -0.2898
18578TIP3    H177225   3.715   1.988   2.480  1.3298 -2.4282 -2.3886
18578TIP3    H277226   3.635   1.867   2.524 -0.7969 -0.1902  0.2601
18579TIP3   OH277227   3.922   3.763  17.174  0.4192  0.1261 -0.3150
18579TIP3    H177228   3.928   3.668  17.183 -0.3412  0.0419 -0.6000
18579TIP3    H277229   3.844   3.777  17.120  0.5092  0.9131 -0.2553
18580TIP3   OH277230   1.406   2.698  14.077 -0.4148 -0.1763 -0.0933
18580TIP3    H177231   1.348   2.769  14.048  1.5224  0.9648 -1.5468
18580TIP3    H277232   1.355   2.618  14.064 -2.7074  0.8962  1.6460
18581TIP3   OH277233   0.705   3.248   6.694 -0.2178 -0.0414  0.1655
18581TIP3    H177234   0.677   3.247   6.602 -0.7015 -1.9556  0.2957
18581TIP3    H277235   0.789   3.203   6.694  0.0369  0.4240  0.6006
18582TIP3   OH277236   3.590   4.693  10.927 -0.3057 -0.6908 -0.1917
18582TIP3    H177237   3.655   4.736  10.983 -1.0850  0.4862 -0.1410
18582TIP3    H277238   3.594   4.600  10.950 -0.9788 -0.1737  2.2449
18583TIP3   OH277239   5.912   0.474  14.788  0.1179  0.3241 -0.1570
18583TIP3    H177240   5.904   0.494  14.881 -0.0911 -1.6789  0.2962
18583TIP3    H277241   5.983   0.409  14.784  0.5002  0.7955 -1.4736
18584TIP3   OH277242   5.741   3.687   5.107  0.5195 -0.4494  0.1838
18584TIP3    H177243   5.764   3.629   5.035 -3.0640 -1.3675 -0.4487
18584TIP3    H277244   5.794   3.765   5.093  2.7386 -2.0866 -1.1491
18585TIP3   OH277245   5.019   4.311  13.048 -0.6811  0.0138 -0.2204
18585TIP3    H177246   4.974   4.272  13.123 -0.4136 -1.3139 -0.7147
18585TIP3    H277247   5.028   4.239  12.986 -0.1402  0.8831 -1.1788
18586TIP3   OH277248   5.904   6.213  16.283 -0.0638 -0.0402 -0.4391
18586TIP3    H177249   5.942   6.263  16.355  0.2029 -0.1124 -0.5273
18586TIP3    H277250   5.970   6.146  16.264 -0.4207 -0.4247 -0.3199
18587TIP3   OH277251   2.452   2.735  14.575  0.2189  0.3589 -0.0604
18587TIP3    H177252   2.425   2.787  14.651  0.0336  1.3799 -0.7953
18587TIP3    H277253   2.415   2.648  14.590  0.4452  0.4615  1.1560
18588TIP3   OH277254   1.477   4.978  11.172 -0.0250 -0.1770  0.3749
18588TIP3    H177255   1.397   4.976  11.119 -1.6417  0.0058  2.6172
18588TIP3    H277256   1.522   5.058  11.145 -2.0461  1.2333  0.9083
18589TIP3   OH277257   0.471   6.609   2.079  0.3645 -0.6684  0.2205
18589TIP3    H177258   0.564   6.624   2.096  0.4462 -0.1248 -0.6190
18589TIP3    H277259   0.447   6.678   2.017 -0.8572 -0.1699  1.2179
18590TIP3   OH277260   3.116   4.244  14.077 -0.0921  0.2598  0.6695
18590TIP3    H177261   3.073   4.237  13.991 -0.5212 -0.0721  0.9023
18590TIP3    H277262   3.150   4.333  14.080 -0.2520  0.3378  0.2335
18591TIP3   OH277263   6.707   3.579  16.037 -0.3161  0.4686 -0.1404
18591TIP3    H177264   6.769   3.632  16.086 -0.6943 -0.9840  2.0335
18591TIP3    H277265   6.624   3.590  16.083 -0.7337 -0.7750 -0.5535
18592TIP3   OH277266   2.566   6.738  11.239  0.1042  0.3729 -0.1765
18592TIP3    H177267   2.651   6.779  11.253 -0.4512  2.2870 -1.9487
18592TIP3    H277268   2.583   6.671  11.172  0.2467  0.6483 -0.4167
18593TIP3   OH277269   4.225   4.710   1.258  0.0860 -0.4392  0.1324
18593TIP3    H177270   4.193   4.681   1.344 -0.6225  0.7655  0.3128
18593TIP3    H277271   4.178   4.655   1.195  0.5753 -1.3001  0.5050
18594TIP3   OH277272   2.894   4.277  15.774  0.1672  0.2713 -0.3020
18594TIP3    H177273   2.960   4.307  15.836  1.5435 -1.6989 -0.7262
18594TIP3    H277274   2.883   4.350  15.713  0.1420  1.5343  1.1617
18595TIP3   OH277275   2.000   6.498   0.721 -0.4857 -0.1975 -0.0823
18595TIP3    H177276   1.981   6.505   0.628 -0.1552 -2.3620 -0.3634
18595TIP3    H277277   2.021   6.406   0.735 -0.7728  0.0140  2.1905
18596TIP3   OH277278   2.445   0.202   6.020 -0.2223 -0.0626  0.1664
18596TIP3    H177279   2.463   0.155   6.102  1.8304  0.2658 -0.0399
18596TIP3    H277280   2.403   0.284   6.048 -0.8718 -0.5911  0.7694
18597TIP3   OH277281   2.145   1.190  11.133 -0.7746  0.1833 -0.4572
18597TIP3    H177282   2.188   1.115  11.093  0.5931  0.5645  0.2647
18597TIP3    H277283   2.112   1.157  11.217  0.7744  0.6232  0.3572
18598TIP3   OH277284   2.278   3.697   5.015 -0.0927  0.4825 -0.1450
18598TIP3    H177285   2.279   3.639   5.090  0.4301  0.8961  0.1749
18598TIP3    H277286   2.253   3.641   4.941  0.2064 -0.0955  0.1914
18599TIP3   OH277287   3.801   6.081   6.803  0.3672 -0.3091  0.1004
18599TIP3    H177288   3.730   6.037   6.849  0.6342 -1.4479 -0.5471
18599TIP3    H277289   3.817   6.027   6.726  0.6789  0.9640 -0.7438
18600TIP3   OH277290   2.365   1.716  10.980  0.6042  0.4993  0.3549
18600TIP3    H177291   2.372   1.780  10.909 -1.6135  2.2044  1.5282
18600TIP3    H277292   2.453   1.712  11.018  2.4897 -2.1309 -3.6421
18601TIP3   OH277293   3.881   6.660   2.683 -0.0394 -0.7766 -0.0963
18601TIP3    H177294   3.930   6.741   2.697 -0.5673 -0.5191  0.2721
18601TIP3    H277295   3.808   6.664   2.745 -0.5520 -1.1399 -0.6586
18602TIP3   OH277296   1.932   5.787   5.884  0.1628 -0.1754 -0.0822
18602TIP3    H177297   1.995   5.733   5.933  0.5032 -0.2883 -0.6401
18602TIP3    H277298   1.877   5.725   5.838  2.2112 -0.1150 -2.8655
18603TIP3   OH277299   6.004   1.324   1.458  0.2977  0.2681 -0.1999
18603TIP3    H177300   5.960   1.250   1.417 -0.1430  0.1631  0.4378
18603TIP3    H277301   5.947   1.399   1.441  1.6834  0.9041 -2.5335
18604TIP3   OH277302   3.381   2.602  11.072  0.1028 -0.0843 -0.7268
18604TIP3    H177303   3.369   2.511  11.099  0.2024  0.3581  0.8894
18604TIP3    H277304   3.302   2.646  11.103  1.2149  0.8736  0.9036
18605TIP3   OH277305   4.749   6.110  12.217  0.4202 -0.5122 -0.0277
18605TIP3    H177306   4.792   6.165  12.283 -0.9743  1.1674 -0.4574
18605TIP3    H277307   4.785   6.023  12.232  1.0282  0.0565  2.1730
18606TIP3   OH277308   5.461   0.000   2.739  0.0683 -0.7585  0.3102
18606TIP3    H177309   5.507   0.077   2.772 -0.8940 -0.1931  0.3824
18606TIP3    H277310   5.522  -0.073   2.752  1.1803  0.0591 -0.1831
18607TIP3   OH277311   2.872   5.922  10.473 -0.5150 -0.3201  0.2271
18607TIP3    H177312   2.862   5.906  10.567  0.8988 -2.6010  0.0617
18607TIP3    H277313   2.835   5.844  10.432 -0.1374  0.1598 -1.0508
18608TIP3   OH277314   1.117   1.708  13.930  0.2436 -0.4695 -0.0082
18608TIP3    H177315   1.096   1.649  13.858  1.0849  0.0748 -0.7248
18608TIP3    H277316   1.198   1.671  13.967 -1.9122 -2.7125  2.8876
18609TIP3   OH277317   0.339   3.890   3.616 -0.0874 -0.2895 -0.2175
18609TIP3    H177318   0.359   3.984   3.607 -0.7818 -0.3034 -2.7553
18609TIP3    H277319   0.405   3.847   3.561 -2.3870 -0.8761 -2.7433
18610TIP3   OH277320   4.486   2.347   4.588 -0.4892 -0.3270 -0.2231
18610TIP3    H177321   4.451   2.257   4.590 -0.5429 -0.2953  0.6989
18610TIP3    H277322   4.449   2.388   4.667  2.0991 -0.4748  1.1588
18611TIP3   OH277323   0.510   3.800   2.778 -0.1434  0.3106 -0.0353
18611TIP3    H177324   0.427   3.844   2.801 -1.1770 -2.0881  1.1504
18611TIP3    H277325   0.573   3.836   2.840 -0.9796  0.1421  0.9528
18612TIP3   OH277326   5.912   2.020   2.184  0.7904  0.1164 -0.2334
18612TIP3    H177327   5.907   2.015   2.089 -1.5651  1.0506 -0.2227
18612TIP3    H277328   5.832   2.065   2.210  0.9677 -0.8402  2.2488
18613TIP3   OH277329   0.525   2.389  14.990 -0.1436 -0.7256 -0.0552
18613TIP3    H177330   0.470   2.425  15.059  2.5319  0.1658  1.7573
18613TIP3    H277331   0.510   2.447  14.915  0.1400  1.0013  1.1627
18614TIP3   OH277332   6.444   0.508  16.973  0.5001  1.2597  0.6328
18614TIP3    H177333   6.422   0.429  16.924 -0.9396  2.3968 -0.6248
18614TIP3    H277334   6.524   0.485  17.020 -0.4045 -1.2749  1.0973
18615TIP3   OH277335   3.759   3.813   1.880 -0.2324  0.1996  0.2175
18615TIP3    H177336   3.736   3.869   1.954  1.4745 -0.4953  1.3302
18615TIP3    H277337   3.834   3.857   1.839 -0.1081 -0.2730 -0.0709
18616TIP3   OH277338   3.095   6.081  10.540 -0.3824  0.3814  0.4443
18616TIP3    H177339   3.020   6.051  10.488 -0.2810 -0.6836  0.8816
18616TIP3    H277340   3.157   6.008  10.537  0.5374  1.1557  0.2927
18617TIP3   OH277341   1.637   5.623  16.283  0.2930 -0.0519 -0.0703
18617TIP3    H177342   1.581   5.545  16.281  0.5229 -0.3853  2.5420
18617TIP3    H277343   1.680   5.624  16.198 -1.9341 -1.0757 -1.2888
18618TIP3   OH277344   3.350   1.226   0.656  0.3829 -0.0630  0.0642
18618TIP3    H177345   3.276   1.202   0.600 -1.3281  1.0884  1.7178
18618TIP3    H277346   3.401   1.146   0.663 -0.8003 -0.9581 -0.9748
18619TIP3   OH277347   4.934   2.571  14.403  0.2701 -0.1205 -0.0280
18619TIP3    H177348   4.993   2.647  14.396  0.5373 -0.3439 -0.2004
18619TIP3    H277349   4.924   2.541  14.313 -0.0271 -0.1466  0.0140
18620TIP3   OH277350   2.101   1.353  12.591  0.1212  0.1892 -0.1377
18620TIP3    H177351   2.108   1.446  12.569 -1.6863  0.4323  0.1707
18620TIP3    H277352   2.154   1.343  12.671 -0.7982  1.2692  0.6306
18621TIP3   OH277353   6.729   1.948   2.825  0.5143 -0.0323 -0.1750
18621TIP3    H177354   6.762   2.029   2.786 -0.3409  0.5297  0.2561
18621TIP3    H277355   6.655   1.975   2.878  0.2267 -1.1022 -0.0124
18622TIP3   OH277356   5.423   1.452  13.955  0.0456  0.0359  0.1285
18622TIP3    H177357   5.337   1.446  13.914  0.1142 -0.2299  0.0262
18622TIP3    H277358   5.480   1.396  13.902  0.3588  0.4616 -0.0024
18623TIP3   OH277359   4.218   0.135  12.282 -0.2545  0.4581 -0.0510
18623TIP3    H177360   4.191   0.189  12.356  0.4641  0.5249  0.1698
18623TIP3    H277361   4.299   0.094  12.310  1.5063  2.5262 -1.7023
18624TIP3   OH277362   1.915   4.431   3.792 -0.3832 -0.1767 -0.1542
18624TIP3    H177363   1.882   4.404   3.877  0.2917 -1.2038 -0.1870
18624TIP3    H277364   1.949   4.350   3.753  0.4255  0.4839 -0.8875
18625TIP3   OH277365   4.232   3.243   1.111  0.0413 -0.3683 -0.4017
18625TIP3    H177366   4.235   3.174   1.044 -0.0126  0.6874 -1.5363
18625TIP3    H277367   4.299   3.217   1.175 -0.4273 -1.7937 -0.4621
18626TIP3   OH277368   3.041   1.776  12.792 -0.9222 -0.1827  0.0764
18626TIP3    H177369   2.991   1.814  12.865 -1.2234  2.7165 -1.5151
18626TIP3    H277370   2.978   1.719  12.748 -1.8615  0.8837 -0.0056
18627TIP3   OH277371   4.117   6.117  15.782  0.0829  1.1930  0.5682
18627TIP3    H177372   4.191   6.058  15.764  0.0543  1.3228  0.0002
18627TIP3    H277373   4.132   6.148  15.871 -1.6528 -2.3056  2.2986
18628TIP3   OH277374   5.778   1.898  16.394 -0.4059  0.3385  0.2121
18628TIP3    H177375   5.732   1.973  16.358 -1.7175 -0.3292  0.4450
18628TIP3    H277376   5.738   1.822  16.351  2.4868 -0.2107 -1.8828
18629TIP3   OH277377   6.708   2.004   4.216 -0.5571  0.4837  0.1006
18629TIP3    H177378   6.653   2.025   4.291  0.4025  1.3134  0.6086
18629TIP3    H277379   6.733   2.089   4.179 -1.7066  0.0853 -1.7118
18630TIP3   OH277380   1.881   0.427  15.398 -0.2302  0.3220  0.2307
18630TIP3    H177381   1.966   0.397  15.431 -0.5837  0.1472  0.9861
18630TIP3    H277382   1.865   0.509  15.446 -0.8027  0.0035  0.5921
18631TIP3   OH277383   3.289   2.683  14.631  0.0935  0.2148  0.0947
18631TIP3    H177384   3.310   2.761  14.682  0.7395  1.0714 -1.4214
18631TIP3    H277385   3.298   2.610  14.693  0.2188  1.2711  1.3469
18632TIP3   OH277386   4.212   1.864   2.202 -0.4927 -0.0626 -0.1020
18632TIP3    H177387   4.191   1.923   2.130 -1.2433 -0.9720 -0.6620
18632TIP3    H277388   4.293   1.820   2.174  0.5731  1.2856  0.7105
18633TIP3   OH277389   0.053   6.308  16.696  0.0751 -0.0444  0.3023
18633TIP3    H177390   0.073   6.397  16.726 -0.8389 -0.8728  3.7300
18633TIP3    H277391   0.095   6.250  16.759  0.2389 -2.1151 -1.5716
18634TIP3   OH277392   3.843   4.316  15.543 -0.0605  0.2407 -0.5365
18634TIP3    H177393   3.886   4.307  15.457 -1.9378 -2.0033 -1.3507
18634TIP3    H277394   3.878   4.244  15.594 -2.2586 -1.2371 -1.0074
18635TIP3   OH277395   4.628   2.306  13.839 -0.0616 -0.3581 -0.0770
18635TIP3    H177396   4.642   2.368  13.768  1.3597  0.4830  0.8852
18635TIP3    H277397   4.658   2.222  13.805  1.5848  0.2274 -0.1689
18636TIP3   OH277398   2.721   1.175   3.290  0.2203  0.3557  0.3340
18636TIP3    H177399   2.806   1.146   3.322 -0.2306 -1.7490 -0.2120
18636TIP3    H277400   2.658   1.136   3.351 -0.4097  0.5984 -0.1479
18637TIP3   OH277401   2.180   5.936  11.379  1.0096  0.3421  0.6933
18637TIP3    H177402   2.216   5.870  11.439 -1.2069 -1.0452  0.5983
18637TIP3    H277403   2.098   5.963  11.420  0.6235  1.1325 -0.5525
18638TIP3   OH277404   1.947   0.338   5.768  0.1342  0.3221  0.4625
18638TIP3    H177405   1.921   0.378   5.851 -1.6139 -2.2393  1.2874
18638TIP3    H277406   1.895   0.382   5.702  1.3138  2.1712  0.7024
18639TIP3   OH277407   5.336   2.908   0.143  0.2789  0.3081 -0.7655
18639TIP3    H177408   5.277   2.953   0.082 -0.7621  2.0227  1.3580
18639TIP3    H277409   5.400   2.975   0.169  0.9595 -0.5010 -0.2985
18640TIP3   OH277410   2.137   5.459  14.498 -0.9320  0.3123 -0.6130
18640TIP3    H177411   2.143   5.515  14.575 -2.3758 -1.4008  0.8538
18640TIP3    H277412   2.223   5.419  14.491 -0.7658  0.5213  0.1073
18641TIP3   OH277413   3.044   0.101   2.845 -0.2397 -0.1802  0.0201
18641TIP3    H177414   2.989   0.052   2.906 -0.7454 -1.2853 -1.2790
18641TIP3    H277415   3.132   0.097   2.883  0.3059 -4.3614 -1.2125
18642TIP3   OH277416   0.031   5.013   3.951 -0.3266  0.1945 -0.2535
18642TIP3    H177417   0.031   5.000   4.045  2.1021  0.3278 -0.1751
18642TIP3    H277418   0.023   5.108   3.939  1.5366  0.4141 -0.0476
18643TIP3   OH277419   4.028   3.393   1.640  0.6463  0.5221  0.3429
18643TIP3    H177420   4.059   3.460   1.580  0.9348 -1.5930 -2.0383
18643TIP3    H277421   3.945   3.362   1.602  0.2694 -0.1569  1.6256
18644TIP3   OH277422   6.475   6.116   5.882 -0.5775  0.3698 -0.2218
18644TIP3    H177423   6.446   6.195   5.928 -0.6432  1.3208 -1.8076
18644TIP3    H277424   6.569   6.130   5.867 -0.3438 -0.3789  0.4420
18645TIP3   OH277425   2.651   0.785   0.664 -0.0033  0.2695 -0.4103
18645TIP3    H177426   2.645   0.726   0.588 -0.2852  0.9179 -0.8982
18645TIP3    H277427   2.612   0.735   0.735  0.5373 -0.4685 -0.6137
18646TIP3   OH277428   4.931   4.894  13.145 -1.0308 -0.0272  0.0265
18646TIP3    H177429   5.012   4.935  13.115  0.3040 -1.6692  1.2317
18646TIP3    H277430   4.868   4.912  13.075 -0.7154  4.3059  0.5529
18647TIP3   OH277431   5.107   2.900  11.909  0.9034 -0.0030 -0.5151
18647TIP3    H177432   5.178   2.888  11.846 -0.3172 -1.0415 -1.7779
18647TIP3    H277433   5.034   2.932  11.856  0.3568  0.8771  0.7158
18648TIP3   OH277434   1.077   4.248   0.950 -0.5446  0.6174 -0.2537
18648TIP3    H177435   1.132   4.170   0.942 -0.6437  0.4637  0.5066
18648TIP3    H277436   1.004   4.221   1.006  0.4041  1.7635  1.6372
18649TIP3   OH277437   1.169   2.054  15.190 -0.6391  0.0806  0.1245
18649TIP3    H177438   1.108   2.106  15.138 -0.5262 -0.4938 -0.5955
18649TIP3    H277439   1.211   1.997  15.127  0.3547  0.1853  0.6802
18650TIP3   OH277440   2.742   5.233  10.952 -0.4858 -0.2068 -0.0348
18650TIP3    H177441   2.711   5.191  10.872  2.0585 -2.2532 -0.0781
18650TIP3    H277442   2.684   5.201  11.021 -0.8076 -0.9338 -0.6336
18651TIP3   OH277443   1.260   2.559  11.834  0.3694  0.6612 -0.5039
18651TIP3    H177444   1.287   2.620  11.902  1.4372  0.3160 -0.5922
18651TIP3    H277445   1.165   2.568  11.829  0.2860  0.7829  0.9351
18652TIP3   OH277446   5.943   0.155   5.742 -0.3338  0.4084 -0.6319
18652TIP3    H177447   6.034   0.181   5.728  0.7571 -1.9357  1.3165
18652TIP3    H277448   5.919   0.195   5.826  0.0337 -1.3520  0.3914
18653TIP3   OH277449   5.419   0.916   2.244 -0.2827  0.1580 -0.0075
18653TIP3    H177450   5.496   0.960   2.280 -0.2491 -0.1824  0.3366
18653TIP3    H277451   5.386   0.976   2.177  0.5403  0.1121 -0.4656
18654TIP3   OH277452   6.614   2.186   5.178 -0.1184 -0.0790  0.2266
18654TIP3    H177453   6.571   2.261   5.136 -0.5545 -0.4731 -0.0413
18654TIP3    H277454   6.560   2.167   5.254 -0.5287 -0.6958 -0.2162
18655TIP3   OH277455   0.728   1.012   2.970 -0.5272  0.1382  0.1373
18655TIP3    H177456   0.666   0.991   3.039 -0.5999  0.4803  0.1799
18655TIP3    H277457   0.813   1.014   3.014 -0.8618  3.3633  0.9270
18656TIP3   OH277458   4.647   1.516  16.429 -0.3757  0.0400  0.6748
18656TIP3    H177459   4.687   1.595  16.465  0.1329  1.0549 -1.8981
18656TIP3    H277460   4.692   1.502  16.346 -0.9191 -2.6039  0.7350
18657TIP3   OH277461   2.297   6.307   0.646 -0.0353  0.0635 -0.0227
18657TIP3    H177462   2.306   6.256   0.726  1.4643 -2.1858 -1.5039
18657TIP3    H277463   2.258   6.246   0.583 -0.4717  1.5314 -1.2376
18658TIP3   OH277464   2.400   2.380  11.683  0.0312 -0.2641 -0.0488
18658TIP3    H177465   2.475   2.368  11.741 -0.2684  0.3960  0.4895
18658TIP3    H277466   2.429   2.345  11.599  0.8659 -0.2161  0.2075
18659TIP3   OH277467   5.143   3.143  16.364 -1.0980  0.2768  0.2282
18659TIP3    H177468   5.140   3.216  16.426 -0.5417  1.5212 -1.1697
18659TIP3    H277469   5.085   3.170  16.293 -1.6436 -1.0854  0.1258
18660TIP3   OH277470   0.027   3.994  11.337  0.4275  0.1942 -0.2069
18660TIP3    H177471  -0.060   3.998  11.298  0.1873 -1.1593  0.1370
18660TIP3    H277472   0.083   4.042  11.276 -0.6086  1.4009 -0.2427
18661TIP3   OH277473   1.676   5.918   3.299  0.5186  0.1553  0.1266
18661TIP3    H177474   1.651   5.985   3.362 -0.7155 -0.5089  0.3790
18661TIP3    H277475   1.677   5.837   3.349 -1.0599 -0.4827 -0.7872
18662TIP3   OH277476   1.582   4.653  13.148 -0.6609  0.6568 -0.4525
18662TIP3    H177477   1.575   4.558  13.144 -2.3875  0.6838  0.6621
18662TIP3    H277478   1.671   4.670  13.178 -0.2529 -0.5716 -0.8919
18663TIP3   OH277479   3.121   2.391  16.186 -0.0019  0.2473 -0.3425
18663TIP3    H177480   3.044   2.335  16.186  1.0562 -1.3114  1.2079
18663TIP3    H277481   3.149   2.394  16.095 -0.6040 -1.0278 -0.5853
18664TIP3   OH277482   5.823   3.957  10.794 -0.5136  0.2895 -0.0082
18664TIP3    H177483   5.852   3.948  10.885  0.6986 -2.2795 -0.5434
18664TIP3    H277484   5.897   3.999  10.750 -1.7519  3.1444  0.3864
18665TIP3   OH277485   6.742   0.379   3.605  0.4259  0.3196  0.3455
18665TIP3    H177486   6.653   0.345   3.600  1.2616 -1.8531 -0.8617
18665TIP3    H277487   6.795   0.306   3.637  2.0440  0.9587 -0.7075
18666TIP3   OH277488   1.267   0.395   0.192 -0.5298 -0.2125  0.1373
18666TIP3    H177489   1.335   0.329   0.203 -1.9828 -1.4944  2.1281
18666TIP3    H277490   1.302   0.454   0.125  1.6626 -1.8812 -0.3181
18667TIP3   OH277491   1.274   6.755  15.221  0.0542 -0.0587 -0.3587
18667TIP3    H177492   1.225   6.837  15.223 -0.8019 -0.5594  0.0352
18667TIP3    H277493   1.361   6.779  15.188 -0.2546  0.9577 -0.4635
18668TIP3   OH277494   1.867   3.030   2.467 -0.2235 -0.2470 -0.1972
18668TIP3    H177495   1.934   2.999   2.528 -0.0196  1.7402  0.6797
18668TIP3    H277496   1.814   3.090   2.519 -1.3072 -0.0396 -1.4827
18669TIP3   OH277497   3.382   0.571  14.754  0.2250  0.0316  0.2457
18669TIP3    H177498   3.337   0.564  14.670 -1.3935 -0.6315  1.1248
18669TIP3    H277499   3.474   0.558  14.733 -0.0978  0.3647 -1.4813
18670TIP3   OH277500   3.327   6.489  14.651 -0.9209  0.3435  0.1218
18670TIP3    H177501   3.418   6.519  14.646 -0.6281  0.0000  2.3778
18670TIP3    H277502   3.320   6.423  14.582  0.6404  0.1779  0.0807
18671TIP3   OH277503   4.723   1.486  13.479 -0.0477 -0.7762  0.2823
18671TIP3    H177504   4.766   1.493  13.564 -0.6187 -0.4986  0.5484
18671TIP3    H277505   4.694   1.395  13.475  0.3008 -0.8852  0.2305
18672TIP3   OH277506   4.695   0.661  15.254  0.4721 -0.0509  0.0865
18672TIP3    H177507   4.770   0.604  15.274  1.1116  0.9749  0.6685
18672TIP3    H277508   4.636   0.651  15.329 -0.0904 -0.9934 -0.4507
18673TIP3   OH277509   1.868   4.735  12.888  0.0192  0.1990 -0.5292
18673TIP3    H177510   1.798   4.688  12.843 -0.9377  0.3050  0.7675
18673TIP3    H277511   1.922   4.771  12.818 -0.2712 -1.2755 -1.5537
18674TIP3   OH277512   5.758   4.592   4.546  0.1341 -0.6237 -0.2490
18674TIP3    H177513   5.672   4.633   4.549  0.6829  0.7601 -1.7217
18674TIP3    H277514   5.751   4.527   4.476  0.8416  1.0519 -1.9755
18675TIP3   OH277515   4.264   3.562   5.136  0.5232  0.0664 -0.4934
18675TIP3    H177516   4.178   3.594   5.164  0.4425 -2.1604  2.2618
18675TIP3    H277517   4.244   3.502   5.064 -0.2404 -0.3804  0.0729
18676TIP3   OH277518   0.800   0.329  12.862  0.0332 -0.1274  0.2363
18676TIP3    H177519   0.748   0.249  12.861 -1.3628  0.7400 -1.0440
18676TIP3    H277520   0.735   0.400  12.864  1.2291  1.0008  1.6330
18677TIP3   OH277521   0.728   2.802  11.163  0.1930  0.2020 -0.2686
18677TIP3    H177522   0.678   2.879  11.136  1.1564  0.3310 -1.7558
18677TIP3    H277523   0.800   2.838  11.216 -0.4130  0.1428  0.6158
18678TIP3   OH277524   5.150   3.693   1.176  0.1665  0.6429 -0.6276
18678TIP3    H177525   5.077   3.636   1.199  1.3171  0.0238  1.8931
18678TIP3    H277526   5.214   3.636   1.134  1.7105 -0.3618  2.7082
18679TIP3   OH277527   1.412   3.753  14.847  0.2813 -0.9241  0.0716
18679TIP3    H177528   1.422   3.843  14.877  1.1228 -1.2421  0.8018
18679TIP3    H277529   1.363   3.759  14.765 -1.7469  0.0242  1.2832
18680TIP3   OH277530   5.013   0.734  13.518  0.0705  0.8322 -0.3916
18680TIP3    H177531   4.973   0.688  13.592  0.1769  0.5981 -0.4790
18680TIP3    H277532   5.081   0.674  13.486  0.5900  1.2825 -0.1549
18681TIP3   OH277533   4.953   2.321  16.179  0.4468  0.1161 -0.2374
18681TIP3    H177534   4.858   2.335  16.176  0.8072  2.8828 -2.6038
18681TIP3    H277535   4.973   2.272  16.100  1.1312  0.7024 -0.4346
18682TIP3   OH277536   4.767   0.063   0.287  0.0650  0.0218 -0.1120
18682TIP3    H177537   4.676   0.080   0.261  0.3485  1.2917 -0.3472
18682TIP3    H277538   4.782   0.122   0.361  0.8979  0.3571 -0.5250
18683TIP3   OH277539   5.643   5.800  12.795 -0.2512 -0.1067  0.5493
18683TIP3    H177540   5.580   5.865  12.826 -1.7523 -1.6172  0.7840
18683TIP3    H277541   5.684   5.767  12.874 -0.6986 -0.6178  0.5736
18684TIP3   OH277542   4.346   3.151   3.480 -0.2138  0.1085  0.0824
18684TIP3    H177543   4.380   3.076   3.529  0.9937 -0.0683 -1.0018
18684TIP3    H277544   4.356   3.225   3.540  1.7134 -0.0162 -0.0306
18685TIP3   OH277545   4.666   5.974   5.641 -0.3582 -0.8030  0.0929
18685TIP3    H177546   4.715   5.944   5.565  1.1974  0.1914  0.6558
18685TIP3    H277547   4.578   5.990   5.608  0.2288 -0.5924 -1.4563
18686TIP3   OH277548   0.839   5.745   2.732  0.3920 -0.0889 -0.5822
18686TIP3    H177549   0.752   5.750   2.692  0.5473 -1.4777 -1.1422
18686TIP3    H277550   0.830   5.794   2.814 -1.1344 -0.7995 -0.2812
18687TIP3   OH277551   4.186   5.069   0.035  0.3220 -0.2022 -0.5588
18687TIP3    H177552   4.092   5.065   0.020  0.4218  0.7888 -1.5190
18687TIP3    H277553   4.211   4.979   0.058 -0.5724 -0.8464 -1.9947
18688TIP3   OH277554   1.787   6.776   4.096 -0.3708 -0.1112  0.1640
18688TIP3    H177555   1.828   6.861   4.110  1.5745 -0.5335 -2.3276
18688TIP3    H277556   1.821   6.721   4.166  1.2455  0.2638 -0.2887
18689TIP3   OH277557   1.303   3.005   0.168 -0.9278 -0.4734  0.0183
18689TIP3    H177558   1.261   2.988   0.253  0.6561 -1.4823  0.6388
18689TIP3    H277559   1.395   3.016   0.189 -0.8120  1.5213 -1.3389
18690TIP3   OH277560   3.040   3.769  12.451  0.4192  0.5431  0.0821
18690TIP3    H177561   3.065   3.715  12.376 -0.2759 -0.0689  0.2762
18690TIP3    H277562   2.952   3.800  12.430  0.3780  0.6898  0.4700
18691TIP3   OH277563   4.835   3.019  12.493 -0.5346 -0.0169  0.1409
18691TIP3    H177564   4.864   2.937  12.533 -1.3735 -1.5185 -2.1072
18691TIP3    H277565   4.772   2.992  12.426 -0.6158  2.4656 -0.9008
18692TIP3   OH277566   5.986   3.093  12.010  0.5742 -0.3087 -0.1951
18692TIP3    H177567   6.054   3.025  11.999 -0.1821 -1.2134  0.5581
18692TIP3    H277568   5.925   3.078  11.938  0.2645 -0.6143  0.1254
18693TIP3   OH277569   1.382   6.590  16.974  0.1338 -0.2200 -0.1053
18693TIP3    H177570   1.353   6.655  16.910  0.4909 -0.2285 -0.2812
18693TIP3    H277571   1.355   6.624  17.059 -0.4262 -0.2522 -0.2695
18694TIP3   OH277572   4.825   0.715   5.901  0.0106 -0.0054 -0.7243
18694TIP3    H177573   4.753   0.655   5.919 -0.4803  0.8082  0.1011
18694TIP3    H277574   4.887   0.701   5.972 -0.2670  0.6921 -0.3304
18695TIP3   OH277575   4.165   0.250  11.428  0.0037  0.1780 -0.3618
18695TIP3    H177576   4.231   0.198  11.474  1.7554  1.1159 -1.6963
18695TIP3    H277577   4.163   0.333  11.475  1.1754  0.8214 -1.3670
18696TIP3   OH277578   0.842   0.776  15.981 -0.2934  0.6432  0.2164
18696TIP3    H177579   0.759   0.802  15.942  0.3616 -1.0122 -2.5551
18696TIP3    H277580   0.823   0.695  16.028  0.0251 -0.8503 -2.0965
18697TIP3   OH277581   2.347   2.698   4.585 -0.1800  0.1490 -0.0178
18697TIP3    H177582   2.355   2.788   4.554  0.7204 -0.3803 -1.4225
18697TIP3    H277583   2.421   2.652   4.546 -1.3818 -1.5133 -0.4805
18698TIP3   OH277584   6.255   1.789  12.613  0.4229 -0.1017  0.1111
18698TIP3    H177585   6.160   1.796  12.601  0.5608  0.8849 -0.5311
18698TIP3    H277586   6.269   1.800  12.707 -0.1657 -1.2284  0.3470
18699TIP3   OH277587   1.815   5.501   3.893  0.6371 -0.6054 -0.2714
18699TIP3    H177588   1.903   5.532   3.870  0.4621  0.3204  0.2580
18699TIP3    H277589   1.818   5.407   3.876  1.9915 -0.7304  0.4996
18700TIP3   OH277590   5.576   0.142   4.990 -0.3588 -0.3319  0.2324
18700TIP3    H177591   5.654   0.139   4.934  0.4617 -1.6268  1.3816
18700TIP3    H277592   5.506   0.110   4.934  0.1892 -0.4188 -0.4242
18701TIP3   OH277593   6.466   1.418   4.994 -0.8496  0.4087 -0.2253
18701TIP3    H177594   6.551   1.378   5.011 -0.9221  0.2169 -0.3069
18701TIP3    H277595   6.405   1.344   4.987 -1.0866  0.5582  0.1773
18702TIP3   OH277596   5.584   6.098   0.831 -0.8638  0.0481  0.4265
18702TIP3    H177597   5.630   6.171   0.791 -1.5420  0.6037  0.6452
18702TIP3    H277598   5.539   6.054   0.759 -0.4887 -0.1375  0.3022
18703TIP3   OH277599   2.359   0.821   2.116  0.2263 -0.3322 -0.3227
18703TIP3    H177600   2.272   0.834   2.077  0.4970  0.4094 -0.6980
18703TIP3    H277601   2.364   0.727   2.131 -1.8901 -0.1110  2.6408
18704TIP3   OH277602   3.313   6.373  11.346 -0.1031 -0.2637 -0.2838
18704TIP3    H177603   3.255   6.411  11.280 -1.1025 -0.0466  0.6812
18704TIP3    H277604   3.401   6.399  11.319 -0.5617  0.5278 -1.0724
18705TIP3   OH277605   4.761   2.396   4.512 -0.2408  0.5734  0.3133
18705TIP3    H177606   4.756   2.481   4.470 -0.6910 -0.4006 -1.7562
18705TIP3    H277607   4.674   2.381   4.548 -0.1345  1.0150  0.7607
18706TIP3   OH277608   3.559   3.880  11.679 -0.1135 -0.1047  0.1536
18706TIP3    H177609   3.561   3.870  11.775 -1.7878  0.2217  0.2433
18706TIP3    H277610   3.622   3.950  11.662  1.2634 -1.1081  0.8500
18707TIP3   OH277611   1.448   6.333   3.473 -0.2457 -0.4283 -0.1297
18707TIP3    H177612   1.453   6.319   3.567 -1.2420 -2.6139 -0.3381
18707TIP3    H277613   1.369   6.386   3.460  1.0877  1.7843  0.3685
18708TIP3   OH277614   5.222   3.354   1.662  0.5922 -0.1701 -0.4183
18708TIP3    H177615   5.134   3.328   1.635 -0.0263  1.5026 -0.1178
18708TIP3    H277616   5.267   3.374   1.580  0.2199  0.3670 -0.4964
18709TIP3   OH277617   0.094   4.669   4.457  0.4933  0.1593 -0.3101
18709TIP3    H177618   0.170   4.613   4.438 -0.7542 -2.1894  1.1736
18709TIP3    H277619   0.131   4.742   4.507  2.6145  2.4524 -4.6180
18710TIP3   OH277620   2.388   3.318   6.707 -0.1843 -0.0969 -0.2048
18710TIP3    H177621   2.329   3.386   6.741  0.4074  0.5541 -0.4469
18710TIP3    H277622   2.466   3.366   6.680 -0.8839 -0.4509 -3.1891
18711TIP3   OH277623   4.523   2.871  10.957 -0.0750 -0.1827 -0.1781
18711TIP3    H177624   4.504   2.961  10.930 -0.4549 -0.2414 -0.1072
18711TIP3    H277625   4.599   2.846  10.905 -0.0377  0.1398 -0.2822
18712TIP3   OH277626   3.904   0.884   4.147 -0.5069  0.3449  0.1602
18712TIP3    H177627   3.961   0.838   4.210  0.5354 -2.1883 -2.4058
18712TIP3    H277628   3.964   0.915   4.079 -1.7480  1.7616 -0.3354
18713TIP3   OH277629   5.938   0.237  12.718 -0.3243 -0.0928 -0.1186
18713TIP3    H177630   5.887   0.156  12.720 -2.2024  0.9693 -1.8541
18713TIP3    H277631   5.969   0.243  12.627 -0.8701  1.4828 -0.2259
18714TIP3   OH277632   2.812   3.636   2.918  0.1730 -0.2433 -0.4786
18714TIP3    H177633   2.781   3.617   2.830  0.8358  0.0772 -0.7847
18714TIP3    H277634   2.733   3.646   2.970 -0.2211 -1.2785 -0.8530
18715TIP3   OH277635   4.229   5.885  12.407 -0.0983  0.7294 -0.3799
18715TIP3    H177636   4.156   5.944  12.387  0.7261  2.5533  1.5980
18715TIP3    H277637   4.273   5.873  12.323 -0.5328  2.6691 -0.9518
18716TIP3   OH277638   2.361   1.464  14.201 -0.4437 -0.5111  0.3354
18716TIP3    H177639   2.414   1.460  14.281 -0.0098  0.0007  0.0781
18716TIP3    H277640   2.330   1.554  14.197  1.5429  0.1616 -1.3400
18717TIP3   OH277641   3.274   2.764  12.558 -0.1217  0.4677  0.1608
18717TIP3    H177642   3.192   2.807  12.536 -0.7805 -0.7217  0.2166
18717TIP3    H277643   3.249   2.685  12.606  0.9138 -0.9602 -1.5012
18718TIP3   OH277644   3.182   0.889   0.222 -0.1234  0.1048  0.2082
18718TIP3    H177645   3.234   0.970   0.227 -0.0834  0.0927  0.0043
18718TIP3    H277646   3.107   0.913   0.168  0.3028 -0.2128 -0.5426
18719TIP3   OH277647   2.740   5.396  12.806  0.2731  0.0036  0.2279
18719TIP3    H177648   2.720   5.332  12.874 -1.1778 -0.9427 -0.9968
18719TIP3    H277649   2.778   5.344  12.735 -0.3918  0.5695 -0.5604
18720TIP3   OH277650   0.299   6.487  16.166  0.1647 -0.8737  0.0462
18720TIP3    H177651   0.266   6.495  16.256 -0.6642 -2.0609 -0.1304
18720TIP3    H277652   0.294   6.576  16.130  0.9397 -0.2892  1.3039
18721TIP3   OH277653   0.715   1.018   0.597  0.0393 -0.0224 -0.1602
18721TIP3    H177654   0.656   1.021   0.672 -1.0329 -0.1555 -0.9762
18721TIP3    H277655   0.679   0.949   0.541  1.6015 -0.8812 -0.1702
18722TIP3   OH277656   2.430   0.384   4.794 -0.7043  0.2155 -0.4679
18722TIP3    H177657   2.429   0.304   4.847  1.4654 -0.7683 -1.8114
18722TIP3    H277658   2.350   0.378   4.741 -1.2837 -0.3208  0.4258
18723TIP3   OH277659   1.407   4.750  12.956  0.2131 -0.6605 -0.2878
18723TIP3    H177660   1.458   4.698  13.018 -0.1525  0.2597  0.8311
18723TIP3    H277661   1.316   4.734  12.981  0.0821  0.1114 -0.2368
18724TIP3   OH277662   1.158   6.183   0.485 -0.3719  0.2870  0.5611
18724TIP3    H177663   1.091   6.121   0.457  0.9995 -1.1145  0.1837
18724TIP3    H277664   1.153   6.183   0.580 -0.1577 -0.7333  0.5895
18725TIP3   OH277665   6.615   5.702   1.855 -0.5754  0.4114 -0.0578
18725TIP3    H177666   6.563   5.630   1.818 -1.5750 -0.0656  2.0726
18725TIP3    H277667   6.553   5.775   1.861 -0.4853  0.4317  0.7502
18726TIP3   OH277668   4.387   3.264   0.531 -0.0906 -0.4916  0.3532
18726TIP3    H177669   4.367   3.285   0.622  1.2883 -2.9751  1.3342
18726TIP3    H277670   4.391   3.168   0.529 -0.5701 -0.5220 -2.4550
18727TIP3   OH277671   3.083   2.762  11.747 -0.4699 -0.0618  0.2243
18727TIP3    H177672   3.144   2.751  11.675  0.7911  3.4534  0.5706
18727TIP3    H277673   3.138   2.778  11.823 -1.7272  2.3432  0.7138
18728TIP3   OH277674   2.126   5.540   2.541  0.3635 -0.6166 -0.7787
18728TIP3    H177675   2.212   5.515   2.576  0.4845  0.9655  0.1318
18728TIP3    H277676   2.065   5.519   2.611  0.4130  1.1306 -0.1773
18729TIP3   OH277677   4.218   4.809  15.661  0.4429  0.0727  0.0397
18729TIP3    H177678   4.214   4.714  15.654 -1.8344  0.1237 -0.0720
18729TIP3    H277679   4.180   4.828  15.747  1.3178  0.8580  0.2606
18730TIP3   OH277680   4.478   5.507  13.199  0.1027 -0.3574 -0.0534
18730TIP3    H177681   4.487   5.537  13.109  1.0745 -1.3458 -0.3105
18730TIP3    H277682   4.560   5.532  13.241  0.7264 -2.1317 -0.1453
18731TIP3   OH277683   5.992   0.650   4.589 -0.5867  0.4680 -0.0155
18731TIP3    H177684   6.030   0.562   4.593  0.6704  1.0017  0.5776
18731TIP3    H277685   5.928   0.652   4.660  0.4406  0.4781  0.9415
18732TIP3   OH277686   6.209   4.786   3.657  0.5235  0.4937 -0.2369
18732TIP3    H177687   6.124   4.809   3.695  1.9532  0.1977  3.6798
18732TIP3    H277688   6.199   4.802   3.564 -3.3557  1.8384  0.2149
18733TIP3   OH277689   6.190   5.513   6.764  0.4176 -0.4270  0.3207
18733TIP3    H177690   6.178   5.438   6.823 -0.1880 -0.7126 -0.1529
18733TIP3    H277691   6.281   5.538   6.776 -0.2147  0.9328  3.0412
18734TIP3   OH277692   5.773   4.348  15.636  0.0259 -0.3219 -0.2411
18734TIP3    H177693   5.761   4.441  15.657 -1.0705 -0.5347  0.1568
18734TIP3    H277694   5.834   4.316  15.702 -1.3068 -0.3686  1.0122
18735TIP3   OH277695   2.728   6.361   5.357  0.6010 -0.1352 -0.2720
18735TIP3    H177696   2.742   6.380   5.450 -0.6067  0.0839 -0.1120
18735TIP3    H277697   2.635   6.377   5.344  1.1841  2.4088 -2.1215
18736TIP3   OH277698   5.771   2.026   3.881 -0.2280 -0.1393 -0.0203
18736TIP3    H177699   5.678   2.049   3.884 -1.0991 -2.5716 -2.8109
18736TIP3    H277700   5.774   1.939   3.922  0.4509 -0.8061 -1.4230
18737TIP3   OH277701   4.208   5.596   0.036 -0.6767 -0.1575  0.0586
18737TIP3    H177702   4.256   5.625   0.114  0.4588  0.6393 -0.9068
18737TIP3    H277703   4.234   5.504   0.025 -0.4200 -0.1165  0.3060
18738TIP3   OH277704   1.149   1.646   5.697  0.7431 -0.3225  0.3725
18738TIP3    H177705   1.152   1.685   5.784 -0.6681 -0.9871  0.7422
18738TIP3    H277706   1.090   1.571   5.706 -0.2557  0.1856 -1.3863
18739TIP3   OH277707   5.510   3.775  16.238 -0.5792 -0.5067  0.6526
18739TIP3    H177708   5.441   3.721  16.276 -0.2794 -0.7135  0.9088
18739TIP3    H277709   5.528   3.735  16.153 -1.7176  0.3476 -0.0257
18740TIP3   OH277710   4.125   6.206   3.590 -0.7003 -0.2551 -0.0969
18740TIP3    H177711   4.155   6.119   3.563 -2.0374  0.0225 -2.7623
18740TIP3    H277712   4.189   6.234   3.655  0.2065 -2.8965  0.2777
18741TIP3   OH277713   6.755   1.184  14.013  1.0075  0.1278 -0.5091
18741TIP3    H177714   6.814   1.219  13.946  1.0079  0.7233 -0.2043
18741TIP3    H277715   6.771   1.238  14.090 -0.9263  1.2584 -0.8163
18742TIP3   OH277716   1.172   1.699   2.617  0.3523  0.0724  0.0114
18742TIP3    H177717   1.249   1.753   2.600 -1.2234  1.7841 -2.5190
18742TIP3    H277718   1.187   1.619   2.566  0.0674  0.8231 -1.2801
18743TIP3   OH277719   0.522   1.544   2.295  0.2011 -0.6998  0.0913
18743TIP3    H177720   0.594   1.480   2.289 -0.5482 -1.6113  0.5869
18743TIP3    H277721   0.507   1.570   2.204  0.5664 -1.1832 -0.1164
18744TIP3   OH277722   2.381   0.882  13.001  0.2096  0.0752 -0.3852
18744TIP3    H177723   2.366   0.789  13.018 -0.0842 -0.2972 -2.4393
18744TIP3    H277724   2.364   0.925  13.085  0.4268 -1.7135  0.6289
18745TIP3   OH277725   2.966   4.798   2.589 -0.2467 -0.2595  0.6748
18745TIP3    H177726   2.990   4.763   2.675 -0.4502  0.8333  1.1898
18745TIP3    H277727   3.045   4.842   2.559  0.2032 -1.6375 -0.2440
18746TIP3   OH277728   2.515   4.953  14.537  0.3307  0.0240  0.2455
18746TIP3    H177729   2.476   5.020  14.480  1.4978 -0.0565 -0.6866
18746TIP3    H277730   2.608   4.974  14.539  0.5272 -0.8669  0.9234
18747TIP3   OH277731   4.125   0.526  11.536 -0.6485 -0.5384 -0.3372
18747TIP3    H177732   4.071   0.489  11.606  0.7418 -1.0994  0.4864
18747TIP3    H277733   4.114   0.621  11.545 -2.1052 -0.6415 -0.7164
18748TIP3   OH277734   4.389   5.491   1.048  0.3229 -0.2022  0.1439
18748TIP3    H177735   4.328   5.549   1.093 -0.1604  0.5841 -1.4622
18748TIP3    H277736   4.335   5.419   1.017  0.2035  0.3947 -1.1070
18749TIP3   OH277737   3.943   3.922  14.813  0.3050 -0.0128 -0.0266
18749TIP3    H177738   3.884   3.851  14.839 -0.5557  0.2209 -1.2740
18749TIP3    H277739   4.027   3.878  14.799  0.1210 -0.5611  0.5277
18750TIP3   OH277740   5.821   3.006   2.397  0.3653 -0.1482  0.3127
18750TIP3    H177741   5.866   2.953   2.463  2.0276 -1.6122 -1.8538
18750TIP3    H277742   5.750   2.950   2.365 -0.8400  0.7971  1.2192
18751TIP3   OH277743   6.067   6.318   2.295 -0.9530 -0.0907 -0.0639
18751TIP3    H177744   6.123   6.240   2.298 -0.4399  0.2876  0.2838
18751TIP3    H277745   6.019   6.309   2.213 -1.0940 -0.9111  0.1007
18752TIP3   OH277746   4.441   6.179   5.642  0.3152 -0.1641  0.3194
18752TIP3    H177747   4.496   6.250   5.610 -1.7550  0.9804 -0.9269
18752TIP3    H277748   4.472   6.164   5.732  1.2118  1.9301  0.4293
18753TIP3   OH277749   3.832   4.646   2.422 -0.1063  0.0067 -0.1147
18753TIP3    H177750   3.925   4.668   2.427  0.2349 -1.2084 -0.6979
18753TIP3    H277751   3.807   4.631   2.513 -0.1238  1.7593  0.2015
18754TIP3   OH277752   6.631   1.619   0.391 -0.6739  0.0387 -0.1910
18754TIP3    H177753   6.673   1.533   0.395  0.6872  0.6750 -0.3629
18754TIP3    H277754   6.670   1.668   0.463 -1.4309  0.5182 -0.1015
18755TIP3   OH277755   0.623   4.930   0.560  0.0025 -0.0955  0.0794
18755TIP3    H177756   0.548   4.884   0.523 -0.7026  1.3627 -0.3868
18755TIP3    H277757   0.616   5.019   0.524  0.9989  0.5243  1.3559
18756TIP3   OH277758   5.639   2.585   3.032  0.0067 -0.0674 -0.5222
18756TIP3    H177759   5.666   2.635   2.956 -1.4570  1.3972 -0.1564
18756TIP3    H277760   5.658   2.643   3.107 -0.2719 -0.7016  0.0520
18757TIP3   OH277761   4.484   2.059  11.870 -0.8059  0.7653 -0.7837
18757TIP3    H177762   4.554   1.999  11.847 -0.2365  1.9389 -2.2687
18757TIP3    H277763   4.406   2.022  11.828 -0.4253  1.1299 -1.8350
18758TIP3   OH277764   0.598   4.398  17.006 -0.1440  0.7742 -0.4438
18758TIP3    H177765   0.513   4.413  16.966 -1.3014  1.2065  1.9700
18758TIP3    H277766   0.633   4.320  16.963 -0.8025  1.7486 -2.8888
18759TIP3   OH277767   3.976   2.338   3.781  0.2431 -0.2490  0.1627
18759TIP3    H177768   3.984   2.425   3.819 -0.0547  0.2357 -0.8637
18759TIP3    H277769   4.032   2.283   3.836  1.3987  0.8203  0.1146
18760TIP3   OH277770   5.473   4.004   4.711 -0.3829 -0.3617 -0.5689
18760TIP3    H177771   5.424   4.064   4.656  0.9876  1.8830  0.4909
18760TIP3    H277772   5.565   4.029   4.698  0.0298 -0.0390  2.2712
18761TIP3   OH277773   4.591   2.886  16.988  0.6244  0.1222  0.1511
18761TIP3    H177774   4.552   2.820  16.931 -1.6356  0.1370  1.5287
18761TIP3    H277775   4.682   2.860  16.997  0.5299 -1.0709 -1.7165
18762TIP3   OH277776   5.841   6.698   0.594 -0.0958 -0.0935 -0.0095
18762TIP3    H177777   5.764   6.665   0.640 -0.9273  1.1132 -0.4707
18762TIP3    H277778   5.916   6.661   0.641 -0.9044  0.8839  2.1896
18763TIP3   OH277779   2.224   4.195   4.344 -0.0732 -0.6490  0.1609
18763TIP3    H177780   2.289   4.264   4.328  0.4740 -0.8323  1.5025
18763TIP3    H277781   2.155   4.213   4.279  0.3445  0.7830  0.0610
18764TIP3   OH277782   0.977   1.842  12.833 -0.0685  0.0506 -0.7187
18764TIP3    H177783   0.986   1.805  12.746  1.1575 -0.5109 -0.3726
18764TIP3    H277784   1.064   1.833  12.872 -0.9202 -0.9884  1.0622
18765TIP3   OH277785   6.459   4.454   1.507 -0.1995  0.4718 -0.0310
18765TIP3    H177786   6.496   4.510   1.439  0.4199  0.3806  0.2248
18765TIP3    H277787   6.385   4.505   1.541 -1.4321 -0.1036 -1.7424
18766TIP3   OH277788   1.820   0.838   2.654  0.1952 -0.2737  0.2395
18766TIP3    H177789   1.797   0.748   2.675 -2.0508  0.5711  1.7741
18766TIP3    H277790   1.894   0.859   2.711  1.0521 -1.2581 -0.4835
18767TIP3   OH277791   1.146   4.618   5.797  0.0478 -0.1177 -0.2329
18767TIP3    H177792   1.093   4.546   5.832 -0.1816  0.3107  0.3119
18767TIP3    H277793   1.188   4.656   5.874 -0.1967  0.6263 -0.4644
18768TIP3   OH277794   3.947   1.554   3.452 -0.5973 -0.0318 -0.0784
18768TIP3    H177795   3.881   1.492   3.483  1.2858 -2.1458 -0.0376
18768TIP3    H277796   3.976   1.600   3.532  1.1456 -2.3746  0.7456
18769TIP3   OH277797   2.993   4.699   2.850 -0.0658  0.2231 -0.1165
18769TIP3    H177798   3.022   4.788   2.871  0.8066  0.0669 -0.5751
18769TIP3    H277799   2.898   4.701   2.860 -0.1079  1.3337 -0.5484
18770TIP3   OH277800   1.629   6.002  11.642  0.3527 -0.6065  0.0072
18770TIP3    H177801   1.587   6.076  11.597  1.1884 -0.5866 -0.7578
18770TIP3    H277802   1.588   6.001  11.728 -2.6967 -1.8054 -1.3122
18771TIP3   OH277803   6.528   3.370   3.302  0.1620  0.5512 -0.1154
18771TIP3    H177804   6.466   3.436   3.332 -1.0922 -0.4662 -0.3727
18771TIP3    H277805   6.593   3.419   3.251 -0.2526  1.6759  0.4150
18772TIP3   OH277806   1.508   6.405   6.445  0.1868 -0.6524 -0.1215
18772TIP3    H177807   1.487   6.466   6.375 -0.1667 -0.2241  0.3486
18772TIP3    H277808   1.433   6.410   6.505  0.7190 -0.6126  0.5596
18773TIP3   OH277809   4.765   1.976   1.087 -0.3270 -0.5256 -0.2725
18773TIP3    H177810   4.674   1.995   1.066 -0.0830  0.3059 -0.6079
18773TIP3    H277811   4.803   1.945   1.005 -0.0951 -0.0351 -0.3559
18774TIP3   OH277812   0.762   4.172  15.926 -0.2751 -0.1873 -0.4837
18774TIP3    H177813   0.739   4.090  15.881 -1.1039  0.5508 -1.4365
18774TIP3    H277814   0.736   4.157  16.017  0.0588 -1.1633 -0.5366
18775TIP3   OH277815   0.199   4.661   4.874 -0.0119  0.2734 -0.5666
18775TIP3    H177816   0.240   4.659   4.788  0.5463 -0.4921 -0.2882
18775TIP3    H277817   0.219   4.749   4.908 -0.2679  0.5941 -1.2202
18776TIP3   OH277818   4.996   0.148  16.256  0.0605  0.5396  0.6448
18776TIP3    H177819   5.057   0.217  16.229  0.1343 -0.6834 -2.8803
18776TIP3    H277820   4.909   0.186  16.242  0.0339  0.8885  1.6687
18777TIP3   OH277821   5.052   6.797  11.278  0.2058 -0.3550  0.1289
18777TIP3    H177822   5.014   6.710  11.264 -0.0018 -0.1801 -0.4018
18777TIP3    H277823   5.064   6.833  11.190  2.2742 -0.6965  0.2145
18778TIP3   OH277824   1.022   0.113   0.959 -0.3810  0.4509  0.4006
18778TIP3    H177825   1.106   0.100   1.004 -0.4840  0.7211  0.6764
18778TIP3    H277826   1.014   0.208   0.950 -0.7986  0.4411  0.6473
18779TIP3   OH277827   5.886   0.369   2.301 -0.2203  0.1035 -0.3345
18779TIP3    H177828   5.895   0.281   2.339 -2.8820 -0.1083  0.0157
18779TIP3    H277829   5.894   0.428   2.376  0.1269  0.0793 -0.3490
18780TIP3   OH277830   6.802   1.846  15.377  0.0929 -0.0078  0.3526
18780TIP3    H177831   6.887   1.872  15.413 -0.4137 -0.8575  2.2699
18780TIP3    H277832   6.744   1.919  15.394 -0.0758 -0.2922  1.0061
18781TIP3   OH277833   6.425   4.347   5.166  0.1297  0.8691 -0.0824
18781TIP3    H177834   6.447   4.254   5.173  0.5827  1.0206  0.6311
18781TIP3    H277835   6.335   4.352   5.196  0.7652  0.9333  1.9384
18782TIP3   OH277836   5.500   4.665  12.360  0.0101  0.0858 -0.2802
18782TIP3    H177837   5.472   4.642  12.272  0.7105 -0.0345 -0.4767
18782TIP3    H277838   5.453   4.746  12.380 -1.4087 -0.7293 -0.1213
18783TIP3   OH277839   3.568   2.756   2.693 -0.5987  0.0004  0.0630
18783TIP3    H177840   3.560   2.789   2.604 -0.9774  0.0115  0.0996
18783TIP3    H277841   3.516   2.817   2.746  0.3206  0.5089  0.4240
18784TIP3   OH277842   6.485   4.011   4.098  0.7041  0.2750  0.4016
18784TIP3    H177843   6.512   3.924   4.126  0.6951  0.4627  0.9952
18784TIP3    H277844   6.563   4.048   4.057  0.1722 -0.7556 -1.7014
18785TIP3   OH277845   4.592   0.594   6.032  0.2011  0.0559  0.8945
18785TIP3    H177846   4.627   0.589   6.121 -0.9142  1.2143  1.4257
18785TIP3    H277847   4.497   0.598   6.043  0.1058  2.3796 -0.1944
18786TIP3   OH277848   3.240   2.368   5.916 -0.1885 -0.3603 -0.0881
18786TIP3    H177849   3.334   2.389   5.917 -0.5459  1.4128 -0.0855
18786TIP3    H277850   3.222   2.344   5.825  0.1641 -0.1281 -0.2211
18787TIP3   OH277851   0.629   0.688   5.602 -0.4483 -0.5950 -0.6403
18787TIP3    H177852   0.535   0.687   5.620 -0.4996 -0.8781 -0.9178
18787TIP3    H277853   0.667   0.637   5.674 -0.3698  0.6255  0.2081
18788TIP3   OH277854   6.698   2.140  14.540  0.1374  0.5830  0.2645
18788TIP3    H177855   6.779   2.091  14.536  0.7291  1.5938 -1.3442
18788TIP3    H277856   6.629   2.074  14.547  0.9911 -0.3808 -0.2731
18789TIP3   OH277857   1.276   5.539   1.371 -0.3046  0.0154 -0.1861
18789TIP3    H177858   1.192   5.505   1.341 -0.4843 -2.0964  2.3539
18789TIP3    H277859   1.338   5.467   1.356  0.4044  0.4118  0.7105
18790TIP3   OH277860   2.503   0.265  14.468  0.2418 -0.0333  0.2707
18790TIP3    H177861   2.435   0.206  14.436  1.5524 -0.8109 -1.1946
18790TIP3    H277862   2.496   0.259  14.564 -0.8108 -1.1886  0.1524
18791TIP3   OH277863   3.306   1.415  16.676  0.0254  0.1326  0.8159
18791TIP3    H177864   3.288   1.422  16.582  1.1234  2.3764  0.7301
18791TIP3    H277865   3.276   1.498  16.713  2.0632  0.3950  2.0150
18792TIP3   OH277866   6.162   5.516  13.560  0.1129  0.6392  0.7718
18792TIP3    H177867   6.122   5.496  13.644 -1.1914  0.2773  0.0948
18792TIP3    H277868   6.153   5.611  13.551 -0.4836  0.5811  0.6979
18793TIP3   OH277869   2.205   0.115  13.698 -0.5546  0.2424  0.2717
18793TIP3    H177870   2.291   0.096  13.735 -0.7127 -0.6668  0.1740
18793TIP3    H277871   2.222   0.188  13.637  0.4189 -0.8418 -0.8167
18794TIP3   OH277872   6.778   0.977  12.927 -0.0959 -0.2734  0.5553
18794TIP3    H177873   6.767   1.059  12.880  1.5267 -0.2496  0.1449
18794TIP3    H277874   6.727   0.913  12.876 -0.5096  0.2765  0.2749
18795TIP3   OH277875   6.651   0.971  15.646  0.5277 -0.0745  0.3127
18795TIP3    H177876   6.660   0.926  15.562 -0.6197  0.2108  0.0229
18795TIP3    H277877   6.610   1.055  15.624 -3.0016 -1.3257  1.4520
18796TIP3   OH277878   1.923   2.892  11.624  0.5006  0.3964  0.5446
18796TIP3    H177879   1.829   2.873  11.612  0.4927  1.5258 -1.5654
18796TIP3    H277880   1.964   2.865  11.542  1.8399  1.1159  0.9487
18797TIP3   OH277881   0.822   3.132   6.050 -0.3856  0.1492  0.4613
18797TIP3    H177882   0.803   3.210   5.998 -1.2962 -1.0280 -1.0728
18797TIP3    H277883   0.807   3.059   5.990  0.8671 -1.2136  1.7033
18798TIP3   OH277884   0.061   3.935  11.001  0.2054  0.4606  0.2280
18798TIP3    H177885   0.130   3.872  11.020  1.3620  0.7643 -2.5589
18798TIP3    H277886  -0.005   3.919  11.068  1.8977 -1.4720  1.5420
18799TIP3   OH277887   6.482   5.589  11.693 -0.0442 -0.5765 -0.2252
18799TIP3    H177888   6.444   5.658  11.639 -0.1777  0.9697  1.7236
18799TIP3    H277889   6.412   5.523  11.699 -1.5487  1.0286  1.1625
18800TIP3   OH277890   4.299   2.799   5.192 -0.1012 -0.2410  0.1799
18800TIP3    H177891   4.249   2.718   5.202 -1.9133  0.2762 -3.1498
18800TIP3    H277892   4.348   2.787   5.110  0.6971  1.4829  0.3652
18801TIP3   OH277893   0.968   5.965  11.431  0.2136 -0.2359  0.3030
18801TIP3    H177894   1.006   6.049  11.406 -1.2818  0.1514 -0.8086
18801TIP3    H277895   1.017   5.901  11.379  0.2622  0.1162 -0.0964
18802TIP3   OH277896   5.856   3.683  11.225 -0.8694 -0.7111  0.2642
18802TIP3    H177897   5.908   3.635  11.161 -2.1093 -1.3159 -0.3016
18802TIP3    H277898   5.783   3.625  11.246 -2.1496  0.7049 -0.0820
18803TIP3   OH277899   5.228   0.072   3.696 -0.6697 -0.0272  0.0327
18803TIP3    H177900   5.198   0.158   3.667 -3.1385 -0.7916  0.1496
18803TIP3    H277901   5.214   0.072   3.791 -0.3845 -0.4491  0.0772
18804TIP3   OH277902   3.691   5.525   0.452  0.4952  0.6206  0.0911
18804TIP3    H177903   3.690   5.520   0.548 -1.2131 -0.5446  0.0438
18804TIP3    H277904   3.778   5.493   0.428  1.0256  1.1212  1.2359
18805TIP3   OH277905   5.946   1.058  11.141  0.1726 -0.4021  0.6805
18805TIP3    H177906   5.876   1.087  11.200  0.2560  1.3152  0.0156
18805TIP3    H277907   5.901   1.037  11.059  0.2773 -0.7801  0.7202
18806TIP3   OH277908   3.001   0.751  14.272 -0.1479  0.2488 -0.2096
18806TIP3    H177909   2.953   0.669  14.258  0.0572 -0.4546  2.6595
18806TIP3    H277910   2.934   0.820  14.263 -0.7804 -0.3946 -0.5137
18807TIP3   OH277911   6.520   2.000  11.815 -0.4379  0.7189 -0.1733
18807TIP3    H177912   6.561   2.003  11.729  0.5438  2.8878  0.3033
18807TIP3    H277913   6.587   1.961  11.872 -0.1851  1.4024  0.0131
18808TIP3   OH277914   6.202   1.224   2.393  0.1984 -0.3591 -0.1029
18808TIP3    H177915   6.259   1.269   2.331 -0.5920 -2.4080 -2.4686
18808TIP3    H277916   6.245   1.140   2.408 -0.8004 -0.8052  0.3366
18809TIP3   OH277917   4.261   3.927  12.242  0.2443  0.3660  0.2442
18809TIP3    H177918   4.318   3.851  12.233 -0.6917 -0.3197 -0.0540
18809TIP3    H277919   4.311   3.999  12.205  0.4302 -0.4629 -1.1825
18810TIP3   OH277920   3.355   3.864   3.423  0.2857 -0.0746 -0.2161
18810TIP3    H177921   3.280   3.852   3.481  1.0205 -1.0029  0.5697
18810TIP3    H277922   3.331   3.939   3.368 -2.1989 -1.8081 -1.6302
18811TIP3   OH277923   3.669   1.720   0.086  0.1440 -0.0433  0.7152
18811TIP3    H177924   3.611   1.709   0.162  0.4835 -1.0395  0.8448
18811TIP3    H277925   3.661   1.813   0.063 -1.6956 -0.2042  0.5691
18812TIP3   OH277926   2.564   1.564   4.899 -0.1256  0.6174  0.0563
18812TIP3    H177927   2.544   1.477   4.933  1.2143 -0.5888 -2.0053
18812TIP3    H277928   2.546   1.623   4.972  0.4007 -1.5370  2.0577
18813TIP3   OH277929   0.253   4.007   6.353 -0.4817 -0.2582 -0.0519
18813TIP3    H177930   0.318   3.980   6.418 -1.3947 -0.5789  0.7349
18813TIP3    H277931   0.214   3.926   6.322 -0.6482 -0.0560 -0.3788
18814TIP3   OH277932   5.779   3.566   1.688  0.6332 -0.1121 -0.0773
18814TIP3    H177933   5.699   3.613   1.711 -0.2442 -1.8191  0.5170
18814TIP3    H277934   5.845   3.598   1.750 -0.3267 -0.7326  1.3005
18815TIP3   OH277935   4.084   4.270  14.100  0.0508 -0.3347 -0.4562
18815TIP3    H177936   4.057   4.230  14.183 -0.0337 -0.6465 -0.6315
18815TIP3    H277937   4.167   4.313  14.120 -0.1103 -0.1722 -0.1425
18816TIP3   OH277938   0.780   3.536   6.532  0.1962  0.0513 -0.0176
18816TIP3    H177939   0.755   3.550   6.441  1.1830 -0.6212 -0.3983
18816TIP3    H277940   0.703   3.494   6.571 -0.5084  0.9903 -0.3354
18817TIP3   OH277941   5.401   6.799   4.199  0.1689 -0.4877 -0.1206
18817TIP3    H177942   5.434   6.874   4.249  0.8000  0.4524 -1.8733
18817TIP3    H277943   5.392   6.730   4.264 -0.9776  1.2320  1.6829
18818TIP3   OH277944   3.359   5.278  14.216  0.4320  0.2449 -0.1017
18818TIP3    H177945   3.269   5.312  14.216 -0.6209 -2.0678  2.9418
18818TIP3    H277946   3.367   5.231  14.133 -2.2623 -1.7325  0.5924
18819TIP3   OH277947   6.612   1.981  15.021  0.2356  0.2398  0.5236
18819TIP3    H177948   6.576   2.009  14.937 -0.9105 -1.9726  0.1972
18819TIP3    H277949   6.707   1.981  15.008  0.0880  0.3064 -0.6261
18820TIP3   OH277950   4.108   0.907   1.272  0.1124 -0.0574  0.5099
18820TIP3    H177951   4.079   0.995   1.248  2.0414  0.7985  1.1370
18820TIP3    H277952   4.099   0.904   1.367 -2.5624 -1.5803  0.2974
18821TIP3   OH277953   2.097   0.320  10.426 -0.2274  0.4934  0.4106
18821TIP3    H177954   2.094   0.225  10.436  1.5197  0.3238 -0.2701
18821TIP3    H277955   2.187   0.339  10.400 -1.0499  2.1213 -1.6482
18822TIP3   OH277956   5.031   0.421   6.497  0.3553 -0.4080 -0.3704
18822TIP3    H177957   5.078   0.411   6.414 -0.6532  1.4095 -1.2043
18822TIP3    H277958   5.055   0.508   6.528 -0.5395 -0.4383  0.4391
18823TIP3   OH277959   0.542   2.435  13.756 -0.3141 -0.0398 -0.0170
18823TIP3    H177960   0.455   2.451  13.792 -0.2971  0.4418 -0.1772
18823TIP3    H277961   0.592   2.399  13.829 -0.8447 -1.0143 -0.1118
18824TIP3   OH277962   2.885   5.651   1.169 -0.1509  0.2911 -0.0055
18824TIP3    H177963   2.866   5.683   1.257  0.0386  3.2716 -0.9405
18824TIP3    H277964   2.980   5.641   1.168 -0.3900 -3.4879  1.1795
18825TIP3   OH277965   2.854   1.830  13.471 -0.7622  0.1670  0.3601
18825TIP3    H177966   2.775   1.812  13.420 -0.3453  0.7975 -0.5269
18825TIP3    H277967   2.849   1.768  13.544 -1.8114 -0.1546  0.0406
18826TIP3   OH277968   1.039   4.888  16.491 -0.5251 -0.6172 -0.3535
18826TIP3    H177969   1.108   4.902  16.556 -0.9081  0.2323 -0.1156
18826TIP3    H277970   1.064   4.946  16.418 -1.2902  0.1438 -0.0220
18827TIP3   OH277971   4.862   1.842   0.097  0.1256 -0.2612 -0.2376
18827TIP3    H177972   4.813   1.924   0.088 -0.7889 -0.6640  0.9086
18827TIP3    H277973   4.857   1.803   0.010 -1.8109 -0.3848 -0.1302
18828TIP3   OH277974   3.707   2.443   3.726  0.6443 -0.4291  0.5671
18828TIP3    H177975   3.791   2.398   3.733 -0.2174 -2.0251  1.2066
18828TIP3    H277976   3.663   2.402   3.652 -0.5514 -1.3629  1.7504
18829TIP3   OH277977   3.508   0.021   4.137 -0.0404 -0.1005 -0.1551
18829TIP3    H177978   3.460   0.055   4.213 -0.2140 -2.9760  1.1662
18829TIP3    H277979   3.444   0.019   4.067 -0.1879  1.5614 -0.1045
18830TIP3   OH277980   2.854   3.824   0.687 -0.1026 -0.3121  0.0983
18830TIP3    H177981   2.807   3.907   0.676 -0.3462 -0.4763 -0.1247
18830TIP3    H277982   2.809   3.764   0.627  0.9879 -0.2344 -0.8220
18831TIP3   OH277983   2.672   6.625   2.767 -0.0849  0.3819  0.3683
18831TIP3    H177984   2.587   6.591   2.795 -0.1461  1.1247  1.1324
18831TIP3    H277985   2.691   6.695   2.829  0.3578  1.2811 -0.7585
18832TIP3   OH277986   4.585   3.403  11.353 -0.4629 -0.4553 -0.2493
18832TIP3    H177987   4.607   3.451  11.273 -0.2887  0.3646  0.2860
18832TIP3    H277988   4.564   3.314  11.322 -2.8924  0.4538 -1.5179
18833TIP3   OH277989   2.816   6.290  15.210  0.0151 -0.4275 -0.1866
18833TIP3    H177990   2.823   6.243  15.293  0.7854  2.2513  1.3982
18833TIP3    H277991   2.728   6.270  15.178  0.1517 -2.4761  0.6125
18834TIP3   OH277992   5.908   6.665  12.960 -0.3443 -0.9188 -0.8558
18834TIP3    H177993   5.917   6.717  12.880 -1.2485 -1.7811 -1.5476
18834TIP3    H277994   5.838   6.709  13.009  0.1669 -0.4264 -0.5543
18835TIP3   OH277995   1.534   3.177   4.122  0.0599  0.6525 -0.2957
18835TIP3    H177996   1.601   3.180   4.053  0.0711  1.3682 -0.2522
18835TIP3    H277997   1.579   3.206   4.201  0.0903 -0.3300  0.0699
18836TIP3   OH277998   3.227   0.983  12.257  0.5928 -0.6451  0.3647
18836TIP3    H177999   3.209   0.956  12.166  0.5473 -3.2296  1.0442
18836TIP3    H278000   3.316   1.018  12.255  0.1165  0.5730 -0.8809
18837TIP3   OH278001   4.028   3.172   3.004  0.3018  0.1141  0.1977
18837TIP3    H178002   4.039   3.231   3.079  0.7447 -0.9380  0.9895
18837TIP3    H278003   4.104   3.114   3.008  1.0757  0.9056 -1.9111
18838TIP3   OH278004   5.400   4.495  15.723 -0.5486  0.1830 -0.1532
18838TIP3    H178005   5.395   4.406  15.690  0.4354  0.6082 -1.5511
18838TIP3    H278006   5.375   4.550  15.648  0.8563  1.1442  0.0291
18839TIP3   OH278007   5.396   5.098   4.376 -0.2213 -0.5566 -0.3811
18839TIP3    H178008   5.332   5.167   4.395 -0.4269 -0.8428 -0.0248
18839TIP3    H278009   5.375   5.069   4.287  0.0045 -0.0111 -0.6168
18840TIP3   OH278010   1.160   6.608  14.490  0.0176 -0.6755  0.1351
18840TIP3    H178011   1.068   6.611  14.519  0.2189 -0.2524  0.7452
18840TIP3    H278012   1.187   6.518  14.507 -0.1405 -0.6700  0.4266
18841TIP3   OH278013   3.273   6.459  13.207  0.6091 -0.3902 -0.0615
18841TIP3    H178014   3.285   6.543  13.250  3.1413  0.1666 -1.6259
18841TIP3    H278015   3.249   6.481  13.117  1.3604 -1.3045 -0.5128
18842TIP3   OH278016   5.043   4.514   5.726 -0.1472  0.1141 -0.5697
18842TIP3    H178017   4.982   4.498   5.798  0.2285  2.9047  0.5061
18842TIP3    H278018   5.110   4.447   5.736  0.2409  0.8002  2.1391
18843TIP3   OH278019   1.393   0.293  15.000 -0.6790 -0.6608 -0.3983
18843TIP3    H178020   1.313   0.277  15.050  0.6763 -1.1822  1.7351
18843TIP3    H278021   1.439   0.360  15.050  1.1611 -1.8636 -0.3935
18844TIP3   OH278022   0.102   3.396  10.535  0.5008 -0.4397  0.1727
18844TIP3    H178023   0.091   3.429  10.446 -0.0223  1.7450  0.9833
18844TIP3    H278024   0.022   3.347  10.554 -0.7380  1.6080  0.4296
18845TIP3   OH278025   0.596   1.243  12.433  0.1919  0.1632 -0.6238
18845TIP3    H178026   0.518   1.240  12.378  0.1533 -1.6005 -0.5461
18845TIP3    H278027   0.584   1.321  12.487 -1.8311 -0.3708 -0.1902
18846TIP3   OH278028   4.845   6.250   0.461  0.2569 -0.0383  0.2273
18846TIP3    H178029   4.792   6.196   0.404 -0.3450  0.6218  0.1596
18846TIP3    H278030   4.863   6.329   0.411  1.4297 -0.3009  0.1920
18847TIP3   OH278031   2.345   1.487   0.237  0.2133 -0.4882  0.0712
18847TIP3    H178032   2.291   1.559   0.271 -1.5407 -0.8923 -1.7043
18847TIP3    H278033   2.433   1.508   0.268 -0.5318  1.4552  1.1164
18848TIP3   OH278034   5.587   6.333  14.047 -0.0367 -0.2951 -0.1826
18848TIP3    H178035   5.539   6.412  14.021 -0.5291 -0.8873 -1.1578
18848TIP3    H278036   5.668   6.366  14.087 -0.0534  0.7027 -0.9224
18849TIP3   OH278037   6.591   0.976  13.145  0.1548  0.1898 -0.0801
18849TIP3    H178038   6.668   0.943  13.098 -0.6475  0.0409 -1.3270
18849TIP3    H278039   6.537   0.899  13.160 -0.0345  0.3887  0.2827
18850TIP3   OH278040   1.147   3.425   2.389  1.1913 -0.4079  0.4742
18850TIP3    H178041   1.190   3.415   2.474  1.2972  0.1579  0.4862
18850TIP3    H278042   1.196   3.494   2.345  0.6165 -0.1217  0.2781
18851TIP3   OH278043   6.046   6.523   6.647 -0.0498  0.0614  0.0657
18851TIP3    H178044   6.110   6.569   6.701  0.5790  0.7444 -1.2227
18851TIP3    H278045   6.097   6.458   6.598  0.0043  1.7254 -2.2193
18852TIP3   OH278046   0.960   3.426  11.313 -0.2337  0.1709  0.0204
18852TIP3    H178047   0.935   3.400  11.402  1.1055  0.3706  0.4894
18852TIP3    H278048   0.933   3.352  11.258 -0.2895 -0.3473  0.7217
18853TIP3   OH278049   3.623   2.563  10.424  0.0439  0.1101  0.7350
18853TIP3    H178050   3.679   2.540  10.499  0.3163  0.5242  0.6648
18853TIP3    H278051   3.566   2.488  10.413  1.1059 -0.6706  0.3251
18854TIP3   OH278052   6.055   5.806   5.174 -0.0217  0.3178  0.1851
18854TIP3    H178053   6.092   5.810   5.262 -0.3526  0.0195  0.3402
18854TIP3    H278054   5.960   5.806   5.188 -0.0817 -1.1172 -0.0971
18855TIP3   OH278055   3.455   4.388   2.080 -0.1431  0.0456  0.0030
18855TIP3    H178056   3.521   4.392   2.010 -0.2567  0.8955 -0.0696
18855TIP3    H278057   3.404   4.309   2.060  0.4632 -0.2754 -0.2961
18856TIP3   OH278058   5.229   1.158   0.546 -0.0446 -0.5935  0.5350
18856TIP3    H178059   5.277   1.236   0.574 -1.3568  0.7336 -0.7201
18856TIP3    H278060   5.145   1.163   0.592 -0.4250 -0.8681 -0.1150
18857TIP3   OH278061   3.093   2.539  17.180 -0.4815  0.2609  0.1941
18857TIP3    H178062   3.098   2.445  17.195 -0.3040  0.5181  1.8520
18857TIP3    H278063   3.023   2.549  17.114 -1.5276 -0.9251  1.0941
18858TIP3   OH278064   6.696   6.013   1.247  0.1239 -0.5404  0.0304
18858TIP3    H178065   6.717   6.104   1.268  0.5939 -0.9628  1.4967
18858TIP3    H278066   6.723   6.002   1.156  0.6991  0.5977  0.0497
18859TIP3   OH278067   1.108   1.662   0.754 -0.1043  0.1507  0.6651
18859TIP3    H178068   1.048   1.665   0.680  1.3840 -1.2667 -0.6886
18859TIP3    H278069   1.109   1.570   0.781  2.1656 -0.1283 -0.0690
18860TIP3   OH278070   6.463   1.606  12.084 -0.5164 -0.4020 -0.5217
18860TIP3    H178071   6.381   1.558  12.097 -1.0421  0.9541  1.7338
18860TIP3    H278072   6.439   1.680  12.029 -1.2283  0.7667  1.2379
18861TIP3   OH278073   5.073   1.271   4.444 -0.0545  0.0071 -0.6374
18861TIP3    H178074   5.157   1.309   4.470  0.5802 -1.0831 -1.0324
18861TIP3    H278075   5.043   1.326   4.372  1.4480 -0.9074 -2.0266
18862TIP3   OH278076   2.901   2.360  13.647 -0.4821 -1.0372 -0.5943
18862TIP3    H178077   2.925   2.330  13.734 -0.5594 -0.6131 -0.4250
18862TIP3    H278078   2.984   2.380  13.604 -0.4986  0.1731 -0.1014
18863TIP3   OH278079   2.767   5.658   2.344  0.0521 -0.2341  0.2221
18863TIP3    H178080   2.721   5.741   2.358 -0.4601 -0.4070 -0.3633
18863TIP3    H278081   2.699   5.592   2.356 -0.0352 -0.4656 -1.3421
18864TIP3   OH278082   5.464   0.251   2.982 -0.2407  0.6914 -0.4360
18864TIP3    H178083   5.535   0.246   3.046 -0.6589  1.2011  0.0685
18864TIP3    H278084   5.506   0.283   2.902  0.2442  0.2337 -0.3725
18865TIP3   OH278085   3.548   5.214  10.689 -0.3643  0.1464  0.2122
18865TIP3    H178086   3.600   5.215  10.769  0.7627 -0.8093 -0.4726
18865TIP3    H278087   3.459   5.198  10.718 -0.0685  0.3847  1.3086
18866TIP3   OH278088   4.873   0.019  16.940  0.0005  0.0255  0.1894
18866TIP3    H178089   4.899  -0.066  16.976 -1.7035 -0.1663  1.0343
18866TIP3    H278090   4.936   0.081  16.977 -0.7739 -0.3954  2.3025
18867TIP3   OH278091   3.380   0.831  10.630  0.1602  0.6694  0.2137
18867TIP3    H178092   3.418   0.745  10.610 -1.9347 -0.3659  0.4074
18867TIP3    H278093   3.415   0.888  10.561  0.6936 -0.6019 -0.6244
18868TIP3   OH278094   6.752   5.122   5.706 -0.3502 -0.3201  0.2896
18868TIP3    H178095   6.747   5.194   5.643 -0.6694  1.0842  1.8485
18868TIP3    H278096   6.841   5.087   5.695 -0.1115  0.4634 -0.3663
18869TIP3   OH278097   3.983   1.596  13.023  0.0882  0.1273 -0.0531
18869TIP3    H178098   3.977   1.582  12.929 -1.2791 -0.0704  0.0403
18869TIP3    H278099   4.056   1.541  13.051  0.3167 -0.0395 -0.9491
18870TIP3   OH278100   2.007   1.537   2.977  0.8550 -0.1419 -0.0523
18870TIP3    H178101   1.923   1.537   3.023  0.5547  0.3611 -0.5952
18870TIP3    H278102   1.988   1.498   2.892  0.8943  1.1358 -0.6568
18871TIP3   OH278103   2.390   6.622  14.291  0.0645 -0.1710 -0.6172
18871TIP3    H178104   2.437   6.686  14.237 -0.1717 -0.5320 -1.2668
18871TIP3    H278105   2.344   6.566  14.227  0.5336 -1.1979 -0.0898
18872TIP3   OH278106   4.532   3.933  12.444  0.4255 -1.0735 -0.5367
18872TIP3    H178107   4.561   3.843  12.426 -0.2262 -0.9974 -2.0483
18872TIP3    H278108   4.601   3.988  12.408 -0.0904 -0.9420 -1.3280
18873TIP3   OH278109   6.649   0.713  12.484 -0.3013 -0.5330 -0.4660
18873TIP3    H178110   6.561   0.686  12.458 -0.7416  1.1750 -0.8578
18873TIP3    H278111   6.700   0.632  12.485 -2.0787 -1.6981  0.6900
18874TIP3   OH278112   2.438   1.189  12.058  0.0606  0.2046 -0.0610
18874TIP3    H178113   2.461   1.278  12.029  2.2503 -1.0984 -2.7933
18874TIP3    H278114   2.355   1.171  12.015  0.5248  0.3372 -1.0632
18875TIP3   OH278115   5.252   6.560  14.340 -0.5029 -0.1962 -0.4555
18875TIP3    H178116   5.258   6.465  14.330 -0.0781 -0.2448  0.1566
18875TIP3    H278117   5.303   6.595  14.267  0.2004 -0.4687 -0.1094
18876TIP3   OH278118   0.540   0.735  16.204 -0.3410 -0.4380  0.3848
18876TIP3    H178119   0.552   0.803  16.138 -0.1378 -0.7827  0.0691
18876TIP3    H278120   0.454   0.696  16.184 -0.7873  0.1994  0.9988
18877TIP3   OH278121   6.783   5.918   4.235 -0.1676  0.3036  0.9492
18877TIP3    H178122   6.693   5.949   4.224  0.0401  0.2752 -1.5129
18877TIP3    H278123   6.785   5.880   4.323 -2.6610 -0.0387  0.9400
18878TIP3   OH278124   2.464   0.730   4.384  0.2033  0.1049 -0.3624
18878TIP3    H178125   2.518   0.658   4.351 -1.5479 -1.2480 -0.4313
18878TIP3    H278126   2.516   0.809   4.367  1.8320 -1.0606 -1.0358
18879TIP3   OH278127   0.420   3.904   0.227  0.0504 -0.2853  0.0423
18879TIP3    H178128   0.373   3.873   0.150 -0.3681  1.3921 -0.4063
18879TIP3    H278129   0.448   3.824   0.272 -2.0749 -1.3358 -0.3765
18880TIP3   OH278130   4.978   1.183  13.315  0.2180  0.0954 -0.4468
18880TIP3    H178131   4.987   1.089  13.329  1.6382 -0.0464 -2.0205
18880TIP3    H278132   4.884   1.198  13.310 -0.0984 -0.9552  1.3967
18881TIP3   OH278133   5.783   2.543  14.413 -0.3813 -0.2140  0.0939
18881TIP3    H178134   5.866   2.553  14.459 -0.4056 -0.8141  0.2672
18881TIP3    H278135   5.717   2.539  14.483 -0.3174 -2.2164  0.0704
18882TIP3   OH278136   0.955   2.805   2.630  0.3724  0.2058 -0.5709
18882TIP3    H178137   1.009   2.816   2.551  1.1106  1.5617  0.0841
18882TIP3    H278138   1.006   2.747   2.686  0.5635  0.4610 -0.4776
18883TIP3   OH278139   0.370   6.545  15.475  0.7544 -0.2776 -0.2566
18883TIP3    H178140   0.357   6.458  15.514 -0.3779  0.0027  0.0484
18883TIP3    H278141   0.369   6.528  15.380  0.0420 -0.5581 -0.2126
18884TIP3   OH278142   3.832   6.040  13.982  0.3041 -0.5561  0.9946
18884TIP3    H178143   3.848   6.023  14.074 -1.0055  1.5326  1.6894
18884TIP3    H278144   3.904   6.098  13.955  0.4091 -0.7599  0.8304
18885TIP3   OH278145   1.702   2.049   2.385 -0.2982  0.5539  0.8188
18885TIP3    H178146   1.708   1.970   2.437 -1.5052 -0.2415 -0.1876
18885TIP3    H278147   1.688   2.119   2.449 -0.1975 -0.1710  1.6524
18886TIP3   OH278148   0.929   2.885   6.421  0.1815  0.4515  0.8106
18886TIP3    H178149   0.892   2.872   6.509 -0.3718  1.3752  0.7280
18886TIP3    H278150   0.888   2.965   6.389  0.5384  0.2470 -0.2143
18887TIP3   OH278151   1.487   4.557  14.861 -0.0215 -0.7323  0.1301
18887TIP3    H178152   1.508   4.649  14.876  2.5446 -1.3574  0.8145
18887TIP3    H278153   1.516   4.541  14.771  1.1220 -1.2560  0.5792
18888TIP3   OH278154   1.755   5.176  14.231  0.0603 -0.9340 -0.0053
18888TIP3    H178155   1.788   5.087  14.244 -0.5996 -0.9146  2.3428
18888TIP3    H278156   1.823   5.232  14.270 -0.2127 -0.5176 -0.1256
18889TIP3   OH278157   2.990   5.558  13.732 -0.0307  0.9959 -0.4740
18889TIP3    H178158   2.923   5.501  13.694 -0.5594 -0.0461  1.8414
18889TIP3    H278159   3.022   5.510  13.808  1.5276  2.6095 -0.0495
18890TIP3   OH278160   5.041   1.514  16.043 -0.0222  0.0867 -0.8254
18890TIP3    H178161   4.950   1.495  16.020  0.0781 -1.1039 -0.3167
18890TIP3    H278162   5.093   1.463  15.981  0.2703 -0.3837 -0.2141
18891TIP3   OH278163   4.608   0.968  11.749 -0.0182  0.2656 -0.6118
18891TIP3    H178164   4.636   1.047  11.797  0.7185  0.7812 -1.8502
18891TIP3    H278165   4.573   1.000  11.667  0.2625 -0.7001 -1.1248
18892TIP3   OH278166   4.771   6.583  13.855 -0.2393 -0.4414 -0.5555
18892TIP3    H178167   4.805   6.515  13.913  0.2477  0.7601  0.6083
18892TIP3    H278168   4.842   6.646  13.846 -1.0374  0.4609 -0.7340
18893TIP3   OH278169   6.075   6.721  14.293 -0.1742  0.3223 -0.2397
18893TIP3    H178170   6.110   6.686  14.211  0.7183  2.4397 -0.8423
18893TIP3    H278171   6.006   6.782  14.265 -0.7505  0.0917  0.6679
18894TIP3   OH278172   4.198   5.679   4.154 -0.1296  0.0810 -0.3015
18894TIP3    H178173   4.122   5.648   4.203  0.8269 -2.1979 -0.1323
18894TIP3    H278174   4.190   5.775   4.155 -1.8627 -0.0223  1.4777
18895TIP3   OH278175   1.099   2.582   2.258 -0.1853  0.3463 -0.0970
18895TIP3    H178176   1.131   2.512   2.201 -1.0656  0.1801 -0.4074
18895TIP3    H278177   1.100   2.545   2.346 -1.0867 -0.2221 -0.3185
18896TIP3   OH278178   3.393   6.064  12.803 -0.2740  0.0146 -0.2659
18896TIP3    H178179   3.439   5.981  12.815  2.9097  1.6222 -0.0323
18896TIP3    H278180   3.303   6.046  12.829  0.7005 -2.8870  1.6521
18897TIP3   OH278181   3.711   0.996  15.165 -0.3727 -0.2947 -0.0935
18897TIP3    H178182   3.769   1.071  15.178 -1.2236  0.3292  0.2218
18897TIP3    H278183   3.623   1.034  15.163 -0.7760 -1.2125 -0.5957
18898TIP3   OH278184   1.634   2.245   2.568  0.2997  0.1839  0.2293
18898TIP3    H178185   1.594   2.328   2.542  1.3328  0.7213  0.2934
18898TIP3    H278186   1.639   2.250   2.664  0.8895  0.3120  0.1980
18899TIP3   OH278187   6.542   0.958  13.412 -0.5246 -0.3539 -0.4612
18899TIP3    H178188   6.634   0.949  13.435 -0.1430  1.4716 -1.1632
18899TIP3    H278189   6.541   0.980  13.319 -1.7522 -1.5677 -0.7801
18900TIP3   OH278190   3.576   2.686  16.115 -0.3813  0.2723  0.0949
18900TIP3    H178191   3.550   2.720  16.029  0.0503 -0.9787 -0.5572
18900TIP3    H278192   3.498   2.641  16.148 -0.3714  0.2652  0.1087
18901TIP3   OH278193   4.229   1.918  16.272  0.1055 -0.3820  0.0970
18901TIP3    H178194   4.259   1.850  16.213  2.8683  0.3318  0.5246
18901TIP3    H278195   4.239   1.880  16.360  0.4708  0.1215  0.2805
18902TIP3   OH278196   5.681   3.830   2.608  0.2426 -0.5220  0.6170
18902TIP3    H178197   5.766   3.850   2.646  0.4123 -1.8238  0.9510
18902TIP3    H278198   5.630   3.794   2.680  0.0677 -1.5916 -0.0206
18903TIP3   OH278199   3.858   4.234   2.684 -0.4596 -0.5342  0.4958
18903TIP3    H178200   3.917   4.289   2.632 -0.4514 -1.6256 -0.7205
18903TIP3    H278201   3.913   4.160   2.711 -0.7663 -0.5493  1.0899
18904TIP3   OH278202   6.365   0.438   0.436  0.2002 -0.4790  0.7707
18904TIP3    H178203   6.453   0.474   0.429  0.0570 -0.4735 -1.9791
18904TIP3    H278204   6.323   0.462   0.354 -0.8494 -4.3793 -0.0345
18905TIP3   OH278205   4.202   4.123  15.694 -0.1463  0.0763  0.2191
18905TIP3    H178206   4.274   4.128  15.757  0.3620 -0.5963 -0.2975
18905TIP3    H278207   4.177   4.031  15.694  1.0268 -0.3133 -1.8310
18906TIP3   OH278208   2.229   2.801  14.158 -0.1713  0.0321 -0.7153
18906TIP3    H178209   2.316   2.836  14.138  1.1476 -2.5300  0.0130
18906TIP3    H278210   2.192   2.777  14.073  0.8669 -1.0053 -0.8993
18907TIP3   OH278211   0.940   3.433   2.064 -0.4232 -0.1268  0.6940
18907TIP3    H178212   0.928   3.471   2.151 -0.6894 -0.5049  0.8262
18907TIP3    H278213   0.900   3.346   2.070 -0.7718 -0.0154  0.0870
18908TIP3   OH278214   5.232   2.245   0.981 -0.4374 -0.7121  0.2624
18908TIP3    H178215   5.264   2.249   0.891 -0.0687 -0.0988  0.4202
18908TIP3    H278216   5.280   2.173   1.020 -0.5310 -0.9213 -0.0017
18909TIP3   OH278217   4.578   1.051   6.185 -0.4134 -0.2370  0.0254
18909TIP3    H178218   4.571   1.008   6.271  1.7120 -0.9891 -0.1255
18909TIP3    H278219   4.549   0.984   6.123  0.4654 -0.6037 -0.0094
18910TIP3   OH278220   4.328   2.988  12.777 -0.6622 -0.1846 -0.6257
18910TIP3    H178221   4.285   2.927  12.717 -1.6342  0.3767 -0.5134
18910TIP3    H278222   4.406   3.016  12.729 -0.5883 -0.9587 -0.9734
18911TIP3   OH278223   3.538   3.439   1.223 -0.4117  0.1852 -0.3137
18911TIP3    H178224   3.592   3.470   1.296 -0.7796  1.1136 -0.4200
18911TIP3    H278225   3.449   3.467   1.245 -0.8821 -1.3845 -0.1074
18912TIP3   OH278226   5.794   4.579   0.379 -0.0632 -0.0033  0.2600
18912TIP3    H178227   5.879   4.577   0.335 -0.9766 -0.8125 -1.5956
18912TIP3    H278228   5.745   4.646   0.331 -0.2940  0.9452  1.7466
18913TIP3   OH278229   2.219   6.669   0.789  0.7445  0.4847  0.0521
18913TIP3    H178230   2.152   6.601   0.792  0.5311  0.6921  0.0207
18913TIP3    H278231   2.245   6.672   0.697 -0.1403  1.3033 -0.1864
18914TIP3   OH278232   2.038   6.475   3.311  0.1275  0.1752 -0.6596
18914TIP3    H178233   2.048   6.475   3.406  1.6122 -2.2233 -0.7477
18914TIP3    H278234   2.097   6.544   3.280  1.2163 -0.4063  0.0690
18915TIP3   OH278235   1.844   6.146   2.308  0.1202 -0.1562 -0.5533
18915TIP3    H178236   1.756   6.146   2.346 -0.0990 -1.7637 -0.9828
18915TIP3    H278237   1.903   6.155   2.383 -0.3478  3.6916 -0.4191
18916TIP3   OH278238   0.237   1.576  12.558 -0.6533 -0.4219  0.1429
18916TIP3    H178239   0.225   1.627  12.638 -2.5939  1.7831 -1.4134
18916TIP3    H278240   0.285   1.633  12.499  0.5569 -1.9251 -0.3915
18917TIP3   OH278241   6.271   0.726   5.046 -0.1573 -0.1490  0.2649
18917TIP3    H178242   6.183   0.689   5.044 -0.6439  0.9541  0.1984
18917TIP3    H278243   6.292   0.743   4.954  0.1183 -0.3727  0.2832
18918TIP3   OH278244   4.445   2.484  15.243 -0.6608  0.4191  0.5378
18918TIP3    H178245   4.357   2.509  15.271 -1.1374 -0.4015 -0.1537
18918TIP3    H278246   4.503   2.542  15.291 -1.5312  0.3580  1.7270
18919TIP3   OH278247   0.644   0.218   2.586  0.1547 -0.1098 -0.4723
18919TIP3    H178248   0.687   0.231   2.501  0.1436  0.9612 -0.3209
18919TIP3    H278249   0.652   0.302   2.630 -1.3528 -0.1506 -0.0880
18920TIP3   OH278250   5.207   0.057   3.001  0.4698 -0.0195  0.1731
18920TIP3    H178251   5.209   0.134   2.944  0.2845 -0.7094 -0.7798
18920TIP3    H278252   5.268   0.079   3.071  0.7898  0.8043 -0.3430
18921TIP3   OH278253   1.345   5.689  12.118  0.2516 -0.5666 -0.5872
18921TIP3    H178254   1.407   5.624  12.085  1.0621 -0.5442  0.8260
18921TIP3    H278255   1.310   5.650  12.198 -0.4829  0.0538 -0.5930
18922TIP3   OH278256   1.135   4.979   3.062  0.0491  0.0580  0.4378
18922TIP3    H178257   1.176   4.928   2.991 -0.3060 -0.7720  0.8172
18922TIP3    H278258   1.059   5.020   3.021  0.2267  0.1332  0.1762
18923TIP3   OH278259   5.234   5.875   0.429  0.1155 -0.0380 -0.1152
18923TIP3    H178260   5.251   5.969   0.417 -0.4057 -0.0231 -0.8059
18923TIP3    H278261   5.166   5.872   0.496  0.8364  0.0212  0.6391
18924TIP3   OH278262   0.668   3.026   4.631  0.2466 -0.2066 -0.2079
18924TIP3    H178263   0.648   3.110   4.672  1.1456 -0.6469  1.2154
18924TIP3    H278264   0.676   2.965   4.705 -1.1749 -1.7372 -1.2400
18925TIP3   OH278265   5.120   3.203  12.608 -0.4601  0.3873 -0.7905
18925TIP3    H178266   5.162   3.117  12.613  0.8471  0.9374 -1.6686
18925TIP3    H278267   5.057   3.195  12.537  0.4558  0.4538 -1.6298
18926TIP3   OH278268   0.378   4.368   5.019 -0.2352  0.5886  0.7524
18926TIP3    H178269   0.365   4.350   4.926  1.8140  0.4756  0.4456
18926TIP3    H278270   0.310   4.432   5.041 -0.7196  0.6464 -0.8256
18927TIP3   OH278271   0.633   6.438   2.318 -0.3643 -0.0775  0.7770
18927TIP3    H178272   0.609   6.352   2.284  1.0667 -0.5540  0.8953
18927TIP3    H278273   0.677   6.482   2.244 -2.6853  1.3101  0.1194
18928TIP3   OH278274   0.518   0.321   3.429  0.5776  0.1236  0.1697
18928TIP3    H178275   0.508   0.283   3.341  1.3181 -1.4129  0.7125
18928TIP3    H278276   0.613   0.336   3.437  0.6467 -0.7154  1.0695
18929TIP3   OH278277   3.589   2.593   1.318  1.0983 -0.3959  0.4169
18929TIP3    H178278   3.659   2.654   1.340  0.7254 -0.8676  3.4415
18929TIP3    H278279   3.531   2.594   1.395  0.2235 -3.3242 -0.0708
18930TIP3   OH278280   6.141   0.915   3.493  0.3483 -0.4125 -0.1932
18930TIP3    H178281   6.092   0.858   3.434  1.0793 -1.2548 -0.0032
18930TIP3    H278282   6.086   0.921   3.572 -0.1420 -0.1306 -0.5516
18931TIP3   OH278283   0.696   3.869   0.006  0.1466 -0.4157 -0.1602
18931TIP3    H178284   0.727   3.960   0.008 -0.8191 -0.0844  1.5007
18931TIP3    H278285   0.654   3.860  -0.080 -0.1695  0.8578 -0.1566
18932TIP3   OH278286   1.730   1.425  10.613  0.3475  0.0619  0.1123
18932TIP3    H178287   1.766   1.337  10.627  0.0730 -0.0745 -0.0446
18932TIP3    H278288   1.782   1.461  10.541  1.0194  0.3448  0.7332
18933TIP3   OH278289   0.905   2.743   5.363  1.0682 -0.0315 -0.1872
18933TIP3    H178290   0.988   2.697   5.357  0.9581 -0.3202  0.3670
18933TIP3    H278291   0.883   2.740   5.456  0.6072  0.3432 -0.2782
18934TIP3   OH278292   3.205   2.515  13.821  0.0361  0.0388  0.2534
18934TIP3    H178293   3.280   2.564  13.786  0.5031 -1.8373 -1.5690
18934TIP3    H278294   3.180   2.563  13.900  2.0409  1.7231 -0.0405
18935TIP3   OH278295   2.934   4.618   1.452 -0.9473 -0.3076  0.2407
18935TIP3    H178296   2.946   4.713   1.461  1.0160 -0.4465 -0.3246
18935TIP3    H278297   2.878   4.608   1.374 -0.4341  0.3852 -0.2294
18936TIP3   OH278298   3.304   5.567   2.438  0.8614 -0.3136  0.0879
18936TIP3    H178299   3.382   5.562   2.382 -0.6846 -1.2177 -2.1124
18936TIP3    H278300   3.241   5.618   2.388 -1.7343 -3.8259 -0.6628
18937TIP3   OH278301   4.918   2.046  13.532 -0.0679  0.5458 -0.1463
18937TIP3    H178302   4.954   2.090  13.609 -0.0083  0.5319 -0.1664
18937TIP3    H278303   4.995   2.023  13.480 -0.0270 -0.5098  0.3652
18938TIP3   OH278304   1.144   4.255  12.947 -0.2984 -0.5313 -0.8122
18938TIP3    H178305   1.100   4.172  12.926 -1.3882 -0.8023  2.0700
18938TIP3    H278306   1.101   4.320  12.891 -0.0795 -1.7109 -2.4405
18939TIP3   OH278307   3.086   0.780  12.374  0.4401 -0.8872 -0.1542
18939TIP3    H178308   3.023   0.831  12.427  0.2932 -0.3908 -0.7959
18939TIP3    H278309   3.128   0.845  12.318  0.9150 -1.3481 -0.3374
18940TIP3   OH278310   4.769   4.864   5.883 -0.1288 -0.0787  0.2694
18940TIP3    H178311   4.791   4.913   5.963 -1.0640  1.0589 -0.1316
18940TIP3    H278312   4.846   4.811   5.864  1.7763  2.7345 -0.3861
18941TIP3   OH278313   1.481   3.225   3.218 -0.2968 -0.3941  0.2921
18941TIP3    H178314   1.393   3.261   3.204  0.3801  1.4122  0.3605
18941TIP3    H278315   1.520   3.222   3.131  0.5147  1.5471  0.5216
18942TIP3   OH278316   4.427   4.338   3.898  0.1844 -0.5549  0.1987
18942TIP3    H178317   4.391   4.250   3.887 -0.5188 -0.3857  0.9897
18942TIP3    H278318   4.510   4.325   3.943  1.0899 -0.9410 -1.5072
18943TIP3   OH278319   2.438   4.572  15.885 -0.2616 -0.0838  0.3639
18943TIP3    H178320   2.472   4.492  15.925  0.4608  1.1781  2.4741
18943TIP3    H278321   2.348   4.550  15.859 -0.5316 -1.2299  2.0985
18944TIP3   OH278322   1.795   4.118  15.420  0.3939  0.2003 -0.2718
18944TIP3    H178323   1.708   4.077  15.419  0.1074  0.6456 -2.9545
18944TIP3    H278324   1.798   4.167  15.502 -2.2078  0.7878 -0.4364
18945TIP3   OH278325   3.158   1.993   0.335 -0.8778  0.7259  0.2705
18945TIP3    H178326   3.222   1.967   0.401 -2.3796  2.8601  2.7577
18945TIP3    H278327   3.207   1.993   0.253  1.7011  0.1352  1.6962
18946TIP3   OH278328   0.902   6.764   2.932  0.1916 -0.4922  0.4357
18946TIP3    H178329   0.953   6.734   2.857  0.1098  0.8773 -0.1890
18946TIP3    H278330   0.838   6.824   2.895 -2.0108 -2.2529  1.1714
18947TIP3   OH278331   4.360   2.260   6.127  0.2143  0.1758  0.6739
18947TIP3    H178332   4.365   2.164   6.128 -1.1188  0.0341 -1.0085
18947TIP3    H278333   4.269   2.279   6.149  0.2221  1.0066  0.0199
18948TIP3   OH278334   5.255   0.774  16.091 -0.2524  0.4638  0.0042
18948TIP3    H178335   5.290   0.858  16.061  2.0605 -1.1492 -2.2110
18948TIP3    H278336   5.216   0.735  16.013  1.1835 -1.6285  0.2403
18949TIP3   OH278337   4.675   4.073  10.914 -0.2136  0.3106  0.5852
18949TIP3    H178338   4.709   3.996  10.869  0.0899  0.4238  0.6166
18949TIP3    H278339   4.750   4.108  10.962 -0.6566 -0.1217  1.6269
18950TIP3   OH278340   5.381   2.132  12.641 -0.1858  0.1838  0.8690
18950TIP3    H178341   5.448   2.195  12.669  2.0465 -1.4837 -0.3410
18950TIP3    H278342   5.348   2.094  12.723  0.4927  0.9113  1.4950
18951TIP3   OH278343   4.433   5.035  12.643  0.3111  0.1092  0.1594
18951TIP3    H178344   4.344   5.008  12.666  0.4212 -0.6865 -0.3045
18951TIP3    H278345   4.484   4.954  12.648  1.0390  0.5840  0.5492
18952TIP3   OH278346   5.065   2.721  12.908 -0.5214  0.0372  0.1418
18952TIP3    H178347   5.151   2.738  12.946 -0.1565  0.5404 -0.8941
18952TIP3    H278348   5.066   2.628  12.886  0.2174  0.2951 -0.9764
18953TIP3   OH278349   6.414   1.806   0.747  0.1326  0.0990 -0.0774
18953TIP3    H178350   6.482   1.783   0.810  1.0407  1.1988 -0.6255
18953TIP3    H278351   6.389   1.723   0.707  1.5363 -0.2691 -0.2428
18954TIP3   OH278352   3.040   3.099  11.364  0.3752  0.5720 -0.1081
18954TIP3    H178353   3.067   3.022  11.314 -1.0671  0.5333 -0.8533
18954TIP3    H278354   2.945   3.103  11.354 -0.0087  0.5074  2.7086
18955TIP3   OH278355   0.833   4.213  11.552  0.1162 -0.6576 -0.0970
18955TIP3    H178356   0.846   4.151  11.481 -0.7610 -1.1353  0.1442
18955TIP3    H278357   0.739   4.229  11.554  0.2627  0.2754  0.1922
18956TIP3   OH278358   2.023   2.201  13.109 -0.1555  0.0657  0.2043
18956TIP3    H178359   2.048   2.193  13.201 -1.7433 -0.4481  0.6177
18956TIP3    H278360   1.990   2.290  13.101 -0.6443 -0.0983  0.3169
18957TIP3   OH278361   5.794   4.472   4.847  0.0962 -0.5590 -0.2866
18957TIP3    H178362   5.780   4.387   4.889  0.5341 -0.4140  0.1593
18957TIP3    H278363   5.831   4.451   4.761  1.4015 -0.7882  0.3157
18958TIP3   OH278364   5.805   3.738   5.385 -0.2954  0.7068 -0.1142
18958TIP3    H178365   5.894   3.712   5.412 -1.6106 -1.7169  2.5224
18958TIP3    H278366   5.799   3.711   5.294  1.2488 -0.4979  0.0806
18959TIP3   OH278367   1.640   6.001   1.645  0.4395 -0.5920 -0.1777
18959TIP3    H178368   1.685   6.069   1.695  0.8199 -0.4950 -0.6523
18959TIP3    H278369   1.707   5.964   1.589  0.3219 -1.6361  0.3546
18960TIP3   OH278370   6.757   6.160   5.854  0.6317  0.1688  0.4434
18960TIP3    H178371   6.809   6.186   5.930  0.9955 -0.2580  0.3531
18960TIP3    H278372   6.785   6.219   5.784  0.5186  0.3650  0.5651
18961TIP3   OH278373   4.666   1.055   1.390 -0.2161 -0.0928  0.3597
18961TIP3    H178374   4.702   0.995   1.324  0.7129 -0.0027  0.7737
18961TIP3    H278375   4.632   1.128   1.338  2.6768  1.1463  0.0223
18962TIP3   OH278376   2.744   3.805   6.060  0.0429 -0.1590 -0.0383
18962TIP3    H178377   2.811   3.747   6.025 -1.7241 -1.0516 -2.1500
18962TIP3    H278378   2.724   3.769   6.147  0.4844 -1.4128 -0.4332
18963TIP3   OH278379   0.857   5.492   2.362 -0.2662 -0.2116 -1.0949
18963TIP3    H178380   0.926   5.515   2.424  0.1649  0.0596 -1.6624
18963TIP3    H278381   0.778   5.487   2.415 -0.2227  1.7354 -0.7949
18964TIP3   OH278382   1.305   6.685   2.219  0.1268 -0.5940  0.4378
18964TIP3    H178383   1.386   6.653   2.259 -0.1510 -0.1270  1.4150
18964TIP3    H278384   1.271   6.611   2.169  2.1046 -0.2644 -1.5605
18965TIP3   OH278385   1.066   4.881   4.205  0.4781 -0.1313 -0.0499
18965TIP3    H178386   1.071   4.857   4.297 -0.4738 -0.1990 -0.0142
18965TIP3    H278387   1.116   4.963   4.199  0.4922 -0.0939  0.5307
18966TIP3   OH278388   0.713   3.363   4.535 -0.8728  0.1983  0.0154
18966TIP3    H178389   0.618   3.353   4.528 -1.6000  4.0626  1.8207
18966TIP3    H278390   0.728   3.390   4.626  1.9112  0.2161 -0.3520
18967TIP3   OH278391   2.828   5.198  11.372 -0.4027 -0.4891  0.4486
18967TIP3    H178392   2.892   5.127  11.364 -0.1901 -0.3294  0.7569
18967TIP3    H278393   2.863   5.269  11.319 -2.1243 -1.6701 -2.5470
18968TIP3   OH278394   6.389   1.066  14.875 -0.3078  0.3271 -0.5510
18968TIP3    H178395   6.456   1.119  14.918 -1.3805 -0.9557  3.0112
18968TIP3    H278396   6.306   1.106  14.902 -1.0894 -0.0882 -2.1670
18969TIP3   OH278397   0.027   0.198   4.087 -0.1266  0.4457 -0.2533
18969TIP3    H178398   0.019   0.173   3.995 -0.4830  1.4022 -0.4891
18969TIP3    H278399  -0.043   0.149   4.131 -1.1564  1.3972 -0.7918
18970TIP3   OH278400   0.009   6.748   2.793 -0.0717 -0.1377  0.3001
18970TIP3    H178401   0.070   6.677   2.815  0.5459  0.6530  1.2161
18970TIP3    H278402  -0.058   6.705   2.740 -0.6982 -1.8188  2.3016
18971TIP3   OH278403   2.988   1.529  16.930 -0.9881 -0.3797 -0.0461
18971TIP3    H178404   2.942   1.513  16.848 -1.9928 -1.5426  0.7191
18971TIP3    H278405   2.951   1.466  16.992 -3.3294  3.0425  2.4759
18972TIP3   OH278406   6.571   0.759   4.104  0.1646  0.7388  0.1660
18972TIP3    H178407   6.550   0.729   4.015  0.6931  0.2036  0.2144
18972TIP3    H278408   6.622   0.839   4.091  0.6326  0.4140 -0.0321
18973TIP3   OH278409   0.093   3.996   3.260 -0.0081  0.1052 -0.1906
18973TIP3    H178410   0.165   4.054   3.285  0.2888  0.5606 -1.9255
18973TIP3    H278411   0.121   3.959   3.176 -1.5910 -0.0600 -0.6803
18974TIP3   OH278412   3.618   3.682   0.589 -0.2092 -0.3719  0.3729
18974TIP3    H178413   3.691   3.626   0.566 -0.0057 -0.6374  1.5646
18974TIP3    H278414   3.540   3.634   0.561 -0.1688 -2.2367  3.0794
18975TIP3   OH278415   6.573   1.395   5.735 -0.6085  0.4616  0.4166
18975TIP3    H178416   6.533   1.352   5.659  0.3450  0.0987  0.1002
18975TIP3    H278417   6.665   1.370   5.730 -0.4879  0.6318  1.5631
18976TIP3   OH278418   2.073   1.833   2.066  0.6789 -0.2127 -0.2632
18976TIP3    H178419   1.988   1.836   2.022  0.2247  2.5197  0.6536
18976TIP3    H278420   2.136   1.852   1.997  0.4402 -0.8183 -0.6593
18977TIP3   OH278421   3.918   2.347  12.819  0.7771 -0.5109  0.0804
18977TIP3    H178422   3.826   2.366  12.838  0.2229 -2.9298  0.1543
18977TIP3    H278423   3.924   2.349  12.724  0.5934 -0.5945  0.0678
18978TIP3   OH278424   2.213   3.377  11.930 -0.5029  0.7319 -0.0915
18978TIP3    H178425   2.139   3.338  11.976  0.1768  0.2078  0.5766
18978TIP3    H278426   2.193   3.363  11.837 -0.5779 -0.6794  0.1066
18979TIP3   OH278427   2.236   4.741  17.043  0.2655  0.1883 -0.2825
18979TIP3    H178428   2.296   4.772  17.111  0.1683 -0.1486 -0.0405
18979TIP3    H278429   2.187   4.819  17.016  0.9332  0.4960 -0.6070
18980TIP3   OH278430   5.700   4.518   0.900  0.6096  0.3995  0.5792
18980TIP3    H178431   5.696   4.566   0.817  1.3291 -0.5133  0.0056
18980TIP3    H278432   5.618   4.540   0.944 -0.7276 -0.6719 -1.2624
18981TIP3   OH278433   1.368   3.760   0.002 -0.2626  0.8306  0.4065
18981TIP3    H178434   1.274   3.746   0.014 -0.7176  2.6138 -0.6683
18981TIP3    H278435   1.401   3.775   0.090 -1.2553  1.5390  0.6819
18982TIP3   OH278436   1.924   0.223  16.790  0.5300 -0.5054 -0.0201
18982TIP3    H178437   1.989   0.168  16.746  1.7652  0.2358  0.8033
18982TIP3    H278438   1.855   0.161  16.817  1.6795 -1.6048  0.5154
18983TIP3   OH278439   4.481   3.057  14.299 -0.5172 -0.0428 -0.1120
18983TIP3    H178440   4.418   3.018  14.360 -0.6097 -0.6580 -0.5925
18983TIP3    H278441   4.449   3.032  14.212  1.3952 -1.9688 -0.3298
18984TIP3   OH278442   3.307   3.548  14.889  0.1477  0.3842  0.4030
18984TIP3    H178443   3.356   3.629  14.880  0.4294  0.1867  0.1440
18984TIP3    H278444   3.248   3.564  14.963  0.0928  0.8742  0.2546
18985TIP3   OH278445   0.475   2.593   2.539  0.0586 -0.4695  0.3012
18985TIP3    H178446   0.504   2.537   2.611  1.2987  0.4272  0.5313
18985TIP3    H278447   0.508   2.680   2.562  1.1208 -0.2959 -1.6701
18986TIP3   OH278448   2.598   2.812   5.810  0.0425  0.8317  0.2623
18986TIP3    H178449   2.687   2.816   5.847  0.1027 -0.1925  0.2554
18986TIP3    H278450   2.601   2.869   5.734  0.4289  1.5476  0.8054
18987TIP3   OH278451   4.284   6.779   2.110  0.1452  0.3307 -0.3163
18987TIP3    H178452   4.234   6.860   2.107 -1.1927 -0.4699 -0.9748
18987TIP3    H278453   4.265   6.743   2.197 -0.5301  0.0024 -0.5832
18988TIP3   OH278454   2.748   2.172   2.403  0.4587  0.7416 -0.2587
18988TIP3    H178455   2.705   2.218   2.476 -1.3582  0.9557 -1.3962
18988TIP3    H278456   2.712   2.083   2.407  1.2244  0.4325 -0.2115
18989TIP3   OH278457   2.234   2.501  11.486  0.2274 -0.2436 -0.6339
18989TIP3    H178458   2.284   2.464  11.559  0.2622  0.7939 -0.1158
18989TIP3    H278459   2.299   2.515  11.417  0.2968 -0.7047 -0.6625
18990TIP3   OH278460   0.481   2.291   4.472 -0.0393  0.1284  0.2651
18990TIP3    H178461   0.500   2.205   4.511 -0.2395 -0.0726 -0.0780
18990TIP3    H278462   0.522   2.354   4.532  3.5989 -0.3351 -1.4406
18991TIP3   OH278463   6.751   6.509   0.090 -0.6160 -0.3918  0.2025
18991TIP3    H178464   6.663   6.499   0.055  0.5303 -0.5737 -2.9862
18991TIP3    H278465   6.779   6.420   0.112 -1.3100 -0.2858  1.6566
18992TIP3   OH278466   5.580   6.101  12.175 -0.0358  0.4453  0.5389
18992TIP3    H178467   5.532   6.081  12.255  0.0869  2.3294  1.1413
18992TIP3    H278468   5.634   6.024  12.160 -2.7273 -1.5146  0.1569
18993TIP3   OH278469   5.169   2.927  12.593 -0.3012 -0.0232  0.6409
18993TIP3    H178470   5.173   2.922  12.497 -1.8379 -0.7821  0.5787
18993TIP3    H278471   5.230   2.859  12.623 -0.4459 -0.3670  0.1728
18994TIP3   OH278472   4.611   4.896  13.413  0.7869  0.0243  0.0211
18994TIP3    H178473   4.524   4.924  13.441  0.2742 -0.9703 -0.5151
18994TIP3    H278474   4.671   4.959  13.454 -0.2149  1.1243 -0.1271
18995TIP3   OH278475   2.691   2.311   6.013  0.3513 -0.2607  0.2124
18995TIP3    H178476   2.777   2.345   5.989  0.4319  1.2216  2.2798
18995TIP3    H278477   2.639   2.390   6.031 -0.7098 -1.1710  1.2476
18996TIP3   OH278478   4.439   2.527  15.542 -0.0310 -0.5193 -0.2315
18996TIP3    H178479   4.367   2.580  15.509  0.7763  1.3717  0.9221
18996TIP3    H278480   4.396   2.456  15.591 -1.1110  0.3155  0.0614
18997TIP3   OH278481   6.268   0.190   5.519 -0.0327  0.2736 -0.0332
18997TIP3    H178482   6.362   0.207   5.514 -0.1313  0.5881 -0.9431
18997TIP3    H278483   6.228   0.276   5.530 -0.2133  0.1184  0.6202
18998TIP3   OH278484   3.351   4.338   0.494  0.4509 -0.0885 -0.2202
18998TIP3    H178485   3.330   4.256   0.448  0.0670 -1.4282  2.1984
18998TIP3    H278486   3.446   4.340   0.498  0.4831 -0.0277 -0.9352
18999TIP3   OH278487   6.013   4.996  14.767  0.0379 -0.2232  0.3388
18999TIP3    H178488   6.004   4.924  14.830 -2.4021 -0.7010 -0.4601
18999TIP3    H278489   6.082   4.966  14.707  0.5573 -0.9143  1.2394
19000TIP3   OH278490   0.272   3.662   2.872 -0.4360  0.3029  0.1286
19000TIP3    H178491   0.362   3.630   2.873 -0.4890  0.0277  3.0857
19000TIP3    H278492   0.220   3.589   2.907 -1.4447  1.3607  0.9097
19001TIP3   OH278493   5.458   1.234   6.442 -0.1854 -0.2603 -0.3150
19001TIP3    H178494   5.523   1.173   6.406  0.2078  0.9107 -1.7024
19001TIP3    H278495   5.508   1.291   6.500 -0.0488  0.2810 -0.9442
19002TIP3   OH278496   3.696   1.508   2.358  0.1172  0.1440  0.4498
19002TIP3    H178497   3.687   1.455   2.438 -0.4889  0.3089  0.4997
19002TIP3    H278498   3.656   1.454   2.290 -0.0904  0.3417  0.4147
19003TIP3   OH278499   4.845   5.730   4.862  0.3537 -0.0537 -0.0785
19003TIP3    H178500   4.893   5.796   4.913  2.4524 -1.2460 -0.4004
19003TIP3    H278501   4.839   5.768   4.775 -0.6873  0.7522  0.3230
19004TIP3   OH278502   0.706   4.933   4.685 -0.1736 -0.1866  0.3808
19004TIP3    H178503   0.730   5.008   4.630  0.2622 -0.8968 -0.4319
19004TIP3    H278504   0.757   4.944   4.765  0.3591  0.0695  0.0131
19005TIP3   OH278505   0.159   4.977   1.964  0.1822 -0.1237  0.2381
19005TIP3    H178506   0.085   4.995   2.022  0.5011  0.2078  0.5494
19005TIP3    H278507   0.148   4.886   1.938 -1.3439  0.4208 -1.1924
19006TIP3   OH278508   0.817   2.695   4.446  0.4613 -0.2342 -0.2914
19006TIP3    H178509   0.838   2.787   4.434  1.7868 -0.6031 -0.9609
19006TIP3    H278510   0.829   2.655   4.360 -0.3070 -1.0070 -0.0656
19007TIP3   OH278511   5.955   4.697   4.896  0.6695 -0.4194 -0.0912
19007TIP3    H178512   5.891   4.735   4.955  1.3690  0.4934  0.1048
19007TIP3    H278513   5.945   4.602   4.908  0.0226 -0.2703  0.6380
19008TIP3   OH278514   2.874   0.276   5.594 -0.3221 -0.1867  0.7844
19008TIP3    H178515   2.787   0.280   5.634 -0.5111  2.1552  0.2531
19008TIP3    H278516   2.901   0.367   5.586  1.0441 -0.7222 -1.5603
19009TIP3   OH278517   2.299   6.809  13.052 -0.9203  0.2270  0.3906
19009TIP3    H178518   2.270   6.727  13.011 -0.7832  0.5739 -0.4207
19009TIP3    H278519   2.311   6.870  12.979  1.4848  0.2311  0.7056
19010TIP3   OH278520   1.300   0.551   5.047 -0.6001  0.4558 -0.2549
19010TIP3    H178521   1.253   0.468   5.046 -2.1020  1.2834 -0.6052
19010TIP3    H278522   1.385   0.529   5.086 -1.0645 -1.1741 -0.0655
19011TIP3   OH278523   5.234   5.712  13.072 -0.3593  0.5833  0.0067
19011TIP3    H178524   5.247   5.794  13.120 -1.0120  0.5052  0.3291
19011TIP3    H278525   5.322   5.678  13.058 -0.1294  0.8895  0.6635
19012TIP3   OH278526   3.615   4.310  14.826 -0.0829  0.1019 -0.0406
19012TIP3    H178527   3.635   4.389  14.775  0.5317  0.6052  0.9542
19012TIP3    H278528   3.700   4.265  14.835 -0.3014 -0.3075  0.0012
19013TIP3   OH278529   0.970   4.306  15.173  0.6583 -0.7690 -0.4577
19013TIP3    H178530   0.987   4.239  15.239 -1.0006 -0.8962 -0.1189
19013TIP3    H278531   1.041   4.369  15.184  1.2490 -1.5529  0.4166
19014TIP3   OH278532   0.898   0.092   5.862 -0.8877  0.3862 -0.4297
19014TIP3    H178533   0.892   0.071   5.956 -1.1385 -0.2808 -0.5938
19014TIP3    H278534   0.807   0.109   5.836 -0.7877  0.8360 -0.4973
19015TIP3   OH278535   0.856   0.112   2.723 -0.0343  0.1241 -0.2543
19015TIP3    H178536   0.935   0.150   2.684 -1.1219  1.1846 -1.5293
19015TIP3    H278537   0.784   0.166   2.689 -1.3314 -0.9119  0.7303
19016TIP3   OH278538   2.584   0.997   0.862 -0.3152 -0.2466  0.6771
19016TIP3    H178539   2.621   0.945   0.791  2.5395 -0.9853  2.5467
19016TIP3    H278540   2.537   1.068   0.818 -0.6756 -1.9816 -1.9004
19017TIP3   OH278541   3.199   2.372   4.460 -0.5057  0.8693 -0.4792
19017TIP3    H178542   3.167   2.281   4.458 -0.1540  0.7259  0.0918
19017TIP3    H278543   3.249   2.381   4.378  2.0126 -0.4336  0.7864
19018TIP3   OH278544   1.232   3.663   4.382  0.3007 -0.2669 -0.3627
19018TIP3    H178545   1.259   3.573   4.368 -0.2307 -1.2959  3.7598
19018TIP3    H278546   1.136   3.660   4.378  0.3075  0.4085 -1.3641
19019TIP3   OH278547   5.793   1.633  14.091  0.1819  0.1054 -0.2915
19019TIP3    H178548   5.797   1.538  14.106  0.0640  0.2639  0.8161
19019TIP3    H278549   5.841   1.646  14.009  0.0315 -0.9325 -0.5625
19020TIP3   OH278550   4.600   4.500   5.853 -0.7622 -0.1002 -0.4264
19020TIP3    H178551   4.563   4.522   5.938 -0.1692  1.2400 -0.4930
19020TIP3    H278552   4.588   4.579   5.800  1.9259  0.3299 -0.5387
19021TIP3   OH278553   5.705   6.808  10.334 -0.0180  0.0398 -0.4446
19021TIP3    H178554   5.700   6.901  10.311  0.0659  0.4711  1.1417
19021TIP3    H278555   5.742   6.807  10.423 -2.9720 -1.3011  0.9121
19022TIP3   OH278556   2.917   0.228   2.121  0.0445  0.0643  0.3655
19022TIP3    H178557   2.906   0.320   2.098 -0.3533 -0.2010 -0.5072
19022TIP3    H278558   2.857   0.214   2.194 -1.8729 -0.1539 -1.1985
19023TIP3   OH278559   5.011   1.769   3.435  0.2003  0.3976 -0.0604
19023TIP3    H178560   5.077   1.781   3.366  0.8378 -0.0015  0.4646
19023TIP3    H278561   5.056   1.718   3.502 -0.7329 -0.1069  0.1983
19024TIP3   OH278562   1.181   2.944   0.401 -0.7113 -0.3942 -0.2324
19024TIP3    H178563   1.086   2.944   0.410 -0.6048  2.0354  2.1101
19024TIP3    H278564   1.206   2.852   0.408 -2.8597 -1.1402 -1.4172
19025TIP3   OH278565   5.106   5.499  11.992 -0.0915  0.0268  0.6956
19025TIP3    H178566   5.046   5.426  12.009 -0.8277  0.7638  1.3647
19025TIP3    H278567   5.069   5.572  12.043  0.2671  1.0381 -0.4597
19026TIP3   OH278568   4.999   5.518   3.275 -0.9682  0.0292  0.3254
19026TIP3    H178569   4.944   5.566   3.213 -1.7438  0.4365  1.2999
19026TIP3    H278570   5.000   5.573   3.354  0.0864 -0.4221  0.6420
19027TIP3   OH278571   3.936   0.570   2.886  0.0088 -0.5123  0.0374
19027TIP3    H178572   3.953   0.660   2.914 -0.7553 -0.4804  0.4217
19027TIP3    H278573   3.850   0.550   2.923  1.1619 -2.2320  2.0108
19028TIP3   OH278574   1.333   3.970   1.164 -0.1156 -0.1216 -0.1660
19028TIP3    H178575   1.278   4.027   1.217 -0.7489 -0.1145 -0.8152
19028TIP3    H278576   1.321   4.001   1.074  0.1036 -0.8053 -0.4400
19029TIP3   OH278577   6.057   6.307  15.544  0.1374 -0.3710  0.2837
19029TIP3    H178578   6.148   6.313  15.517  0.0737 -1.0407 -0.1312
19029TIP3    H278579   6.024   6.397  15.541  0.8547 -0.0900  0.7226
19030TIP3   OH278580   5.057   0.668  12.513  0.2458 -0.5530  0.4897
19030TIP3    H178581   5.025   0.579  12.531 -0.9491 -0.0420  0.9963
19030TIP3    H278582   4.985   0.725  12.538  0.9843  0.5734  0.1343
19031TIP3   OH278583   4.290   3.427  12.013 -0.4236 -0.1682  0.2506
19031TIP3    H178584   4.196   3.435  12.003 -0.2276  1.3038 -0.7692
19031TIP3    H278585   4.325   3.512  11.985  1.3690 -1.4585 -1.7899
19032TIP3   OH278586   1.356   1.087   5.767  0.5453  0.4021 -0.1811
19032TIP3    H178587   1.290   1.075   5.699 -4.1690  0.1846  3.8404
19032TIP3    H278588   1.364   1.182   5.776 -1.3861  0.5413  0.8462
19033TIP3   OH278589   0.774   0.217   1.853 -0.2464  0.1395  0.7276
19033TIP3    H178590   0.852   0.246   1.900 -0.7481  0.8074  1.1699
19033TIP3    H278591   0.793   0.238   1.761  0.3942 -0.4030  0.7294
19034TIP3   OH278592   0.191   3.995  17.151 -0.2072 -0.2445 -0.0234
19034TIP3    H178593   0.137   3.920  17.124  0.6847 -0.2234 -2.1034
19034TIP3    H278594   0.214   4.038  17.068 -0.2770  2.0608  1.0932
19035TIP3   OH278595   4.441   5.236  10.843 -0.7514 -0.4124  0.1359
19035TIP3    H178596   4.373   5.231  10.777 -0.6464 -0.6436  0.0444
19035TIP3    H278597   4.400   5.282  10.917 -0.6567  0.4597 -0.3454
19036TIP3   OH278598   2.266   1.988   6.296 -0.3426 -0.0303 -0.3308
19036TIP3    H178599   2.298   1.905   6.332 -2.2067 -0.2510  0.9733
19036TIP3    H278600   2.186   1.964   6.249 -0.1470  0.8470 -1.1397
19037TIP3   OH278601   1.693   0.558  11.548  0.5914 -0.0648 -0.7629
19037TIP3    H178602   1.658   0.585  11.633 -1.0182 -1.2574 -0.9879
19037TIP3    H278603   1.786   0.546  11.563  0.2130 -1.0803  1.0864
19038TIP3   OH278604   0.955   6.316  12.623 -0.1052 -0.0477 -0.2865
19038TIP3    H178605   0.928   6.372  12.551  0.1370 -0.1672 -0.4731
19038TIP3    H278606   1.012   6.372  12.677 -0.9287  0.2879  0.2577
19039TIP3   OH278607   4.343   5.895  12.133  0.2850 -0.1897  0.6883
19039TIP3    H178608   4.384   5.903  12.047  1.9969 -0.4818  1.4303
19039TIP3    H278609   4.348   5.983  12.171  0.2712 -0.2357  0.7979
19040TIP3   OH278610   2.326   5.003  16.600 -0.0328  0.0502  0.5162
19040TIP3    H178611   2.327   4.927  16.542  1.0643  1.6010 -1.6156
19040TIP3    H278612   2.250   4.989  16.657 -1.3451 -1.4041 -1.4795
19041TIP3   OH278613   1.081   0.678  14.579  0.0041  0.7173 -0.2223
19041TIP3    H178614   1.060   0.651  14.490  0.5660  2.6126 -0.9605
19041TIP3    H278615   1.009   0.643  14.632  0.5244 -1.9067 -1.1039
19042TIP3   OH278616   5.778   4.734  15.150 -0.1373 -0.1274 -0.7730
19042TIP3    H178617   5.794   4.743  15.055 -0.6043  2.4016 -0.6789
19042TIP3    H278618   5.714   4.802  15.170 -2.0174 -2.2770  0.9687
19043TIP3   OH278619   2.798   3.893  13.681 -0.1227 -0.3549 -0.2613
19043TIP3    H178620   2.824   3.865  13.768 -0.7809  0.3899  0.1817
19043TIP3    H278621   2.706   3.865  13.673  0.0905 -0.9084 -0.9292
19044TIP3   OH278622   2.342   0.766  14.432  0.1790 -0.2852  0.3927
19044TIP3    H178623   2.322   0.689  14.379  2.6793 -0.5638 -0.2907
19044TIP3    H278624   2.412   0.737  14.491  0.0369  1.0377  1.2560
19045TIP3   OH278625   2.068   4.678  15.851  0.0102  0.5081 -0.6339
19045TIP3    H178626   1.987   4.637  15.823 -0.7514  0.7096  1.1347
19045TIP3    H278627   2.136   4.615  15.827 -0.7287  0.0113 -1.4951
19046TIP3   OH278628   5.216   4.411   3.203 -0.0594 -0.1115  0.0229
19046TIP3    H178629   5.248   4.487   3.155 -0.0547  0.9998  1.7086
19046TIP3    H278630   5.284   4.393   3.267 -0.1082 -1.5055 -0.2776
19047TIP3   OH278631   3.629   3.106  12.577 -0.1954  0.4586 -1.1692
19047TIP3    H178632   3.557   3.152  12.619 -2.0385 -0.2055 -3.3731
19047TIP3    H278633   3.662   3.168  12.512  1.3402  0.7824 -0.1365
19048TIP3   OH278634   1.175   6.417   6.300  0.1728 -0.7619  0.2578
19048TIP3    H178635   1.256   6.466   6.285  1.2023 -1.9400  1.7283
19048TIP3    H278636   1.106   6.474   6.263  1.5110  0.8314  0.0778
19049TIP3   OH278637   4.174   1.687   1.146 -0.0165 -0.0561 -0.3766
19049TIP3    H178638   4.259   1.668   1.108  0.1989  2.1140 -1.1270
19049TIP3    H278639   4.111   1.646   1.086  0.4584 -0.5629 -0.5308
19050TIP3   OH278640   2.644   5.747  11.530  0.4778  0.5637 -0.1094
19050TIP3    H178641   2.627   5.783  11.443  1.1597  2.0855  0.3495
19050TIP3    H278642   2.740   5.739  11.535  0.4546  0.6100  0.5435
19051TIP3   OH278643   4.394   1.564   1.005  0.5749  0.0025 -0.2632
19051TIP3    H178644   4.377   1.484   1.055  1.5791 -0.6061 -0.8493
19051TIP3    H278645   4.345   1.553   0.924 -1.1544  1.0448  0.5901
19052TIP3   OH278646   4.985   5.876  16.968 -0.2111  0.3068  0.3614
19052TIP3    H178647   4.981   5.783  16.943 -0.0964  0.2979  0.3712
19052TIP3    H278648   4.895   5.900  16.988 -0.2419  0.1966  0.3557
19053TIP3   OH278649   2.410   3.939  12.679 -0.2910 -0.3570 -0.1383
19053TIP3    H178650   2.415   4.035  12.684 -0.8685 -0.3836  1.8341
19053TIP3    H278651   2.362   3.922  12.598  0.4251  0.9809 -0.8894
19054TIP3   OH278652   0.184   5.102  13.680  0.0502 -0.5566  0.2801
19054TIP3    H178653   0.193   5.141  13.594 -1.8013  1.9090  1.0891
19054TIP3    H278654   0.202   5.173  13.742  1.2588 -2.2300  1.9604
19055TIP3   OH278655   5.962   2.833   3.083 -0.0064 -0.2298  0.3624
19055TIP3    H178656   6.054   2.830   3.057 -0.7469 -0.1901 -2.6985
19055TIP3    H278657   5.944   2.925   3.099  0.2928 -0.1178  0.0712
19056TIP3   OH278658   3.051   0.484   3.365 -0.3459  0.0445 -0.4437
19056TIP3    H178659   2.973   0.449   3.323 -0.0725 -1.0096 -0.0924
19056TIP3    H278660   3.117   0.416   3.355  0.2214  0.4814  0.2115
19057TIP3   OH278661   0.386   5.307  17.200 -0.2707 -0.0591  0.0447
19057TIP3    H178662   0.451   5.273  17.261 -0.6805 -1.0686 -0.0726
19057TIP3    H278663   0.436   5.332  17.123  0.7686  4.2379  1.8242
19058TIP3   OH278664   5.660   6.235  15.955  0.4115  0.8026 -0.0423
19058TIP3    H178665   5.751   6.265  15.963  0.2115  1.6321 -0.7096
19058TIP3    H278666   5.667   6.146  15.920  1.0180  0.0223  1.9201
19059TIP3   OH278667   0.711   3.246   2.337  0.1363 -0.0341  0.0822
19059TIP3    H178668   0.680   3.250   2.427  0.8825 -0.3561  0.3634
19059TIP3    H278669   0.766   3.325   2.327 -0.1872  0.1598 -0.1847
19060TIP3   OH278670   0.848   5.546   0.081 -0.5035  0.3694  0.1367
19060TIP3    H178671   0.911   5.483   0.114 -0.7318 -0.4720 -0.9957
19060TIP3    H278672   0.865   5.551  -0.013 -1.4231  0.9283 -0.0143
19061TIP3   OH278673   1.199   1.906   0.850  0.1553 -0.7385 -0.8961
19061TIP3    H178674   1.170   1.816   0.840 -0.8013 -0.2956 -2.4467
19061TIP3    H278675   1.232   1.911   0.940  1.6852 -3.0179 -1.2516
19062TIP3   OH278676   1.594   3.935  14.671  0.3828 -0.4298  0.0958
19062TIP3    H178677   1.683   3.932  14.635 -0.2978  1.3688 -1.9830
19062TIP3    H278678   1.591   4.018  14.718 -0.8851  0.9193 -2.1600
19063TIP3   OH278679   2.262   6.247  15.990  0.1163 -0.2313 -0.3906
19063TIP3    H178680   2.261   6.337  15.958 -0.1495 -1.0674 -2.9705
19063TIP3    H278681   2.170   6.221  15.993  0.2671 -0.9923 -1.5961
19064TIP3   OH278682   3.191   6.414   4.160 -0.6363 -0.6557  0.2663
19064TIP3    H178683   3.178   6.464   4.079  2.5178  1.2301  0.7423
19064TIP3    H278684   3.224   6.478   4.223 -0.3085 -2.6004  2.2074
19065TIP3   OH278685   0.482   4.013  11.618  0.2995 -0.2752  0.0873
19065TIP3    H178686   0.514   4.077  11.554 -1.7433  1.6203  0.8397
19065TIP3    H278687   0.409   3.970  11.573  0.1936 -0.4287  0.4096
19066TIP3   OH278688   2.901   0.566   5.027  0.1119  0.5428  0.5048
19066TIP3    H178689   2.823   0.512   5.012  1.3117 -0.9383 -0.7410
19066TIP3    H278690   2.928   0.593   4.940  1.3491  0.5206  0.8674
19067TIP3   OH278691   5.696   2.392   0.386  0.3754  0.7325  0.1167
19067TIP3    H178692   5.664   2.354   0.304 -1.4709  1.5434  0.4177
19067TIP3    H278693   5.769   2.336   0.411  1.4792  0.8725 -2.4438
19068TIP3   OH278694   3.722   2.234  12.637  0.0796 -0.2062  0.9064
19068TIP3    H178695   3.776   2.302  12.599  0.1668 -0.7018  0.1343
19068TIP3    H278696   3.699   2.267  12.724  1.2503  0.1979  1.0711
19069TIP3   OH278697   5.446   0.652   2.331 -0.6305 -0.4002 -0.3869
19069TIP3    H178698   5.466   0.613   2.246  0.5583  0.7509 -0.6769
19069TIP3    H278699   5.410   0.738   2.310 -2.6379 -1.0264  0.2511
19070TIP3   OH278700   4.921   6.324   3.469 -0.2159 -0.3921  0.1036
19070TIP3    H178701   4.860   6.254   3.493 -0.4907 -0.0036  0.5494
19070TIP3    H278702   4.872   6.378   3.407 -0.2623 -0.1933  0.3095
19071TIP3   OH278703   4.709   5.767   3.314 -0.8854 -0.0480  0.3546
19071TIP3    H178704   4.644   5.799   3.252 -0.7773 -0.8920 -0.2128
19071TIP3    H278705   4.777   5.835   3.315 -0.5031 -0.3668 -1.0579
19072TIP3   OH278706   0.488   3.366   4.067 -0.2694 -0.6937 -0.4002
19072TIP3    H178707   0.543   3.442   4.049 -1.5153  0.5568  0.6961
19072TIP3    H278708   0.411   3.404   4.110 -1.7485 -2.3985 -1.4190
19073TIP3   OH278709   2.377   1.636   0.868 -0.6453  0.0283  0.5528
19073TIP3    H178710   2.337   1.715   0.830 -0.2815  1.5159  3.0314
19073TIP3    H278711   2.454   1.619   0.814 -0.8232  1.2903 -0.1361
19074TIP3   OH278712   4.553   0.457   0.396  0.0184 -0.3557 -0.3345
19074TIP3    H178713   4.461   0.465   0.370 -0.9026 -0.2521  2.6682
19074TIP3    H278714   4.601   0.453   0.313 -2.6570 -0.2486 -1.9842
19075TIP3   OH278715   4.932   0.025   0.547  0.1826 -0.1703  0.1195
19075TIP3    H178716   4.900   0.101   0.596  0.1026  0.4957 -0.9167
19075TIP3    H278717   4.856  -0.032   0.538  0.5075 -0.9248  1.8583
19076TIP3   OH278718   1.864   3.328  10.749 -0.1654 -0.0110 -0.5225
19076TIP3    H178719   1.794   3.358  10.690 -0.0145  1.4189 -0.0019
19076TIP3    H278720   1.911   3.407  10.773 -1.3739 -0.2163  3.0685
19077TIP3   OH278721   4.129   6.725  12.479  0.0962  0.0511  0.3030
19077TIP3    H178722   4.085   6.789  12.535  0.5515  1.7345 -1.1644
19077TIP3    H278723   4.220   6.752  12.477  0.3403 -0.7545 -0.2161
19078TIP3   OH278724   1.151   5.259  16.808 -0.3029  0.2290  0.0863
19078TIP3    H178725   1.132   5.170  16.780  0.3640 -0.2737  1.1888
19078TIP3    H278726   1.067   5.305  16.800 -0.7091 -0.5491 -0.2382
19079TIP3   OH278727   6.608   3.717  12.861 -0.0298  0.3800  0.3213
19079TIP3    H178728   6.553   3.656  12.812 -1.5962  1.7745  0.2471
19079TIP3    H278729   6.561   3.800  12.857  1.8062  1.5046  0.7981
19080TIP3   OH278730   1.763   1.537  12.012  0.3403  0.2331  0.1074
19080TIP3    H178731   1.749   1.498  11.925 -1.2580 -0.2757  0.5642
19080TIP3    H278732   1.709   1.616  12.012  0.2173  0.1531  0.6830
19081TIP3   OH278733   2.026   2.321  12.248 -0.0693  0.5890 -0.0653
19081TIP3    H178734   1.941   2.296  12.286  0.7197 -0.6133  0.9734
19081TIP3    H278735   2.008   2.332  12.155 -0.7954 -2.6579 -0.4224
19082TIP3   OH278736   0.266   5.546  16.389  0.0849  0.1785  0.1233
19082TIP3    H178737   0.199   5.577  16.450  0.6075 -0.2179  0.9272
19082TIP3    H278738   0.238   5.458  16.365 -0.7790  0.7859 -1.2282
19083TIP3   OH278739   1.634   2.882  11.695  0.0526  0.0238  0.8627
19083TIP3    H178740   1.611   2.842  11.779  1.2470 -0.4928  0.9677
19083TIP3    H278741   1.550   2.894  11.650 -0.5747  0.0830  2.0232
19084TIP3   OH278742   1.574   1.423  15.287 -0.0528  0.0003 -0.1580
19084TIP3    H178743   1.545   1.501  15.240 -0.4267 -0.1458 -0.1776
19084TIP3    H278744   1.605   1.456  15.371  2.0922  0.4425 -1.0680
19085TIP3   OH278745   6.779   2.705  16.205 -0.0151  0.3231  0.1610
19085TIP3    H178746   6.699   2.670  16.244  1.2809 -1.1327  1.6291
19085TIP3    H278747   6.798   2.783  16.257  0.5858 -0.4576  1.1407
19086TIP3   OH278748   4.683   5.371   5.980 -0.5860 -0.6223 -0.3949
19086TIP3    H178749   4.625   5.344   6.051 -2.0056 -2.4691 -2.1511
19086TIP3    H278750   4.640   5.448   5.942 -0.1238  0.0110  0.3152
19087TIP3   OH278751   3.712   5.329   3.407  0.5375  0.2625 -0.6468
19087TIP3    H178752   3.695   5.292   3.494 -1.4211  2.3556 -0.0337
19087TIP3    H278753   3.711   5.254   3.348 -1.4301 -0.8967  0.7370
19088TIP3   OH278754   4.227   2.759   0.511  0.6713 -0.2338  0.4844
19088TIP3    H178755   4.231   2.758   0.606  2.7972  0.3688  0.4450
19088TIP3    H278756   4.179   2.840   0.490  0.4360 -0.2319  1.0291
19089TIP3   OH278757   4.488   0.267  11.238  0.2699 -0.3727 -0.2212
19089TIP3    H178758   4.523   0.209  11.305 -0.0865  1.0208  1.2189
19089TIP3    H278759   4.462   0.207  11.167  2.6177 -1.6926 -0.0738
19090TIP3   OH278760   1.503   5.405  11.715 -0.2907 -0.3144 -0.6311
19090TIP3    H178761   1.561   5.477  11.739  2.1531 -2.1941 -0.5292
19090TIP3    H278762   1.506   5.403  11.619 -0.2597 -0.3677 -0.6285
19091TIP3   OH278763   4.105   6.599   6.040  0.1723 -0.1729 -0.2334
19091TIP3    H178764   4.088   6.657   6.114 -0.3169 -0.9764  0.2927
19091TIP3    H278765   4.185   6.634   6.000 -0.5851  1.3989 -0.4762
19092TIP3   OH278766   1.963   2.844  15.780  0.0520 -0.0410 -0.1060
19092TIP3    H178767   2.011   2.927  15.780 -1.5701  0.9589 -1.1097
19092TIP3    H278768   1.876   2.867  15.748 -0.8210 -1.9464  0.7603
19093TIP3   OH278769   4.879   5.918   0.347 -0.0006 -0.1480 -0.7306
19093TIP3    H178770   4.899   5.884   0.260  0.7343  0.1365 -0.6763
19093TIP3    H278771   4.953   5.892   0.401 -0.8046 -0.9771  0.0017
19094TIP3   OH278772   4.751   2.239   1.879 -0.3125 -0.2102  0.1322
19094TIP3    H178773   4.670   2.194   1.854  0.0184  0.7942 -3.2439
19094TIP3    H278774   4.817   2.207   1.818  1.5842  0.0096  1.9388
19095TIP3   OH278775   6.164   4.203   4.593  0.2849  0.3000 -0.6338
19095TIP3    H178776   6.094   4.198   4.529 -0.0569 -0.5131 -0.2179
19095TIP3    H278777   6.156   4.291   4.632  0.6091  0.8625 -1.8008
19096TIP3   OH278778   2.950   3.781  10.751  0.1377 -0.1118  0.1186
19096TIP3    H178779   2.900   3.728  10.689 -0.4488  0.1611  0.3477
19096TIP3    H278780   2.919   3.751  10.837  0.6291 -0.1878  0.2679
19097TIP3   OH278781   5.931   4.152   2.325 -0.0327 -0.0076 -0.2403
19097TIP3    H178782   5.884   4.068   2.318  1.1557 -0.8475  1.1925
19097TIP3    H278783   5.942   4.165   2.419  2.5725  0.1338 -0.5042
19098TIP3   OH278784   2.136   3.705   4.293  0.0406 -0.6304 -0.3299
19098TIP3    H178785   2.055   3.731   4.336 -1.0143 -1.1895 -1.9029
19098TIP3    H278786   2.186   3.786   4.284 -0.4653 -0.2268  0.3790
19099TIP3   OH278787   0.523   1.005   5.786 -0.0722  0.7411  0.8575
19099TIP3    H178788   0.577   0.941   5.832 -1.7227 -1.1203  0.3344
19099TIP3    H278789   0.438   0.999   5.829 -0.5839  1.7179  0.0092
19100TIP3   OH278790   4.305   1.086  17.021 -0.0974 -0.7811  0.3724
19100TIP3    H178791   4.256   1.102  17.102  1.1602  0.4895  0.9333
19100TIP3    H278792   4.397   1.086  17.049  0.3784  0.0510 -1.1043
19101TIP3   OH278793   4.674   2.571   0.826 -0.3270 -0.6134 -0.2760
19101TIP3    H178794   4.692   2.663   0.844 -0.1264 -0.5947 -0.5615
19101TIP3    H278795   4.655   2.533   0.912  0.3415 -0.4685 -0.0567
19102TIP3   OH278796   3.255   0.845  14.192  0.1127 -0.0968  0.0857
19102TIP3    H178797   3.176   0.791  14.202  0.9580 -1.3756  0.1298
19102TIP3    H278798   3.242   0.917  14.253 -0.8181 -0.5299  0.4301
19103TIP3   OH278799   4.011   5.969   5.469  0.6327 -0.1073  0.2397
19103TIP3    H178800   3.979   6.058   5.458  2.9325  1.2280  2.8565
19103TIP3    H278801   4.106   5.976   5.460  0.7977 -2.6396 -1.0317
19104TIP3   OH278802   2.025   1.590  16.770  0.0231 -0.1336  0.6168
19104TIP3    H178803   2.038   1.650  16.697 -2.6834  1.7052  1.5054
19104TIP3    H278804   1.977   1.516  16.733  1.2448 -0.6512  0.0088
19105TIP3   OH278805   3.422   1.144   1.227 -0.5226 -0.3002  0.1246
19105TIP3    H178806   3.404   1.098   1.145 -1.2025 -0.0182  0.1127
19105TIP3    H278807   3.513   1.121   1.247  0.7782  2.0831 -2.3496
19106TIP3   OH278808   6.772   0.375  13.924 -0.4061 -0.6502  0.0227
19106TIP3    H178809   6.679   0.380  13.900 -0.1195  0.4833 -0.9501
19106TIP3    H278810   6.788   0.457  13.971  0.2050 -0.6531 -0.1810
19107TIP3   OH278811   0.231   0.016  15.763  0.6376  0.3597 -0.1173
19107TIP3    H178812   0.309   0.039  15.814 -0.7586  0.4047  2.1525
19107TIP3    H278813   0.164   0.078  15.792 -0.4895 -0.1963 -1.3972
19108TIP3   OH278814   2.752   6.385  12.784 -0.0357  0.3376  0.2417
19108TIP3    H178815   2.678   6.392  12.724  1.3614  0.6597 -1.5293
19108TIP3    H278816   2.826   6.420  12.734  1.7047 -1.7288  1.2211
19109TIP3   OH278817   6.695   2.835  13.937  0.3894 -0.0292 -0.1113
19109TIP3    H178818   6.680   2.820  13.844 -0.0426  0.5973 -0.1494
19109TIP3    H278819   6.703   2.747  13.974  0.7351 -0.2810 -0.7608
19110TIP3   OH278820   4.622   1.912  15.598  0.1906 -0.3407 -0.7906
19110TIP3    H178821   4.547   1.932  15.542  1.5609  0.9983 -2.2553
19110TIP3    H278822   4.689   1.976  15.572  2.1154 -1.9635 -0.0701
19111TIP3   OH278823   6.546   5.722  16.627  0.0641  0.1402  0.2228
19111TIP3    H178824   6.611   5.775  16.673  2.4559 -1.3306 -1.2486
19111TIP3    H278825   6.480   5.702  16.693  1.7902  0.5945  2.1904
19112TIP3   OH278826   5.502   1.221   0.007  0.1701 -0.6123  0.0066
19112TIP3    H178827   5.558   1.155   0.048 -0.3159 -0.0049  1.7651
19112TIP3    H278828   5.563   1.290  -0.019  0.3881 -0.5122  0.7586
19113TIP3   OH278829   1.049   3.812   2.321 -0.3300 -0.3231  0.5015
19113TIP3    H178830   1.048   3.859   2.237 -1.4506  1.0732  1.2422
19113TIP3    H278831   0.962   3.773   2.327 -0.4492  0.0468  1.2459
19114TIP3   OH278832   6.369   1.541  10.985 -0.0542  0.0260 -0.5446
19114TIP3    H178833   6.350   1.598  10.911  0.0179  2.4143  1.1588
19114TIP3    H278834   6.463   1.549  11.000  0.0226 -0.8340 -0.4618
19115TIP3   OH278835   5.421   3.061  16.602 -0.4331  0.1677  0.4330
19115TIP3    H178836   5.436   3.102  16.517 -2.3352 -2.0409 -1.1092
19115TIP3    H278837   5.489   2.994  16.609 -0.9406 -0.3923  0.0981
19116TIP3   OH278838   6.062   2.676  14.582 -0.1591 -0.0627  0.9982
19116TIP3    H178839   6.116   2.614  14.533 -1.7590 -0.1367 -0.7580
19116TIP3    H278840   6.075   2.760  14.538 -3.2588 -0.5365 -1.0718
19117TIP3   OH278841   5.029   2.123   0.273 -0.2531 -0.7433  0.4315
19117TIP3    H178842   5.077   2.195   0.232 -0.6633 -0.3263  0.6736
19117TIP3    H278843   4.938   2.138   0.248 -0.4310 -0.8021  1.0339
19118TIP3   OH278844   1.342   6.300   5.515  0.3416 -0.4038  0.6008
19118TIP3    H178845   1.321   6.392   5.502  2.7101  0.1635  0.2833
19118TIP3    H278846   1.307   6.280   5.602  0.3468  0.9933  0.9530
19119TIP3   OH278847   5.210   3.316  15.594 -0.5015  0.7189  0.5341
19119TIP3    H178848   5.195   3.409  15.578 -0.8233  0.6733  0.5673
19119TIP3    H278849   5.176   3.272  15.516  2.1625  0.7964 -0.7990
19120TIP3   OH278850   1.506   3.151   1.104  0.4907  0.6935  0.5840
19120TIP3    H178851   1.592   3.145   1.062  0.7391 -1.1415  1.2422
19120TIP3    H278852   1.499   3.070   1.155 -1.5095  0.9393  0.7869
19121TIP3   OH278853   6.096   4.900  16.210  0.3286 -0.5551 -0.3092
19121TIP3    H178854   6.013   4.919  16.165  2.5614  1.2060 -4.2650
19121TIP3    H278855   6.114   4.979  16.260 -0.4591 -1.0972  0.8896
19122TIP3   OH278856   3.115   5.144  17.151  0.2448 -0.0247  0.6540
19122TIP3    H178857   3.130   5.113  17.062  1.6649  0.4747  0.6796
19122TIP3    H278858   3.030   5.188  17.148 -0.3485 -1.1696 -0.1120
19123TIP3   OH278859   4.579   1.770   6.591 -0.2761  0.7220  0.2636
19123TIP3    H178860   4.619   1.745   6.507 -0.9117 -0.3915  0.2732
19123TIP3    H278861   4.487   1.746   6.581 -0.4213  0.8919  1.1702
19124TIP3   OH278862   6.504   1.175   6.014  0.5317 -0.3925  0.0011
19124TIP3    H178863   6.565   1.129   5.956  0.7441 -0.0139 -0.0785
19124TIP3    H278864   6.474   1.108   6.075 -1.5818 -1.4426 -1.9922
19125TIP3   OH278865   3.656   3.353   0.997 -0.2517  0.0742  0.1797
19125TIP3    H178866   3.732   3.412   0.994 -0.0871 -0.1750 -0.6690
19125TIP3    H278867   3.623   3.362   1.087  1.3333 -0.5105  0.8539
19126TIP3   OH278868   5.352   5.782  12.706 -0.2492 -0.3100  0.1971
19126TIP3    H178869   5.387   5.864  12.741 -1.3693  0.9267 -1.4071
19126TIP3    H278870   5.419   5.750  12.646  0.1819 -0.5830  0.8116
19127TIP3   OH278871   1.091   0.196  14.681  0.1615  0.0141 -0.2621
19127TIP3    H178872   1.115   0.103  14.671  2.8701  0.6216 -0.1187
19127TIP3    H278873   1.090   0.210  14.776 -1.3303 -0.0801 -0.2425
19128TIP3   OH278874   4.841   6.178   3.830 -0.1895 -0.0799 -0.2757
19128TIP3    H178875   4.865   6.145   3.917 -1.4627 -0.0143  0.1142
19128TIP3    H278876   4.896   6.255   3.818 -0.8415  0.6094  0.9837
19129TIP3   OH278877   4.027   1.559  11.695  0.0999 -0.1303  0.0882
19129TIP3    H178878   4.037   1.555  11.790 -0.3312  0.1296  0.1456
19129TIP3    H278879   3.991   1.474  11.670  0.0202 -0.1237  0.1823
19130TIP3   OH278880   4.687   1.685  13.037 -0.0151 -0.6944  0.5890
19130TIP3    H178881   4.682   1.695  13.132  0.7853  2.7233  0.4119
19130TIP3    H278882   4.780   1.696  13.017 -0.2683 -0.6683 -0.6316
19131TIP3   OH278883   0.024   1.853  14.476 -0.2121  0.3777 -0.1598
19131TIP3    H178884   0.021   1.801  14.556  0.2252  0.8083  0.1404
19131TIP3    H278885   0.099   1.910  14.487  0.1247  0.1354 -1.0705
19132TIP3   OH278886   2.681   5.271  15.348  0.2843  0.1092  0.1930
19132TIP3    H178887   2.775   5.263  15.367  0.0995  0.1893  1.1739
19132TIP3    H278888   2.641   5.198  15.395 -0.1766  0.2290 -0.0146
19133TIP3   OH278889   3.421   2.897   0.944  0.3487  0.0546  0.4206
19133TIP3    H178890   3.410   2.812   0.986  1.0799 -0.1780  0.1692
19133TIP3    H278891   3.514   2.918   0.956 -0.1513  1.5952  1.9227
19134TIP3   OH278892   3.226   5.256  13.698  0.4884  0.4667 -0.5007
19134TIP3    H178893   3.205   5.342  13.662  0.4524  0.4709 -0.4688
19134TIP3    H278894   3.310   5.234  13.658  0.3101  0.3449 -0.8151
19135TIP3   OH278895   5.106   0.927   2.096  0.0191  0.2507  0.8591
19135TIP3    H178896   5.127   0.887   2.011  1.5634 -2.1788  2.2502
19135TIP3    H278897   5.171   0.996   2.107  0.4122 -0.0534  0.4791
19136TIP3   OH278898   1.786   4.551   4.115 -0.0973 -0.1935  0.1476
19136TIP3    H178899   1.804   4.627   4.171 -0.6146 -0.6633  0.9752
19136TIP3    H278900   1.690   4.544   4.114 -0.0870 -0.3126 -0.6448
19137TIP3   OH278901   3.747   3.288   1.637  0.6667  0.2307  0.0231
19137TIP3    H178902   3.675   3.346   1.612 -0.3865  0.6181  3.4435
19137TIP3    H278903   3.725   3.204   1.595 -2.0038  0.2670  1.1611
19138TIP3   OH278904   0.793   1.300  15.952 -0.0952 -0.4165  0.0364
19138TIP3    H178905   0.732   1.372  15.962  0.1931  0.2919 -2.5119
19138TIP3    H278906   0.879   1.342  15.942  0.4798 -1.2698  1.1252
19139TIP3   OH278907   1.782   3.322  11.063  0.8806 -0.0649 -0.0993
19139TIP3    H178908   1.834   3.401  11.044  0.3058  0.2693 -0.3356
19139TIP3    H278909   1.763   3.328  11.157  1.0143 -0.0319 -0.0742
19140TIP3   OH278910   4.696   6.244  15.718  0.2473 -0.4115  0.1969
19140TIP3    H178911   4.788   6.242  15.747 -0.3297 -1.9642  2.1522
19140TIP3    H278912   4.695   6.193  15.637  0.9209 -1.4638  0.8373
19141TIP3   OH278913   4.354   4.411   2.564  0.4395  0.4710  0.3712
19141TIP3    H178914   4.439   4.437   2.530  0.1511  0.4534 -0.4028
19141TIP3    H278915   4.334   4.475   2.633 -0.6013  2.9119 -1.9854
19142TIP3   OH278916   4.596   6.662   1.243  0.1046  0.5391  0.3105
19142TIP3    H178917   4.684   6.683   1.210 -0.2433 -0.3468 -1.3005
19142TIP3    H278918   4.578   6.729   1.309  1.6890  1.1784  0.1312
19143TIP3   OH278919   5.201   5.844   3.799 -0.1584 -0.4984  0.0100
19143TIP3    H178920   5.237   5.829   3.711 -1.7879  1.5987 -1.1086
19143TIP3    H278921   5.136   5.912   3.786 -2.5244 -2.1481  2.3970
19144TIP3   OH278922   1.239   5.575  12.375  0.3196  0.0844 -0.3691
19144TIP3    H178923   1.144   5.563  12.372  0.3630 -0.1490 -0.8599
19144TIP3    H278924   1.262   5.561  12.467  0.1280 -1.8159 -0.5744
19145TIP3   OH278925   5.049   2.509   1.975 -0.3959  0.3093  0.9192
19145TIP3    H178926   5.088   2.595   1.960  2.3104 -0.4469  2.9879
19145TIP3    H278927   5.109   2.465   2.035 -1.9390 -2.8734  0.3302
19146TIP3   OH278928   2.237   4.022   1.917  0.0086 -0.0968  0.5827
19146TIP3    H178929   2.253   4.021   1.822  0.3746 -1.4866  0.6374
19146TIP3    H278930   2.314   4.066   1.954  0.2883 -0.3493  0.3039
19147TIP3   OH278931   1.664   4.415  16.510  0.1099  0.2964 -0.4060
19147TIP3    H178932   1.738   4.474  16.492 -0.3344  1.2959  0.8907
19147TIP3    H278933   1.666   4.403  16.605 -1.4331  0.3935 -0.3416
19148TIP3   OH278934   0.822   0.181   2.335 -0.0386 -0.6251 -0.0295
19148TIP3    H178935   0.906   0.198   2.293 -0.5292  0.2781 -0.6736
19148TIP3    H278936   0.777   0.266   2.334  0.3283 -0.2867  3.2600
19149TIP3   OH278937   4.533   3.129  16.004 -0.0671  0.0129  0.1124
19149TIP3    H178938   4.604   3.069  16.024 -0.8210 -0.7520  0.5691
19149TIP3    H278939   4.566   3.215  16.029  0.0788 -0.5442  1.9731
19150TIP3   OH278940   2.632   2.583   4.494 -0.0617 -0.5617 -0.2760
19150TIP3    H178941   2.620   2.501   4.542 -0.9926 -0.1584  0.1851
19150TIP3    H278942   2.720   2.575   4.456  0.6689 -0.9247  1.4278
19151TIP3   OH278943   5.778   5.580   5.542  0.2882  0.1238 -0.3616
19151TIP3    H178944   5.805   5.563   5.451  0.5625 -2.2111  0.0961
19151TIP3    H278945   5.693   5.538   5.550  0.3304  0.1926  0.4970
19152TIP3   OH278946   3.586   1.993  12.595  0.6321 -0.1721 -0.6178
19152TIP3    H178947   3.645   2.068  12.600  0.4245  0.1282 -2.1534
19152TIP3    H278948   3.506   2.023  12.639  1.2840 -0.2709  0.6805
19153TIP3   OH278949   2.056   6.029  16.034  0.5400  0.4735  0.0526
19153TIP3    H178950   2.100   5.952  16.001 -0.0813 -0.6593  1.7287
19153TIP3    H278951   1.964   6.018  16.007  0.4248  0.5653  0.3992
19154TIP3   OH278952   1.850   0.141  16.367 -0.0611  0.4774  0.8470
19154TIP3    H178953   1.807   0.057  16.351  0.3610  0.6948 -1.8148
19154TIP3    H278954   1.944   0.122  16.360  0.0076  1.3351 -0.9486
19155TIP3   OH278955   5.233   5.987  12.445 -0.8515  0.1063 -0.3662
19155TIP3    H178956   5.201   5.985  12.354  2.9608 -2.9177 -1.9372
19155TIP3    H278957   5.270   5.900  12.459  1.2228  1.3515  3.1756
19156TIP3   OH278958   2.705   1.485   1.773  0.2024  0.2035 -0.6894
19156TIP3    H178959   2.638   1.553   1.778 -1.4096 -1.4178  1.6799
19156TIP3    H278960   2.761   1.499   1.849  0.3753 -0.5921 -0.6553
19157TIP3   OH278961   0.369   6.786   4.260 -0.2088  0.6838  0.5967
19157TIP3    H178962   0.323   6.706   4.286  1.7158 -0.8439 -0.4393
19157TIP3    H278963   0.447   6.755   4.215 -0.3524  3.1713 -1.5981
19158TIP3   OH278964   6.485   6.092   6.321  0.2834 -0.2325 -0.0202
19158TIP3    H178965   6.553   6.075   6.386  1.9723  0.4752 -1.5199
19158TIP3    H278966   6.489   6.187   6.306 -0.2336 -0.3494 -0.9844
19159TIP3   OH278967   2.170   3.732  15.230 -0.3292  0.0105  0.5064
19159TIP3    H178968   2.220   3.807  15.262  0.3610 -0.5629  0.7799
19159TIP3    H278969   2.080   3.751  15.257 -0.2804  1.0498 -0.0016
19160TIP3   OH278970   1.042   3.785  15.850 -0.2217 -0.4166 -0.6221
19160TIP3    H178971   1.018   3.698  15.818 -2.5453 -1.3267  2.9831
19160TIP3    H278972   1.107   3.768  15.918 -0.3610  0.6906 -0.1923
19161TIP3   OH278973   5.871   4.981   1.121 -0.3713 -0.4634  0.2927
19161TIP3    H178974   5.795   5.038   1.120  0.6290  0.9140 -1.6358
19161TIP3    H278975   5.834   4.892   1.119 -1.9065  0.1585 -0.3304
19162TIP3   OH278976   4.339   0.388   1.990 -0.2916  0.4295  0.0133
19162TIP3    H178977   4.284   0.344   2.055 -1.2128 -1.0872 -1.7011
19162TIP3    H278978   4.287   0.464   1.963 -0.6687  0.1075 -0.1736
19163TIP3   OH278979   5.692   5.318   0.159  0.2442  0.5826 -0.4811
19163TIP3    H178980   5.677   5.360   0.244 -0.6297 -1.7251  0.5963
19163TIP3    H278981   5.716   5.228   0.182  0.2438 -0.0190 -2.6930
19164TIP3   OH278982   5.706   4.606   3.895  0.0733 -0.6776 -0.1500
19164TIP3    H178983   5.789   4.569   3.925  0.4546  0.0972 -0.2130
19164TIP3    H278984   5.686   4.559   3.814  0.3633 -0.9855 -0.0415
19165TIP3   OH278985   3.641   4.077   1.070  0.4820 -0.2725  0.2074
19165TIP3    H178986   3.556   4.114   1.048 -0.2078 -1.7128  0.3087
19165TIP3    H278987   3.648   4.089   1.165  0.5994  0.2357  0.1386
19166TIP3   OH278988   5.848   4.987  11.302 -0.3423 -0.3263 -0.3542
19166TIP3    H178989   5.908   5.025  11.239 -0.9155  1.8689  0.3417
19166TIP3    H278990   5.896   4.989  11.385 -0.7534 -0.1346 -0.1182
19167TIP3   OH278991   2.857   2.963  15.404  0.1189 -0.5091  0.2021
19167TIP3    H178992   2.789   2.963  15.337  0.6812 -0.6231 -0.3821
19167TIP3    H278993   2.860   2.873  15.436  0.1167 -0.5461  0.0983
19168TIP3   OH278994   1.537   1.750  12.221 -0.1359  0.2427  0.2627
19168TIP3    H178995   1.602   1.762  12.152  0.9226  1.2845  1.3873
19168TIP3    H278996   1.454   1.774  12.181  0.0813 -1.3530 -1.2782
19169TIP3   OH278997   2.245   1.321  14.577  0.0365  0.1152  0.1239
19169TIP3    H178998   2.185   1.373  14.631  0.1879  0.9357 -0.4856
19169TIP3    H278999   2.324   1.375  14.571 -0.0062  0.0800 -0.9754
19170TIP3   OH279000   4.334   1.055   2.372  0.7300  0.5090  0.2905
19170TIP3    H179001   4.280   1.131   2.396  0.0452  0.7000 -1.6731
19170TIP3    H279002   4.393   1.087   2.304  0.7026 -0.6224 -0.2974
19171TIP3   OH279003   2.860   6.366   1.793 -0.0302  0.2999  0.1265
19171TIP3    H179004   2.891   6.455   1.780 -0.2156  0.6365  1.7729
19171TIP3    H279005   2.771   6.376   1.827  0.6083 -0.3850  2.2277
19172TIP3   OH279006   6.472   3.163  14.535 -0.1730  0.4159  0.1852
19172TIP3    H179007   6.556   3.207  14.541  0.8692 -1.0898 -2.0760
19172TIP3    H279008   6.484   3.081  14.584  0.1097 -0.3206 -1.0613
19173TIP3   OH279009   5.649   0.890  11.289  0.6898  0.3107 -0.0096
19173TIP3    H179010   5.709   0.953  11.330  2.6394 -1.4243 -0.0138
19173TIP3    H279011   5.622   0.832  11.360  1.7849 -0.9588 -0.5687
19174TIP3   OH279012   5.139   6.108   1.386  0.3440  0.0786  0.0006
19174TIP3    H179013   5.044   6.114   1.393  0.3326  2.6812 -1.1719
19174TIP3    H279014   5.172   6.181   1.439  1.6533 -0.4029 -0.1020
19175TIP3   OH279015   3.474   0.070   6.277 -0.5394 -0.2022  0.5724
19175TIP3    H179016   3.448   0.069   6.184  1.1131 -0.2048  0.0838
19175TIP3    H279017   3.474  -0.022   6.303  0.6136 -0.3579  0.0762
19176TIP3   OH279018   1.417   0.011  14.080  0.0901  0.0292  0.0147
19176TIP3    H179019   1.387  -0.077  14.059  1.6406 -1.1675  2.4468
19176TIP3    H279020   1.420   0.014  14.175  0.6911  2.5270 -0.0078
19177TIP3   OH279021   6.716   4.741   5.539  0.7057  0.1622 -0.7281
19177TIP3    H179022   6.734   4.665   5.595  1.4484  0.2784 -0.7990
19177TIP3    H279023   6.626   4.765   5.560 -0.2787 -1.9410 -2.1299
19178TIP3   OH279024   3.660   4.551  14.291 -0.4705  0.3932 -0.0034
19178TIP3    H179025   3.693   4.488  14.354  1.1099  2.8513  1.7916
19178TIP3    H279026   3.730   4.558  14.226 -1.1989 -0.5785 -0.9311
19179TIP3   OH279027   2.884   2.515   2.787  0.5811 -0.5092 -0.6389
19179TIP3    H179028   2.874   2.602   2.746  1.2027  0.1742  0.6049
19179TIP3    H279029   2.852   2.454   2.720 -1.4788  0.7630 -0.9050
19180TIP3   OH279030   3.598   6.289  16.289 -0.6359 -0.2284 -0.3994
19180TIP3    H179031   3.648   6.270  16.369  0.1015 -0.4472 -0.8978
19180TIP3    H279032   3.562   6.376  16.303 -1.3585 -0.6775  0.5897
19181TIP3   OH279033   0.672   5.721   0.190 -0.0535  0.3943  0.1000
19181TIP3    H179034   0.724   5.656   0.142  0.6468 -0.2794  1.6741
19181TIP3    H279035   0.589   5.725   0.144  1.2538  1.3239 -2.3873
19182TIP3   OH279036   6.199   5.309   2.610  0.9373 -0.3075 -0.0863
19182TIP3    H179037   6.279   5.362   2.610  1.0635 -0.4873 -0.7207
19182TIP3    H279038   6.128   5.373   2.607  1.0458 -0.1434  0.5880
19183TIP3   OH279039   0.221   5.323  14.397  0.2001  0.2848  0.3510
19183TIP3    H179040   0.279   5.353  14.327  0.0684 -1.5577 -0.6001
19183TIP3    H279041   0.272   5.335  14.478  2.3831 -2.1513 -0.5186
19184TIP3   OH279042   4.820   1.406  15.879  0.3507  0.0388  0.1114
19184TIP3    H179043   4.877   1.329  15.892  1.4877  0.6317 -1.0691
19184TIP3    H279044   4.735   1.379  15.912  0.8241 -1.6125  0.0816
19185TIP3   OH279045   0.339   1.154  13.811 -0.0571  0.7470  0.2921
19185TIP3    H179046   0.281   1.199  13.873 -0.1819  1.4237 -0.3150
19185TIP3    H279047   0.280   1.119  13.745  0.0483 -0.2341  0.6967
19186TIP3   OH279048   5.524   6.449   5.107 -0.2304 -0.0325  0.2550
19186TIP3    H179049   5.438   6.435   5.069 -0.6992  1.6474  0.6063
19186TIP3    H279050   5.565   6.517   5.052  0.0041  0.7189  1.3167
19187TIP3   OH279051   3.462   1.716   1.281  0.4013 -0.3923 -0.3636
19187TIP3    H179052   3.441   1.716   1.188  0.4324  1.8023 -0.4112
19187TIP3    H279053   3.430   1.800   1.313  0.0209 -1.2750  1.7123
19188TIP3   OH279054   4.555   4.890  15.902 -0.2510  0.1508  0.4626
19188TIP3    H179055   4.631   4.948  15.895  1.0751 -1.3080  1.9777
19188TIP3    H279056   4.539   4.882  15.996 -0.6172 -1.6498  0.2786
19189TIP3   OH279057   3.944   2.639   3.854 -0.1296 -0.3642 -0.3172
19189TIP3    H179058   3.941   2.675   3.943  1.9303  0.5516 -0.5676
19189TIP3    H279059   3.888   2.697   3.803 -1.9439 -1.3311  0.4619
19190TIP3   OH279060   0.025   3.873  16.024 -0.4481 -0.3126  0.9498
19190TIP3    H179061   0.060   3.962  16.019  1.5233 -1.1207 -0.8428
19190TIP3    H279062  -0.070   3.885  16.013 -0.3903  1.6326  2.0191
19191TIP3   OH279063   2.159   1.034  15.927  0.1853 -0.8441 -0.1765
19191TIP3    H179064   2.139   0.951  15.885  0.3558 -1.0469  0.1375
19191TIP3    H279065   2.124   1.025  16.016  0.6557 -0.7757  0.0193
19192TIP3   OH279066   4.640   2.958  13.883  0.6536 -0.0754  0.2929
19192TIP3    H179067   4.703   2.999  13.824  0.6168  0.4980  0.6444
19192TIP3    H279068   4.651   2.864  13.868  1.6194  0.0146  0.3732
19193TIP3   OH279069   3.596   0.373  11.939  0.3119 -0.3860 -0.0538
19193TIP3    H179070   3.611   0.299  11.998  0.3170 -1.2445 -1.1024
19193TIP3    H279071   3.507   0.359  11.906 -0.5653  1.3268  1.4543
19194TIP3   OH279072   6.346   5.350  11.719  0.4128 -0.4668  0.1023
19194TIP3    H179073   6.419   5.354  11.780  0.8007  2.1886 -0.4222
19194TIP3    H279074   6.361   5.270  11.668  3.0179  0.0392 -0.0573
19195TIP3   OH279075   0.107   6.748   3.462  0.5923 -0.1655 -0.1829
19195TIP3    H179076   0.029   6.763   3.515  1.4068  0.9231  0.7553
19195TIP3    H279077   0.137   6.661   3.488 -1.0860 -1.2620 -1.6366
19196TIP3   OH279078   1.959   2.356   5.362  0.4659 -0.0164 -0.3343
19196TIP3    H179079   1.956   2.265   5.334 -1.8193 -0.5885  1.4509
19196TIP3    H279080   1.992   2.353   5.452  1.4701  1.0722 -0.6361
19197TIP3   OH279081   6.536   2.487   1.613  0.0478  0.1344  0.4710
19197TIP3    H179082   6.481   2.554   1.653 -1.5253 -0.9800  0.2872
19197TIP3    H279083   6.508   2.484   1.521 -0.5328 -1.3243  0.6695
19198TIP3   OH279084   6.316   4.938   5.188  0.5986 -0.1030  0.5867
19198TIP3    H179085   6.408   4.941   5.212  0.8101 -0.8607 -0.1040
19198TIP3    H279086   6.296   5.027   5.157  1.0613  0.0875  0.8289
19199TIP3   OH279087   0.775   6.111  13.328 -0.9210  0.2257  0.0252
19199TIP3    H179088   0.741   6.160  13.254 -0.9502 -0.4942 -0.4468
19199TIP3    H279089   0.859   6.075  13.297  0.0575  1.5528  0.9937
19200TIP3   OH279090   4.905   4.918  12.126 -0.2880 -0.5980  0.3693
19200TIP3    H179091   4.819   4.956  12.140  0.2369  0.6335  0.3904
19200TIP3    H279092   4.902   4.884  12.037 -0.3939  0.6027 -0.1030
19201TIP3   OH279093   2.336   3.309  17.184  0.0787 -0.5391 -0.1786
19201TIP3    H179094   2.345   3.220  17.150 -0.7830 -0.6781 -0.0782
19201TIP3    H279095   2.294   3.297  17.270  2.1542 -0.1927  0.9569
19202TIP3   OH279096   2.326   1.863   0.425  0.5569 -0.5117  0.6003
19202TIP3    H179097   2.281   1.947   0.414  0.9373 -0.5030 -1.0124
19202TIP3    H279098   2.274   1.817   0.491  0.6167  1.1589  1.8896
19203TIP3   OH279099   5.479   4.975  12.065  0.5782 -0.0367  0.2029
19203TIP3    H179100   5.391   4.938  12.062  0.4969  0.1750 -0.0419
19203TIP3    H279101   5.466   5.067  12.086  0.5517  0.6026 -2.2295
19204TIP3   OH279102   3.961   4.613  15.235 -0.2320  0.3913  0.1453
19204TIP3    H179103   3.894   4.629  15.168  0.8791  0.6720 -0.9235
19204TIP3    H279104   4.043   4.638  15.193  0.7683 -1.5909  0.8285
19205TIP3   OH279105   3.923   5.880   5.715 -0.0261 -0.8096  0.4689
19205TIP3    H179106   3.956   5.869   5.625 -2.0138 -4.9849  0.0020
19205TIP3    H279107   3.852   5.943   5.706  0.4087 -0.4495 -0.7193
19206TIP3   OH279108   3.488   4.167   3.298  0.2068  0.1727 -0.5557
19206TIP3    H179109   3.561   4.211   3.342 -0.3588  0.7533 -0.1957
19206TIP3    H279110   3.501   4.188   3.205 -0.3344  1.5397 -0.3463
19207TIP3   OH279111   4.751   5.266   2.574  0.6034 -0.0071 -0.6801
19207TIP3    H179112   4.689   5.205   2.613  0.3028  1.2953  0.9992
19207TIP3    H279113   4.792   5.217   2.503 -0.9743 -1.5131 -0.6178
19208TIP3   OH279114   6.793   2.412  14.158  0.6436  0.0103 -0.0780
19208TIP3    H179115   6.776   2.470  14.232  2.0221  1.9202 -1.1625
19208TIP3    H279116   6.834   2.335  14.197  1.6483  1.1263  1.1639
19209TIP3   OH279117   5.938   5.779   3.681 -0.2831  0.4159  0.2501
19209TIP3    H179118   5.852   5.821   3.684 -0.3709  0.5054 -1.7380
19209TIP3    H279119   5.923   5.692   3.717 -1.4014  0.1755 -0.7183
19210TIP3   OH279120   3.979   3.578   0.297  0.2195  0.1219  0.2584
19210TIP3    H179121   3.943   3.512   0.238 -1.6539 -1.2221  2.7088
19210TIP3    H279122   4.069   3.549   0.314 -0.0106 -0.8165 -0.0738
19211TIP3   OH279123   2.196   1.237  14.272 -0.1235  0.2247 -0.1898
19211TIP3    H179124   2.212   1.215  14.364  0.5910 -0.3763 -0.4469
19211TIP3    H279125   2.199   1.333  14.269 -1.1727  0.2899  0.5856
19212TIP3   OH279126   4.710   0.358  15.925  0.1003  0.3219 -0.2683
19212TIP3    H179127   4.791   0.359  15.977 -0.4700  1.7048  0.6374
19212TIP3    H279128   4.737   0.393  15.840  0.6333 -0.0197 -0.2428
19213TIP3   OH279129   5.292   4.680   2.462  0.3907  0.5527  0.2660
19213TIP3    H179130   5.232   4.744   2.501  1.4942  1.2564  0.8555
19213TIP3    H279131   5.368   4.680   2.519  0.3003 -1.5816  0.5017
19214TIP3   OH279132   4.778   2.268  14.504 -0.6538  0.0775  0.0654
19214TIP3    H179133   4.805   2.313  14.584  3.6225 -0.6653 -0.6818
19214TIP3    H279134   4.738   2.336  14.449 -0.8683  1.2705  1.6466
19215TIP3   OH279135   6.043   1.486  13.231  0.1865 -0.1117  0.3907
19215TIP3    H179136   6.016   1.564  13.278  0.2548 -0.1458  0.4853
19215TIP3    H279137   6.042   1.416  13.296  0.7433 -0.0639  0.4550
19216TIP3   OH279138   5.894   0.484   3.637 -0.1872  0.3375 -0.0352
19216TIP3    H179139   5.988   0.488   3.657 -0.6078 -1.1899  2.6763
19216TIP3    H279140   5.889   0.424   3.562  1.0139  0.9332 -0.6307
19217TIP3   OH279141   1.469   1.559  11.925  0.3471  0.4120  0.2335
19217TIP3    H179142   1.530   1.498  11.884  0.7683 -0.0088  1.4397
19217TIP3    H279143   1.460   1.631  11.861  0.4136 -0.5436 -0.8798
19218TIP3   OH279144   0.022   1.370  15.678  0.2834  0.5670  0.0791
19218TIP3    H179145   0.096   1.417  15.638  0.8976 -0.6244 -0.2379
19218TIP3    H279146   0.041   1.277  15.662 -1.2257  0.2254  0.1006
19219TIP3   OH279147   4.433   2.645   2.329  0.2667  0.3380 -0.3109
19219TIP3    H179148   4.385   2.641   2.246 -0.4851 -0.9574  0.1612
19219TIP3    H279149   4.514   2.596   2.312 -0.1815 -0.4906 -0.1079
19220TIP3   OH279150   3.309   5.353   4.831 -0.1623  0.2116 -0.5095
19220TIP3    H179151   3.325   5.353   4.926  0.0452 -0.3409 -0.5437
19220TIP3    H279152   3.332   5.442   4.804  1.2857 -0.0567 -0.2848
19221TIP3   OH279153   2.161   2.188   3.134  0.1648  0.0168 -0.5499
19221TIP3    H179154   2.107   2.122   3.177  0.2928 -0.1420 -0.6333
19221TIP3    H279155   2.163   2.261   3.196 -1.2288  0.5546 -1.1090
19222TIP3   OH279156   0.168   6.292  14.491 -0.2773  0.3485 -0.0582
19222TIP3    H179157   0.123   6.307  14.408 -0.1939 -0.7245 -0.3155
19222TIP3    H279158   0.210   6.376  14.511  0.8243  0.2782 -1.7951
19223TIP3   OH279159   3.092   5.382  15.766 -0.1301 -0.1307  0.2195
19223TIP3    H179160   3.079   5.468  15.807 -0.1598  0.9975 -1.9922
19223TIP3    H279161   3.185   5.363  15.779 -0.4144 -0.5436  2.0213
19224TIP3   OH279162   1.286   4.727   1.986  0.4714 -0.3585 -0.1234
19224TIP3    H179163   1.330   4.648   2.018  0.8415  0.2794  0.9817
19224TIP3    H279164   1.193   4.712   2.006  0.6672 -0.0755  1.0720
19225TIP3   OH279165   1.337   1.046   3.176  0.4485 -0.4290 -0.1756
19225TIP3    H179166   1.275   1.109   3.212 -0.3717 -1.0925 -0.3955
19225TIP3    H279167   1.422   1.090   3.180  0.1863 -0.0122  1.4061
19226TIP3   OH279168   0.047   1.829  16.904  0.0320  0.0992  0.3074
19226TIP3    H179169   0.055   1.923  16.915 -0.7269  0.1533  0.4224
19226TIP3    H279170  -0.031   1.817  16.850 -0.0143 -0.4702  0.4859
19227TIP3   OH279171   6.598   5.933   1.527  0.2988  0.1075  0.4232
19227TIP3    H179172   6.675   5.907   1.577  1.6830  2.0933 -0.5384
19227TIP3    H279173   6.628   5.938   1.437 -1.3568 -0.4339 -0.2067
19228TIP3   OH279174   6.566   2.348   3.108  0.6628 -0.2741  0.6238
19228TIP3    H179175   6.502   2.403   3.154 -1.0642 -1.6432 -0.0113
19228TIP3    H279176   6.610   2.300   3.179  1.1596  0.8439  1.0881
19229TIP3   OH279177   6.784   5.397   1.306  0.0666 -0.2379  0.9723
19229TIP3    H179178   6.877   5.394   1.281 -0.3181  0.2723 -0.6065
19229TIP3    H279179   6.747   5.468   1.253 -1.2548 -0.5168  1.4882
19230TIP3   OH279180   6.710   0.638  14.055  0.2842 -0.4757  0.2273
19230TIP3    H179181   6.707   0.728  14.087 -0.3937  0.1293 -1.4139
19230TIP3    H279182   6.678   0.585  14.128 -0.2287  0.7077  0.8815
19231TIP3   OH279183   2.196   1.993  16.188 -0.6748 -0.4051  0.2670
19231TIP3    H179184   2.220   2.039  16.267 -0.4749 -0.7237  0.3943
19231TIP3    H279185   2.109   1.958  16.206 -0.1425 -1.5021  0.8076
19232TIP3   OH279186   3.592   3.911   2.073  0.3364 -0.8017 -0.0654
19232TIP3    H179187   3.497   3.917   2.076  0.3598 -0.8134  0.8546
19232TIP3    H279188   3.620   4.000   2.052  0.0999 -0.9781 -1.1790
19233TIP3   OH279189   5.424   2.893  12.961 -0.1871 -0.1321  0.0699
19233TIP3    H179190   5.379   2.890  12.876 -0.9132 -1.7473  0.4700
19233TIP3    H279191   5.482   2.817  12.960  1.1404  0.8473  0.3368
19234TIP3   OH279192   4.683   4.663   3.507  0.2370 -0.3769  0.2221
19234TIP3    H179193   4.723   4.583   3.475 -0.0760 -0.4469 -0.0029
19234TIP3    H279194   4.697   4.661   3.601 -0.6458 -1.1903  0.3488
19235TIP3   OH279195   6.394   3.130  11.211 -0.2009 -0.4471 -0.4024
19235TIP3    H179196   6.373   3.217  11.178 -1.6004  0.0340  1.5940
19235TIP3    H279197   6.452   3.145  11.286 -2.1286 -1.0025  1.3030
19236TIP3   OH279198   5.755   5.308   1.286 -0.7411 -0.2993  0.7695
19236TIP3    H179199   5.750   5.390   1.237 -1.2595 -0.6951  0.1453
19236TIP3    H279200   5.823   5.324   1.351  3.0562 -1.0483 -2.5941
19237TIP3   OH279201   4.658   4.521   0.007 -0.0133  0.2270 -0.2344
19237TIP3    H179202   4.615   4.438  -0.014  0.1087 -0.0643  0.6101
19237TIP3    H279203   4.588   4.586  -0.000 -1.1584 -0.4602  2.8760
19238TIP3   OH279204   4.841   0.297   6.170  0.3629  0.7991  0.1042
19238TIP3    H179205   4.850   0.339   6.085  1.9273  2.5761  1.0660
19238TIP3    H279206   4.816   0.368   6.229  1.0010 -0.0373  1.4219
19239TIP3   OH279207   6.583   0.955   1.554 -0.1705 -0.3528 -0.3445
19239TIP3    H179208   6.538   0.933   1.635 -2.1667  0.2511 -1.2441
19239TIP3    H279209   6.515   0.952   1.487  0.9720  1.3422 -1.6537
19240TIP3   OH279210   0.343   5.991   2.172  0.1957 -0.0955  0.1760
19240TIP3    H179211   0.285   5.997   2.097  0.1255 -2.7522 -0.0553
19240TIP3    H279212   0.285   5.987   2.248  0.2231  0.9392  0.2661
19241TIP3   OH279213   6.354   2.620  11.672 -0.0924  0.3088 -0.3299
19241TIP3    H179214   6.383   2.708  11.697  0.0701 -0.1366  1.1339
19241TIP3    H279215   6.435   2.571  11.658  0.0566 -0.9228  3.7127
19242TIP3   OH279216   1.956   0.872   2.383  0.5941 -0.4800  0.0647
19242TIP3    H179217   1.928   0.817   2.310  1.3958 -1.0196  0.1474
19242TIP3    H279218   1.907   0.838   2.458  0.4061 -0.4888 -0.0627
19243TIP3   OH279219   4.633   2.483   1.082 -0.3636  0.3305 -0.6783
19243TIP3    H179220   4.610   2.547   1.150  1.5379  2.4243 -1.8592
19243TIP3    H279221   4.613   2.398   1.121 -1.6621  1.5516  1.5328
19244TIP3   OH279222   6.291   0.324   6.230 -0.3626 -0.2002  0.2823
19244TIP3    H179223   6.321   0.307   6.320  1.2119  0.3576 -0.1016
19244TIP3    H279224   6.371   0.348   6.183 -1.3380  0.6049 -1.0099
19245TIP3   OH279225   4.631   3.580   3.830 -0.1460  0.2416 -0.1304
19245TIP3    H179226   4.642   3.485   3.841  1.6109  0.3677 -0.5069
19245TIP3    H279227   4.538   3.595   3.847 -1.1599 -1.9516 -2.8593
19246TIP3   OH279228   1.113   4.049   1.804 -0.0394  0.0170  0.2039
19246TIP3    H179229   1.107   4.118   1.738 -0.5999  0.1462  0.3792
19246TIP3    H279230   1.207   4.039   1.821  0.0817  0.2702 -0.3070
19247TIP3   OH279231   1.440   6.456  13.440  0.2828  0.7938 -0.6417
19247TIP3    H179232   1.362   6.405  13.422  1.3750 -1.6761  1.0853
19247TIP3    H279233   1.480   6.471  13.354 -1.5070  1.2384 -1.4400
19248TIP3   OH279234   3.688   4.429  17.156 -0.5767  0.4809 -0.0800
19248TIP3    H179235   3.681   4.393  17.068 -0.8501  2.0256 -0.7226
19248TIP3    H279236   3.626   4.502  17.157 -0.6960  0.3932  1.4502
19249TIP3   OH279237   0.977   1.587   4.929  0.7271  0.1343 -0.0182
19249TIP3    H179238   0.954   1.515   4.870 -0.1909  0.7234 -0.3856
19249TIP3    H279239   0.945   1.559   5.014  1.9154 -0.6493  0.2069
19250TIP3   OH279240   2.757   6.384   3.435 -0.0087 -1.1067  0.1629
19250TIP3    H179241   2.810   6.318   3.480 -0.9493 -0.4491  2.3612
19250TIP3    H279242   2.682   6.335   3.400  0.8045 -1.6501 -0.8717
19251TIP3   OH279243   0.648   3.582  15.802  0.1981 -0.1257  0.2143
19251TIP3    H179244   0.654   3.674  15.828  2.6425 -0.0398 -0.3581
19251TIP3    H279245   0.659   3.583  15.707  1.2069 -1.0389  0.2992
19252TIP3   OH279246   2.433   3.092   6.573 -0.4587  0.1216 -0.2513
19252TIP3    H179247   2.508   3.094   6.632 -0.7843 -1.0870  0.2324
19252TIP3    H279248   2.370   3.151   6.613 -0.9632 -1.2413  1.0482
19253TIP3   OH279249   2.327   1.571  17.217  0.5002 -0.0745  0.3472
19253TIP3    H179250   2.410   1.538  17.181  0.3298 -0.5820  0.4054
19253TIP3    H279251   2.327   1.541  17.308 -0.4600 -1.4659 -0.0771
19254TIP3   OH279252   5.757   3.535  15.487  0.1372  0.3298  0.5904
19254TIP3    H179253   5.805   3.479  15.427 -1.9850 -0.7392 -0.1979
19254TIP3    H279254   5.801   3.620  15.481  0.5912 -0.0140 -1.7192
19255TIP3   OH279255   4.641   0.255   2.448 -0.4330  0.7161  0.2445
19255TIP3    H179256   4.642   0.190   2.519  1.4283  0.2353 -0.1662
19255TIP3    H279257   4.583   0.217   2.382 -1.4913  0.7583  1.1112
19256TIP3   OH279258   3.846   0.070   2.202 -0.2007  0.5194 -0.0970
19256TIP3    H179259   3.817   0.089   2.291 -1.6922 -1.4111 -0.1211
19256TIP3    H279260   3.904   0.143   2.181 -0.9391  1.7904  1.9078
19257TIP3   OH279261   5.589   3.584   2.873 -0.3332  0.6389  0.2852
19257TIP3    H179262   5.649   3.564   2.944 -0.3975 -0.4157  0.0576
19257TIP3    H279263   5.550   3.668   2.897 -1.0378 -0.1215  1.9553
19258TIP3   OH279264   0.580   0.496  12.784 -0.4418 -0.3919  0.4215
19258TIP3    H179265   0.525   0.450  12.721  0.3609  0.9719 -1.3527
19258TIP3    H279266   0.584   0.586  12.751  1.2232  0.0073  1.6046
19259TIP3   OH279267   2.560   2.221  15.881 -0.5904 -0.0343  0.9199
19259TIP3    H179268   2.594   2.139  15.846 -0.5758  0.2827  0.1679
19259TIP3    H279269   2.467   2.205  15.893 -0.4160 -0.4840  1.7483
19260TIP3   OH279270   6.157   6.186  11.841  0.2962 -0.2356  0.0053
19260TIP3    H179271   6.152   6.280  11.859  1.4491  0.0967 -1.2267
19260TIP3    H279272   6.236   6.157  11.887  0.7659 -0.2737 -0.7991
19261TIP3   OH279273   5.904   4.276  15.010 -0.4107  0.1684  0.2276
19261TIP3    H179274   5.948   4.191  15.013  0.9089  0.6999 -1.7995
19261TIP3    H279275   5.833   4.264  14.947 -0.3901  0.4841  0.1435
19262TIP3   OH279276   6.023   3.589   4.827 -0.2504  0.2242 -0.2075
19262TIP3    H179277   6.057   3.616   4.912  1.4893 -0.5887 -0.5945
19262TIP3    H279278   5.937   3.552   4.846  0.8244 -1.6003  1.4921
19263TIP3   OH279279   0.707   5.806  15.811  0.3203  0.7332 -0.1458
19263TIP3    H179280   0.725   5.829  15.902  1.0183 -1.9121  0.4831
19263TIP3    H279281   0.784   5.757  15.783 -0.8360 -0.4458 -1.4046
19264TIP3   OH279282   5.329   3.080   5.937 -0.4015 -0.5573 -0.7635
19264TIP3    H179283   5.310   3.101   6.029 -2.0799  0.1393 -1.2300
19264TIP3    H279284   5.314   3.163   5.891 -0.5077 -1.1374 -1.7899
19265TIP3   OH279285   4.287   1.830   5.660  0.1525 -0.0661 -0.2625
19265TIP3    H179286   4.288   1.791   5.747  1.0227 -0.3604 -0.3987
19265TIP3    H279287   4.225   1.903   5.667  1.1367  0.6822  0.9330
19266TIP3   OH279288   2.241   0.914  12.337 -0.3892 -0.1377 -0.0243
19266TIP3    H179289   2.230   0.836  12.282 -1.1258  0.3470 -0.5939
19266TIP3    H279290   2.195   0.892  12.418 -0.3232 -0.4161 -0.0603
19267TIP3   OH279291   0.039   0.187   0.977  0.2139 -0.2456  0.1319
19267TIP3    H179292   0.065   0.234   0.898 -1.2763  1.5770  0.6398
19267TIP3    H279293   0.003   0.255   1.034  0.6592 -1.6093  2.1262
19268TIP3   OH279294   6.821   0.474   3.915 -0.1929 -0.2175 -0.8395
19268TIP3    H179295   6.839   0.382   3.898 -1.3861 -0.4935 -0.7361
19268TIP3    H279296   6.729   0.485   3.891 -0.3967  0.6681  0.2527
19269TIP3   OH279297   1.613   3.582   0.758  0.4248  0.4806 -0.5041
19269TIP3    H179298   1.528   3.592   0.715  0.9885  0.6270 -1.6300
19269TIP3    H279299   1.606   3.500   0.807 -0.8858  1.2982  0.7216
19270TIP3   OH279300   4.353   6.670  14.146 -0.0826  0.1347  0.5125
19270TIP3    H179301   4.420   6.621  14.099  2.1296  2.3085  1.2380
19270TIP3    H279302   4.399   6.712  14.218 -2.3628  1.1716  1.4623
19271TIP3   OH279303   2.800   4.036  15.906 -0.1396 -0.5096  0.9140
19271TIP3    H179304   2.801   4.113  15.848 -0.8329  0.1872  1.7939
19271TIP3    H279305   2.862   3.976  15.866  0.7766  0.6918  0.4490
19272TIP3   OH279306   1.798   2.739   4.172 -0.0838 -0.5568 -0.2337
19272TIP3    H179307   1.878   2.770   4.128 -0.4415  0.1712 -0.4001
19272TIP3    H279308   1.790   2.648   4.146  0.7254 -0.6515 -0.1717
19273TIP3   OH279309   2.065   1.314   4.004 -0.0902 -0.2315  0.2864
19273TIP3    H179310   2.101   1.237   3.960 -0.2662  0.5642 -1.3010
19273TIP3    H279311   1.979   1.285   4.037  0.0721 -0.8522  0.1757
19274TIP3   OH279312   6.621   3.096  16.840 -0.1095 -0.0103 -0.1658
19274TIP3    H179313   6.679   3.051  16.902 -0.8931 -2.0760 -0.8429
19274TIP3    H279314   6.675   3.165  16.803  0.2016  1.7904  3.2570
19275TIP3   OH279315   6.332   2.506   4.605  0.5091  0.0202  0.7868
19275TIP3    H179316   6.272   2.564   4.653 -0.9603 -1.9851  1.5269
19275TIP3    H279317   6.291   2.493   4.520  0.5010 -0.4333  0.8578
19276TIP3   OH279318   6.421   5.066   6.032  0.5493 -0.4230 -0.5659
19276TIP3    H179319   6.347   5.019   5.995  0.1737 -1.7810  1.7225
19276TIP3    H279320   6.424   5.039   6.124  3.0451  0.6424 -0.2324
19277TIP3   OH279321   3.250   4.564   1.978  0.5266 -0.2294 -0.1436
19277TIP3    H179322   3.319   4.537   2.039  2.6330  1.1062 -1.7613
19277TIP3    H279323   3.254   4.660   1.978 -2.4136 -0.0278  0.7944
19278TIP3   OH279324   3.511   0.542   6.484  0.3454 -0.0610 -0.0330
19278TIP3    H179325   3.556   0.614   6.441 -1.0781 -0.0326 -1.5990
19278TIP3    H279326   3.463   0.583   6.556  2.8298 -0.1245  1.8052
19279TIP3   OH279327   1.153   2.636   1.049 -0.0612  0.0249  0.1924
19279TIP3    H179328   1.211   2.665   1.119  1.4212  1.3028 -1.4857
19279TIP3    H279329   1.079   2.698   1.052  0.0284  0.1144  0.5762
19280TIP3   OH279330   5.887   1.260  16.938 -0.0317 -0.8615  0.8476
19280TIP3    H179331   5.954   1.192  16.934  0.3338 -0.4877  0.3504
19280TIP3    H279332   5.806   1.217  16.911  0.5258 -0.7139 -1.2441
19281TIP3   OH279333   0.692   4.608  12.448 -0.2013  0.6829  0.7074
19281TIP3    H179334   0.743   4.537  12.408 -1.0653  0.4554 -0.0268
19281TIP3    H279335   0.645   4.566  12.520 -2.1587  0.0282 -0.8535
19282TIP3   OH279336   4.356   5.788  16.219  0.0421 -0.0732  0.1038
19282TIP3    H179337   4.267   5.797  16.253  0.0484 -1.1202  0.4460
19282TIP3    H279338   4.361   5.850  16.146 -0.5635  0.8841  0.8603
19283TIP3   OH279339   1.999   3.154  11.103 -0.0056 -0.1358 -0.2249
19283TIP3    H179340   1.917   3.182  11.062 -0.0913 -1.8003 -1.2838
19283TIP3    H279341   2.050   3.235  11.112 -1.0654  0.6732 -1.1503
19284TIP3   OH279342   1.579   3.978  12.756 -0.0638  0.1057 -0.5539
19284TIP3    H179343   1.669   3.985  12.724 -0.2468  0.0591 -1.0840
19284TIP3    H279344   1.556   3.887  12.741 -0.8683  0.5460 -2.2551
19285TIP3   OH279345   6.570   1.293   3.859  0.0367 -0.0288 -0.3209
19285TIP3    H179346   6.529   1.268   3.776 -0.4063 -0.8569  0.1417
19285TIP3    H279347   6.564   1.389   3.861 -0.3415 -0.0319 -1.0365
19286TIP3   OH279348   1.026   5.472  12.597  0.0842  0.4380 -0.2645
19286TIP3    H179349   1.113   5.503  12.624  0.7637  0.1286 -1.9795
19286TIP3    H279350   1.044   5.403  12.534 -1.4356 -0.7407  0.5479
19287TIP3   OH279351   2.240   2.589  11.827 -0.1787  0.5730  0.1684
19287TIP3    H179352   2.267   2.507  11.785  1.2664 -0.4264  2.8266
19287TIP3    H279353   2.144   2.587  11.825 -0.2794 -2.5297  2.4428
19288TIP3   OH279354   6.070   0.819  12.975  0.4225  0.6172  0.6005
19288TIP3    H179355   6.107   0.776  12.898 -2.5525  0.4721 -0.8889
19288TIP3    H279356   6.049   0.746  13.034 -0.0814  0.4464  0.2166
19289TIP3   OH279357   2.911   0.727   3.100  0.1596  0.4790 -0.0495
19289TIP3    H179358   2.846   0.687   3.158 -0.8392  2.1984  0.0761
19289TIP3    H279359   2.918   0.666   3.026 -0.7561 -0.2761  0.4685
19290TIP3   OH279360   4.333   1.219  15.064  0.2019 -0.0834  0.0436
19290TIP3    H179361   4.423   1.202  15.089 -0.1740  0.0453  1.5653
19290TIP3    H279362   4.312   1.305  15.102 -0.6084 -0.1719 -0.1634
19291TIP3   OH279363   6.478   4.600   5.310 -0.2780  0.1539  0.1104
19291TIP3    H179364   6.481   4.688   5.272 -5.0645  1.0809  1.2233
19291TIP3    H279365   6.459   4.543   5.236  0.5300  0.3419 -0.2620
19292TIP3   OH279366   4.334   4.818  11.986 -1.1163 -0.2856 -0.0144
19292TIP3    H179367   4.406   4.846  12.043 -2.8022  0.5937  1.8399
19292TIP3    H279368   4.334   4.723  11.992  0.2783 -0.3281 -0.5575
19293TIP3   OH279369   5.701   5.304   3.965 -0.2969  0.2068 -0.7772
19293TIP3    H179370   5.780   5.250   3.961  0.8006  1.2614  2.7438
19293TIP3    H279371   5.629   5.241   3.968  0.6013 -0.8780 -1.1077
19294TIP3   OH279372   1.467   3.494  13.588  0.0431 -0.2102 -0.0647
19294TIP3    H179373   1.427   3.534  13.665 -2.3090 -1.8176 -0.3475
19294TIP3    H279374   1.561   3.498  13.605 -0.2690  1.8269  1.6509
19295TIP3   OH279375   3.280   4.652  11.020 -0.0098 -0.0246 -0.6455
19295TIP3    H179376   3.310   4.664  10.931 -0.4521  0.6136 -0.7142
19295TIP3    H279377   3.357   4.620  11.068  1.7154  4.2463 -0.1589
19296TIP3   OH279378   4.762   3.628   1.723  0.0007  0.1000  0.0403
19296TIP3    H179379   4.683   3.651   1.673  1.1294  1.3953 -1.2391
19296TIP3    H279380   4.820   3.589   1.658  0.0693 -1.7727  1.1780
19297TIP3   OH279381   4.093   0.074   4.984  0.3858  0.5560  0.7536
19297TIP3    H179382   4.121   0.143   5.044  1.4483 -0.1601  1.1237
19297TIP3    H279383   3.999   0.064   4.999  0.5137  0.8670  1.7941
19298TIP3   OH279384   1.676   2.890   2.064  0.2038  0.3491  0.5832
19298TIP3    H179385   1.628   2.821   2.018 -0.1699  1.1235 -0.2292
19298TIP3    H279386   1.719   2.846   2.137 -0.8128 -0.5739  0.6479
19299TIP3   OH279387   4.267   3.197   5.080 -0.0618 -0.0128  0.4895
19299TIP3    H179388   4.235   3.231   5.164  0.5754  1.5487  0.1336
19299TIP3    H279389   4.254   3.269   5.018  1.8882 -0.1541 -0.1686
19300TIP3   OH279390   5.652   3.807  14.529  0.3690  0.6659  0.2810
19300TIP3    H179391   5.672   3.868  14.600 -1.4081 -0.0897  1.4982
19300TIP3    H279392   5.707   3.730  14.547 -0.2032  0.4071  0.9660
19301TIP3   OH279393   4.360   3.328  12.633  0.4004 -0.0703 -0.2885
19301TIP3    H179394   4.347   3.234  12.632  0.1573 -0.0821  1.2056
19301TIP3    H279395   4.365   3.353  12.541 -1.6504 -1.2353 -0.7684
19302TIP3   OH279396   2.210   5.349  11.877  0.4231 -0.1877 -0.2436
19302TIP3    H179397   2.287   5.362  11.932  0.9649 -1.1522 -0.7577
19302TIP3    H279398   2.156   5.286  11.926 -0.1622  0.6449  0.2168
19303TIP3   OH279399   1.417   0.930  14.002  0.4435  0.2156 -0.2055
19303TIP3    H179400   1.508   0.962  13.998  1.0093 -1.1078  1.2308
19303TIP3    H279401   1.424   0.835  13.991 -0.6357 -0.0492  1.2134
19304TIP3   OH279402   2.434   1.081   1.909 -0.0573  0.1598  0.6412
19304TIP3    H179403   2.388   1.066   1.827  0.0097 -1.1415  0.8161
19304TIP3    H279404   2.407   1.008   1.965  0.8195  0.3678  1.3592
19305TIP3   OH279405   2.810   4.990   1.825 -0.3409 -0.2363 -0.1764
19305TIP3    H179406   2.888   4.959   1.872 -0.3025  0.7716  0.4480
19305TIP3    H279407   2.750   4.915   1.826  0.7117 -1.1319 -0.9105
19306TIP3   OH279408   0.861   2.505  12.648  0.3454 -0.1064  0.2625
19306TIP3    H179409   0.822   2.428  12.608 -1.4808  0.4185  0.9456
19306TIP3    H279410   0.855   2.573  12.581  0.3085 -0.0866  0.2855
19307TIP3   OH279411   1.447   0.845   5.557 -0.1184 -0.3647  0.0719
19307TIP3    H179412   1.410   0.926   5.524 -0.5370 -0.3258  0.6202
19307TIP3    H279413   1.475   0.865   5.646  0.2916 -0.6726  0.0198
19308TIP3   OH279414   1.956   6.223  15.648 -0.0418  0.2763  0.2950
19308TIP3    H179415   1.910   6.144  15.677  0.1677  0.2078  0.4384
19308TIP3    H279416   2.048   6.197  15.640  0.1958  0.7724  1.3367
19309TIP3   OH279417   2.545   3.217  12.372 -0.5722  0.1204  0.3859
19309TIP3    H179418   2.629   3.228  12.326 -0.6150 -0.2369  0.2141
19309TIP3    H279419   2.523   3.125  12.359 -1.4637  0.4259 -0.3830
19310TIP3   OH279420   4.342   5.953   3.041  0.1089  0.6895 -0.2608
19310TIP3    H179421   4.318   6.032   2.993  1.7685  2.4208  1.5358
19310TIP3    H279422   4.327   5.976   3.133 -2.1473 -2.1663  0.2415
19311TIP3   OH279423   2.188   0.656  10.353  0.3538 -0.0565  0.0202
19311TIP3    H179424   2.281   0.655  10.329  0.0475  0.2797 -1.2813
19311TIP3    H279425   2.143   0.651  10.269 -0.8137  0.7792  0.5813
19312TIP3   OH279426   5.414   0.892   0.089 -0.2013  0.6335 -0.1552
19312TIP3    H179427   5.344   0.839   0.129 -0.1163 -1.5418 -2.6304
19312TIP3    H279428   5.369   0.946   0.025  0.0858  1.3800  0.2649
19313TIP3   OH279429   5.802   2.476  16.345  0.0598 -0.2540  0.0391
19313TIP3    H179430   5.711   2.448  16.336 -0.3821  1.4722 -1.5010
19313TIP3    H279431   5.801   2.569  16.325  2.5191 -0.6904 -2.8895
19314TIP3   OH279432   0.436   2.337   0.943  0.3380  0.0046  0.2545
19314TIP3    H179433   0.350   2.297   0.954  0.0406  0.4903 -0.2424
19314TIP3    H279434   0.457   2.371   1.030 -0.4699  0.8421  0.1418
19315TIP3   OH279435   4.135   6.526   2.119  0.0019 -0.4072 -0.2318
19315TIP3    H179436   4.174   6.549   2.035 -0.5979 -1.2521 -0.7517
19315TIP3    H279437   4.194   6.460   2.155  2.4082  2.5196  1.8148
19316TIP3   OH279438   1.286   4.893  16.650  0.5711 -0.8088  0.0496
19316TIP3    H179439   1.352   4.855  16.592  1.8780 -0.4115  1.1959
19316TIP3    H279440   1.328   4.892  16.737 -1.0247 -0.7273  0.8617
19317TIP3   OH279441   1.122   2.988  16.014 -0.4119 -0.5075 -0.2584
19317TIP3    H179442   1.164   3.016  16.095 -1.3009 -0.2269  0.1121
19317TIP3    H279443   1.087   3.069  15.976 -0.4371 -0.7096 -0.6644
19318TIP3   OH279444   1.314   5.300   3.416 -0.2726 -0.3898 -0.7266
19318TIP3    H179445   1.354   5.299   3.329  0.2268  0.6626 -0.5212
19318TIP3    H279446   1.383   5.330   3.474 -1.2182  1.0894 -0.3033
19319TIP3   OH279447   6.158   1.689   3.841 -0.3193  0.2180  0.4431
19319TIP3    H179448   6.124   1.637   3.914 -0.5060  0.2297  0.3649
19319TIP3    H279449   6.140   1.635   3.764  3.9096 -1.9816  0.7165
19320TIP3   OH279450   4.986   4.524   3.665 -0.0105  0.0411 -0.1922
19320TIP3    H179451   5.040   4.578   3.607 -0.6855  0.6659 -0.2673
19320TIP3    H279452   4.977   4.576   3.745 -2.8223  1.3252 -1.2019
19321TIP3   OH279453   1.477   6.508   3.227  0.0420  0.2198  0.5146
19321TIP3    H179454   1.483   6.511   3.131 -1.5908  0.6665  0.3881
19321TIP3    H279455   1.419   6.581   3.249 -0.2740 -0.3908  1.7670
19322TIP3   OH279456   2.798   5.883  16.330 -0.5238  0.0874  0.7162
19322TIP3    H179457   2.887   5.880  16.367 -0.2221 -0.2586 -0.0179
19322TIP3    H279458   2.740   5.866  16.404  0.0778 -0.8340  0.9901
19323TIP3   OH279459   3.512   5.404  15.676 -1.1621  0.7014  0.1829
19323TIP3    H179460   3.581   5.344  15.704 -2.3835 -0.8651 -0.0685
19323TIP3    H279461   3.454   5.413  15.751 -0.1966  2.8556  0.7579
19324TIP3   OH279462   2.971   4.272  10.525  0.9581 -0.5886  0.6763
19324TIP3    H179463   3.004   4.195  10.571 -0.1890 -2.2790 -1.1511
19324TIP3    H279464   2.935   4.237  10.443  0.3093  1.9009 -0.1841
19325TIP3   OH279465   0.124   4.047  13.931  0.0649 -0.3307 -0.0251
19325TIP3    H179466   0.090   4.051  14.021 -1.8851  0.1735 -0.7379
19325TIP3    H279467   0.066   3.985  13.886 -0.8497  1.5639 -1.6292
19326TIP3   OH279468   1.032   4.223  14.007  1.0657 -0.3177 -0.2850
19326TIP3    H179469   0.944   4.189  13.992  0.3496  0.9541  0.7646
19326TIP3    H279470   1.066   4.240  13.919  0.0479 -0.3266 -0.6972
19327TIP3   OH279471   2.136   0.582   3.836  0.3217  0.0711 -0.0337
19327TIP3    H179472   2.048   0.612   3.860 -0.3789 -1.1006 -1.0648
19327TIP3    H279473   2.194   0.625   3.900 -1.0488  0.3753  1.0486
19328TIP3   OH279474   2.503   2.117   1.348  0.4584 -0.1033 -0.7415
19328TIP3    H179475   2.574   2.103   1.410 -1.0453  0.5931  1.2595
19328TIP3    H279476   2.452   2.036   1.352 -0.0664  0.2371 -0.4731
19329TIP3   OH279477   1.243   5.827  13.322  0.1949 -0.1980  0.9887
19329TIP3    H179478   1.305   5.882  13.273 -0.1134 -0.0421  0.7698
19329TIP3    H279479   1.293   5.796  13.398  0.6424 -0.3502  0.6353
19330TIP3   OH279480   5.599   6.429   2.420 -0.1208  0.1709 -0.4412
19330TIP3    H179481   5.541   6.362   2.456 -0.0289 -0.2534 -1.0795
19330TIP3    H279482   5.687   6.393   2.429 -0.2199 -0.8047 -2.8482
19331TIP3   OH279483   6.328   4.356  12.316  0.6723 -0.3582 -0.4223
19331TIP3    H179484   6.373   4.341  12.399  0.6478 -0.2333 -0.3870
19331TIP3    H279485   6.235   4.348  12.337  0.4942  2.2656  0.1190
19332TIP3   OH279486   3.713   4.558  14.672  0.3914  0.0303 -0.1264
19332TIP3    H179487   3.789   4.535  14.726  1.0553 -1.2215 -1.5322
19332TIP3    H279488   3.741   4.636  14.624  0.0010  0.8141  0.8877
19333TIP3   OH279489   2.409   3.620  16.057  0.8782 -0.1489 -0.5924
19333TIP3    H179490   2.490   3.652  16.096 -0.2105  0.6335  1.1494
19333TIP3    H279491   2.351   3.604  16.132 -1.0200  0.5464 -1.8402
19334TIP3   OH279492   1.070   1.107   4.914 -0.4667  0.1537  0.4569
19334TIP3    H179493   0.993   1.071   4.869  1.3696 -0.9263 -2.1094
19334TIP3    H279494   1.145   1.071   4.866  1.6444  3.4556  0.9158
19335TIP3   OH279495   6.694   3.543   1.089 -0.2325  0.1586  0.1666
19335TIP3    H179496   6.724   3.628   1.120 -0.5142  0.6543 -0.8755
19335TIP3    H279497   6.690   3.552   0.994 -1.3929 -0.6385  0.1192
19336TIP3   OH279498   3.942   2.773  16.126  0.2475  0.1750  0.3549
19336TIP3    H179499   3.887   2.705  16.088 -0.9549  1.7021 -0.7881
19336TIP3    H279500   4.008   2.791  16.060  0.8904 -0.2413  0.8766
19337TIP3   OH279501   5.303   4.739  16.735 -0.4994 -0.0417  0.6041
19337TIP3    H179502   5.349   4.671  16.687 -0.6250  0.9467 -0.9848
19337TIP3    H279503   5.222   4.753  16.685 -0.3968  1.3768  0.7823
19338TIP3   OH279504   1.943   3.238  17.114  0.2571 -0.9367  0.3462
19338TIP3    H179505   1.994   3.308  17.074  0.8253 -0.6634  1.5013
19338TIP3    H279506   1.968   3.239  17.207  0.7131 -3.0294  0.3042
19339TIP3   OH279507   1.487   2.826  11.193  0.0188 -0.0203  0.2834
19339TIP3    H179508   1.395   2.842  11.214 -0.0630 -0.5029  0.2847
19339TIP3    H279509   1.497   2.731  11.196  0.6587  0.0555  0.8794
19340TIP3   OH279510   0.332   5.812  16.697  0.3845 -0.6591  0.3555
19340TIP3    H179511   0.372   5.815  16.610  0.4503 -1.1264  0.3697
19340TIP3    H279512   0.262   5.748  16.689 -0.1503 -0.0955  0.4240
19341TIP3   OH279513   0.564   5.527  13.410 -0.1702  0.0574 -0.1566
19341TIP3    H179514   0.494   5.503  13.350 -0.1717 -1.5372  0.4194
19341TIP3    H279515   0.631   5.460  13.396  0.9161  1.1015 -0.1382
19342TIP3   OH279516   0.735   2.483  14.114  0.4378 -0.5731  0.0841
19342TIP3    H179517   0.788   2.429  14.173  0.1262 -2.2952 -1.1496
19342TIP3    H279518   0.720   2.427  14.038 -3.2597 -0.2089  0.4015
19343TIP3   OH279519   2.016   0.823  14.979 -0.2452 -0.2987 -0.0133
19343TIP3    H179520   2.013   0.827  14.884  2.1867 -1.5448 -0.2205
19343TIP3    H279521   2.036   0.732  14.999  1.8915  0.4250  1.5438
19344TIP3   OH279522   3.965   3.890  13.632 -0.1606 -0.2939  0.2241
19344TIP3    H179523   3.941   3.940  13.710  0.1173 -1.4889  1.1056
19344TIP3    H279524   4.024   3.822  13.665  1.2928  0.1715 -1.2871
19345TIP3   OH279525   3.004   5.483  16.959  0.5203  0.3596  0.3652
19345TIP3    H179526   2.933   5.545  16.942 -0.3431 -0.3415  1.3277
19345TIP3    H279527   3.072   5.506  16.895 -0.9511  0.4104 -1.2482
19346TIP3   OH279528   5.946   0.401  14.369 -0.5106 -0.3748 -0.2827
19346TIP3    H179529   5.896   0.448  14.435  0.5687  1.0911 -0.4574
19346TIP3    H279530   5.994   0.334  14.418 -1.4638 -0.8076  0.0791
19347TIP3   OH279531   0.431   0.991   2.631 -0.1889 -0.3512  0.4790
19347TIP3    H179532   0.375   1.049   2.683 -0.8588 -1.4776  1.0432
19347TIP3    H279533   0.388   0.988   2.545  0.0783  0.3047  0.3148
19348TIP3   OH279534   0.486   1.920   5.576 -0.1180  0.3580  0.3225
19348TIP3    H179535   0.415   1.960   5.526  0.8374  0.1651 -1.2696
19348TIP3    H279536   0.499   1.978   5.651 -1.6227  0.6424  0.3987
19349TIP3   OH279537   4.954   1.635  12.651 -0.2874 -0.2102 -0.3032
19349TIP3    H179538   4.956   1.627  12.556  1.7276 -0.2426 -0.2980
19349TIP3    H279539   4.964   1.729  12.667  0.6190 -0.3320 -0.1231
19350TIP3   OH279540   3.439   4.848   4.251  0.6028 -0.5787  0.5569
19350TIP3    H179541   3.382   4.872   4.178  1.1043 -0.1424  0.3013
19350TIP3    H279542   3.422   4.914   4.318  1.8821  0.4582 -0.0943
19351TIP3   OH279543   3.850   1.909  13.248 -0.2814 -0.0992  0.2912
19351TIP3    H179544   3.864   1.936  13.157  1.0636 -2.6871 -0.4043
19351TIP3    H279545   3.817   1.987  13.293  0.0558  1.5565 -2.1640
19352TIP3   OH279546   5.393   2.148  12.911 -0.5167 -0.3990  0.1718
19352TIP3    H179547   5.434   2.233  12.893 -0.0181 -0.0856  2.4632
19352TIP3    H279548   5.466   2.086  12.909 -0.9916 -0.9845 -2.3005
19353TIP3   OH279549   2.436   4.486  16.296 -0.2036  0.1084 -0.4630
19353TIP3    H179550   2.373   4.415  16.286  0.0561 -0.4368  1.3946
19353TIP3    H279551   2.406   4.553  16.236 -0.9625 -1.2145 -1.6305
19354TIP3   OH279552   0.215   1.021  13.011  0.0450  0.5618 -0.0829
19354TIP3    H179553   0.274   0.986  12.944 -0.9291  3.1728 -2.4903
19354TIP3    H279554   0.128   0.994  12.982 -0.3878  1.7111  0.1359
19355TIP3   OH279555   2.111   0.820   0.061  0.0188  0.4505  0.3099
19355TIP3    H179556   2.174   0.855   0.124 -0.8134 -0.8208  1.9692
19355TIP3    H279557   2.055   0.894   0.039  0.4855  0.9883  0.8979
19356TIP3   OH279558   6.189   5.452  12.562 -0.5931  0.2942  0.3053
19356TIP3    H179559   6.263   5.484  12.612  1.5213  0.6136 -2.7347
19356TIP3    H279560   6.146   5.531  12.529 -0.0049  0.1210 -0.9384
19357TIP3   OH279561   1.259   0.731  10.991 -0.4391  1.0631  0.5479
19357TIP3    H179562   1.313   0.669  11.041 -0.3480  1.7679  1.3454
19357TIP3    H279563   1.218   0.677  10.924  1.4900  0.5254 -0.2940
19358TIP3   OH279564   3.699   1.351   2.606 -0.0424 -0.2561 -0.6209
19358TIP3    H179565   3.723   1.294   2.534  1.5247  0.5132 -0.7423
19358TIP3    H279566   3.708   1.297   2.684 -0.2283 -0.6425 -0.8636
19359TIP3   OH279567   5.846   6.442   1.582  0.4522  0.5115  0.1251
19359TIP3    H179568   5.900   6.509   1.540  1.2634 -1.0871 -1.5452
19359TIP3    H279569   5.872   6.360   1.539 -1.2228 -0.7419  1.3577
19360TIP3   OH279570   3.429   1.330   1.706 -0.0652  0.1204 -0.0712
19360TIP3    H179571   3.397   1.314   1.617 -1.4727 -0.6802  0.5515
19360TIP3    H279572   3.351   1.357   1.754  0.6490  0.3543  0.9786
19361TIP3   OH279573   0.313   5.049  14.495 -0.8491  0.7254  0.8549
19361TIP3    H179574   0.382   5.050  14.561 -1.2251 -0.9533  1.3248
19361TIP3    H279575   0.232   5.039  14.545 -1.0503 -1.9658  0.1953
19362TIP3   OH279576   2.930   1.243   3.076 -0.3011 -0.2835 -0.6104
19362TIP3    H179577   2.848   1.288   3.055  0.1181  0.4119 -0.8070
19362TIP3    H279578   2.984   1.253   2.998  0.3084  0.0661 -0.1570
19363TIP3   OH279579   6.611   0.250  14.913  0.0932 -0.2487  0.7541
19363TIP3    H179580   6.575   0.263  15.000 -0.1647  1.9589  0.3897
19363TIP3    H279581   6.596   0.158  14.893 -0.6178 -0.5816  2.6801
19364TIP3   OH279582   3.747   1.638   3.286  0.2330 -0.3513  0.4151
19364TIP3    H179583   3.786   1.576   3.224 -1.8068 -2.1876  0.8544
19364TIP3    H279584   3.812   1.645   3.356  1.4705 -0.2105 -0.7026
19365TIP3   OH279585   4.424   1.868  12.466 -0.2412  0.0495  0.1814
19365TIP3    H179586   4.400   1.948  12.419 -1.1558 -0.2387  0.1225
19365TIP3    H279587   4.518   1.859  12.453  0.5686  2.8725  2.8959
19366TIP3   OH279588   4.807   3.084  14.071 -0.2499 -0.4060  0.0520
19366TIP3    H179589   4.740   3.015  14.073  0.1146 -0.9417 -2.4419
19366TIP3    H279590   4.762   3.160  14.033 -0.3715  0.4460  1.8203
19367TIP3   OH279591   4.519   3.564  13.827  0.2815  0.2383  0.6005
19367TIP3    H179592   4.439   3.518  13.801  0.8815  1.0089 -3.2452
19367TIP3    H279593   4.518   3.562  13.922 -3.1500 -1.7332  0.6883
19368TIP3   OH279594   1.513   1.764  15.980 -0.2560 -0.0753  0.1778
19368TIP3    H179595   1.533   1.674  16.006 -0.6980  0.2756  1.8413
19368TIP3    H279596   1.508   1.812  16.062 -1.9084  1.0757 -0.5439
19369TIP3   OH279597   4.476   0.571  13.471  0.0803  0.4538 -0.7911
19369TIP3    H179598   4.551   0.576  13.412  0.5384  1.7753 -0.1413
19369TIP3    H279599   4.473   0.657  13.513 -1.0860  0.0189  0.0669
19370TIP3   OH279600   6.351   3.649  13.832  0.3708 -0.3934  0.1713
19370TIP3    H179601   6.422   3.594  13.799  0.2913 -0.0922 -0.5250
19370TIP3    H279602   6.361   3.732  13.785  1.5498  0.8511  2.4608
19371TIP3   OH279603   2.403   2.857  16.234  0.6142 -0.3681  0.2066
19371TIP3    H179604   2.320   2.882  16.195  0.1098 -1.1101  0.7757
19371TIP3    H279605   2.390   2.868  16.329  1.9561  1.8336  0.2029
19372TIP3   OH279606   0.312   0.630  14.018  0.1047 -0.0146  0.0372
19372TIP3    H179607   0.382   0.580  14.061  0.1324  0.5475  0.6651
19372TIP3    H279608   0.324   0.612  13.924  2.0193  1.2122 -0.0035
19373TIP3   OH279609   1.907   6.432   3.939  0.5358  0.0635 -0.2473
19373TIP3    H179610   1.964   6.469   4.006  0.0806  1.9554 -0.8414
19373TIP3    H279611   1.926   6.483   3.860 -1.2519  0.1308 -0.6930
19374TIP3   OH279612   4.235   1.316  15.625  0.3900  0.1771 -0.0598
19374TIP3    H179613   4.287   1.252  15.575 -0.5698  0.0168 -0.8770
19374TIP3    H279614   4.167   1.345  15.564 -1.4611 -0.7857  1.4636
19375TIP3   OH279615   1.682   5.263   0.831  0.4373 -0.9052 -0.0364
19375TIP3    H179616   1.623   5.201   0.788  1.7175 -1.8240 -0.5163
19375TIP3    H279617   1.662   5.254   0.924 -0.7193 -0.6036 -0.2278
19376TIP3   OH279618   0.540   5.012   1.235 -0.0048 -0.5953  0.7440
19376TIP3    H179619   0.558   5.086   1.177 -1.7239 -0.3616  0.4667
19376TIP3    H279620   0.452   5.027   1.268  0.5828 -1.1921  2.7624
19377TIP3   OH279621   0.293   1.069  14.611 -0.0046 -0.2229 -0.5334
19377TIP3    H179622   0.322   1.160  14.605  1.4812 -0.5538  0.9064
19377TIP3    H279623   0.236   1.057  14.536 -0.8208  2.1072 -0.3645
19378TIP3   OH279624   1.619   0.569  15.784 -0.1628  0.5970 -0.0901
19378TIP3    H179625   1.530   0.576  15.749  0.5231 -0.3992 -2.2337
19378TIP3    H279626   1.615   0.497  15.846 -0.9898  1.0240  0.3730
19379TIP3   OH279627   0.961   0.856   0.350  0.5758 -0.0551  0.7255
19379TIP3    H179628   0.980   0.763   0.342  2.4631  0.1082  2.6473
19379TIP3    H279629   0.979   0.877   0.442 -0.0720  2.1580  0.4076
19380TIP3   OH279630   6.601   6.581  13.422 -0.8784 -0.5219 -0.6356
19380TIP3    H179631   6.650   6.626  13.491  0.0302 -0.6653 -1.1761
19380TIP3    H279632   6.616   6.634  13.344 -1.8522 -0.3974 -0.7481
19381TIP3   OH279633   3.929   2.356   5.390  0.4075  0.3830  0.7443
19381TIP3    H179634   4.006   2.388   5.344  0.9774 -0.5067  1.0672
19381TIP3    H279635   3.951   2.267   5.416 -1.1124 -0.2631 -0.0666
19382TIP3   OH279636   3.396   1.011   3.332  0.8511  0.1827 -0.5241
19382TIP3    H179637   3.385   1.087   3.389 -1.5121 -1.0486  0.7821
19382TIP3    H279638   3.336   1.026   3.259  1.0049 -0.0494 -0.7034
19383TIP3   OH279639   5.709   1.877   0.716  0.5060  0.3162 -0.4233
19383TIP3    H179640   5.735   1.798   0.669 -0.4323  0.9606 -2.0942
19383TIP3    H279641   5.724   1.856   0.808 -1.7286 -2.6132 -0.5948
19384TIP3   OH279642   1.003   6.329   3.523  0.0992 -0.3130 -0.3720
19384TIP3    H179643   1.080   6.380   3.495  1.2367 -1.5192  0.4479
19384TIP3    H279644   0.971   6.289   3.442  0.1037  0.4733 -0.7810
19385TIP3   OH279645   1.624   3.493  12.063 -0.0676  0.1246 -0.0279
19385TIP3    H179646   1.701   3.525  12.015  0.0685 -0.3236 -0.1197
19385TIP3    H279647   1.578   3.437  12.000 -0.1293 -0.1114  0.2235
19386TIP3   OH279648   5.985   4.580  13.942  0.3324  0.0251  0.3967
19386TIP3    H179649   5.939   4.496  13.950 -1.4374  0.8747 -0.4384
19386TIP3    H279650   6.007   4.586  13.849  0.5698  0.4360  0.4795
19387TIP3   OH279651   5.408   3.549   1.805  0.2470 -0.5754  0.1102
19387TIP3    H179652   5.441   3.612   1.741 -0.9575 -1.9797 -1.9736
19387TIP3    H279653   5.326   3.517   1.769 -0.3547 -1.6517  2.2372
19388TIP3   OH279654   2.325   1.171   3.010  0.4844  0.7176  0.3099
19388TIP3    H179655   2.408   1.154   3.053  0.1457  0.5362  0.9044
19388TIP3    H279656   2.285   1.242   3.060 -0.7173 -0.6901  1.4421
19389TIP3   OH279657   5.117   4.196  14.330  0.2074 -0.0542 -0.3084
19389TIP3    H179658   5.146   4.283  14.358  0.3320 -0.5663  1.2264
19389TIP3    H279659   5.140   4.192  14.237 -0.0348  1.6420 -0.4748
19390TIP3   OH279660   2.130   5.968   4.589  0.2431 -0.0859  0.0497
19390TIP3    H179661   2.076   6.029   4.640 -0.8951 -1.0613  0.0593
19390TIP3    H279662   2.215   6.011   4.582 -0.2813  1.1164  0.7714
19391TIP3   OH279663   3.442   1.162  12.263 -0.3062  0.1207  0.4137
19391TIP3    H179664   3.406   1.240  12.220  1.3527  0.4936 -0.3877
19391TIP3    H279665   3.428   1.177  12.356 -0.3765  1.1973  0.2459
19392TIP3   OH279666   3.670   4.337   4.239  0.2302 -0.3957 -0.8680
19392TIP3    H179667   3.733   4.267   4.223 -1.2714 -2.4175  1.3819
19392TIP3    H279668   3.584   4.297   4.223 -0.7378  0.5593  1.4025
19393TIP3   OH279669   1.246   2.339   5.302 -0.2396 -0.9627 -0.8569
19393TIP3    H179670   1.212   2.275   5.239  2.0020 -1.5045 -1.5931
19393TIP3    H279671   1.303   2.288   5.360 -0.0165  0.0355 -0.1683
19394TIP3   OH279672   4.910   6.513  11.549  0.0049 -0.7765  0.4612
19394TIP3    H179673   4.845   6.543  11.485 -0.7977 -0.7367  1.2761
19394TIP3    H279674   4.978   6.580  11.546 -1.0973  0.4388  1.2452
19395TIP3   OH279675   1.984   5.209   1.352 -0.7358  0.4915  0.1880
19395TIP3    H179676   1.993   5.302   1.374  0.1348  0.4471  0.0675
19395TIP3    H279677   2.049   5.195   1.283 -0.4893 -0.3279  0.5827
19396TIP3   OH279678   0.134   5.303   4.248  0.1572 -0.1651 -0.1128
19396TIP3    H179679   0.079   5.380   4.237 -1.6862 -1.4153 -0.2688
19396TIP3    H279680   0.082   5.232   4.209  0.9358 -1.8010  1.6700
19397TIP3   OH279681   1.637   0.532   6.016  0.3769 -0.1720  0.9007
19397TIP3    H179682   1.597   0.588   6.083  0.7137  2.2781 -0.7836
19397TIP3    H279683   1.614   0.575   5.933  4.6125  0.2469 -0.2926
19398TIP3   OH279684   6.314   5.553  14.367 -0.6671  0.0927  0.6106
19398TIP3    H179685   6.334   5.571  14.275 -0.3136  1.5985  0.9606
19398TIP3    H279686   6.358   5.470  14.385 -0.1983  0.1020 -0.4115
19399TIP3   OH279687   5.103   3.380   2.464  0.0252  0.5785 -0.0086
19399TIP3    H179688   5.013   3.391   2.496  0.0313  1.0154 -0.1239
19399TIP3    H279689   5.098   3.403   2.371 -0.4657 -2.9831 -0.9917
19400TIP3   OH279690   2.035   4.108  14.339  0.1004 -0.5165  0.1203
19400TIP3    H179691   2.072   4.020  14.331  0.5615 -0.3909  0.8243
19400TIP3    H279692   1.941   4.094  14.350  0.1859 -0.9217  0.3429
19401TIP3   OH279693   5.126   0.907   1.283 -0.3052  0.6055 -0.2673
19401TIP3    H179694   5.136   0.927   1.376  0.2486  0.3691 -0.2697
19401TIP3    H279695   5.187   0.966   1.238  1.2181 -0.8981 -0.2847
19402TIP3   OH279696   1.663   6.296  15.272 -0.3653  0.6533  0.5772
19402TIP3    H179697   1.597   6.364  15.286  0.5783  1.3487  1.9389
19402TIP3    H279698   1.737   6.323  15.327 -0.5230 -2.2238  2.4220
19403TIP3   OH279699   0.451   2.384   0.368 -0.2262  0.1649  0.6155
19403TIP3    H179700   0.542   2.411   0.355 -0.4378  0.2417 -0.9361
19403TIP3    H279701   0.448   2.350   0.457  1.2317  0.5150  0.8207
19404TIP3   OH279702   2.930   2.916   4.186  0.3447 -0.8243 -0.4467
19404TIP3    H179703   3.023   2.893   4.181 -0.1290 -2.6088 -2.8646
19404TIP3    H279704   2.918   2.983   4.119 -0.4014 -2.0436 -1.6050
19405TIP3   OH279705   3.659   0.793   4.130  0.3284  0.4712  0.4865
19405TIP3    H179706   3.738   0.846   4.137  0.4271  0.6871 -1.6444
19405TIP3    H279707   3.599   0.830   4.195  0.6348  2.8300 -0.4755
19406TIP3   OH279708   3.809   4.677   5.312  0.1292  0.2420  0.3900
19406TIP3    H179709   3.810   4.582   5.305 -0.9676  0.3720 -2.4308
19406TIP3    H279710   3.729   4.697   5.360 -0.8690 -0.2117 -1.0384
19407TIP3   OH279711   3.474   3.752   5.918 -0.8796  0.0145 -0.1543
19407TIP3    H179712   3.414   3.679   5.901 -0.9723 -0.2148  1.0762
19407TIP3    H279713   3.433   3.801   5.989 -0.8396  1.3150 -0.9881
19408TIP3   OH279714   5.748   0.686  11.850 -0.0552  0.4321 -0.0605
19408TIP3    H179715   5.720   0.705  11.939  1.2871  0.6301  0.3411
19408TIP3    H279716   5.700   0.607  11.826  2.5884 -2.1334  2.3842
19409TIP3   OH279717   2.884   4.369   4.221  0.2328 -0.3254  0.4629
19409TIP3    H179718   2.925   4.402   4.301 -1.1456 -1.0353  1.4972
19409TIP3    H279719   2.932   4.289   4.200  0.4116 -0.2907  0.7420
19410TIP3   OH279720   0.017   2.930  12.629 -0.1102 -0.1709 -0.4753
19410TIP3    H179721   0.089   2.992  12.620  0.1476 -0.0443  1.7768
19410TIP3    H279722   0.023   2.899  12.720 -2.8095 -0.2152 -0.2194
19411TIP3   OH279723   2.106   2.457   3.669  0.4593  0.4096 -0.1405
19411TIP3    H179724   2.114   2.399   3.745  1.9618 -1.4777 -1.6281
19411TIP3    H279725   2.077   2.540   3.706  0.6959 -0.5369  2.4321
19412TIP3   OH279726   5.051   5.125  12.540 -0.5228  0.2253 -0.3590
19412TIP3    H179727   5.053   5.215  12.572  1.3371  0.3230 -0.6731
19412TIP3    H279728   5.013   5.132  12.452 -2.9485  0.3079  0.6194
19413TIP3   OH279729   4.856   1.083   1.044  0.1340 -0.0802  0.1697
19413TIP3    H179730   4.873   1.161   1.096  1.3935  0.2504 -0.6876
19413TIP3    H279731   4.850   1.012   1.109  0.9391  0.4357  0.8292
19414TIP3   OH279732   3.178   3.921  14.702 -0.4037  0.4840 -0.4895
19414TIP3    H179733   3.097   3.970  14.689 -0.1061  2.0152  2.5517
19414TIP3    H279734   3.150   3.830  14.708 -1.3409  0.5001 -3.3415
19415TIP3   OH279735   1.819   1.496  17.074  0.7190 -0.0335  0.1113
19415TIP3    H179736   1.738   1.500  17.022  1.2579  0.7661 -0.6922
19415TIP3    H279737   1.866   1.576  17.052  1.6405 -0.3818  0.7403
19416TIP3   OH279738   4.723   5.527   4.684 -0.1017 -0.0207 -0.0303
19416TIP3    H179739   4.793   5.561   4.739  1.6641 -3.3697  0.0304
19416TIP3    H279740   4.671   5.472   4.742  0.3323 -1.6363 -1.0959
19417TIP3   OH279741   3.447   5.148   4.576  0.4234 -0.1350 -0.1061
19417TIP3    H179742   3.392   5.190   4.642  1.8343 -0.2931  1.2418
19417TIP3    H279743   3.536   5.154   4.613  0.9651 -2.2015 -0.9678
19418TIP3   OH279744   3.096   0.444   0.683  0.0563 -0.6205  0.4535
19418TIP3    H179745   3.031   0.430   0.752  0.0568  0.5678  0.7151
19418TIP3    H279746   3.133   0.530   0.702  3.4799 -2.2088  1.7119
19419TIP3   OH279747   1.073   3.497   4.949  0.2650  0.3625  0.2442
19419TIP3    H179748   1.158   3.451   4.946 -0.3031 -0.8290  1.6701
19419TIP3    H279749   1.096   3.589   4.943  1.7726  0.1266  1.8034
19420TIP3   OH279750   6.408   3.829   1.854 -0.2495  0.3056 -0.3200
19420TIP3    H179751   6.480   3.865   1.802  0.9737 -0.8032  0.5474
19420TIP3    H279752   6.447   3.757   1.903 -1.6051  0.6241  1.3283
19421TIP3   OH279753   4.544   0.848  12.649 -0.1716 -0.4981 -0.1548
19421TIP3    H179754   4.629   0.829  12.688 -0.4292  0.4022  0.8699
19421TIP3    H279755   4.480   0.805  12.707 -0.4301 -1.4848 -1.1135
19422TIP3   OH279756   3.234   4.538  14.492 -0.2374  0.0293 -0.1724
19422TIP3    H179757   3.273   4.477  14.430  1.3027  1.1099 -0.3256
19422TIP3    H279758   3.262   4.507  14.578 -0.4704 -0.1513 -0.1583
19423TIP3   OH279759   2.406   6.423  12.151 -0.6422 -0.1265 -0.1607
19423TIP3    H179760   2.353   6.391  12.224 -1.5826 -0.2810 -0.9029
19423TIP3    H279761   2.459   6.493  12.189  0.6930 -1.8073  1.2574
19424TIP3   OH279762   3.461   5.476  16.355  0.4191  0.2343 -0.1678
19424TIP3    H179763   3.485   5.393  16.314  1.0761  0.5803 -0.4895
19424TIP3    H279764   3.366   5.468  16.369  0.8582 -1.6627  2.3294
19425TIP3   OH279765   3.705   3.011   3.655 -0.7558  0.1082  0.5270
19425TIP3    H179766   3.664   2.989   3.572  1.9955  0.7724 -1.1606
19425TIP3    H279767   3.742   2.928   3.686  0.4255  0.3027 -0.2968
19426TIP3   OH279768   2.378   0.264  11.911  0.1737 -0.5534  0.2056
19426TIP3    H179769   2.431   0.186  11.895 -0.4134 -1.1050  0.8901
19426TIP3    H279770   2.442   0.335  11.918  0.7003 -0.9366 -0.6017
19427TIP3   OH279771   1.544   4.536   1.256 -0.1165  0.2017 -0.0942
19427TIP3    H179772   1.466   4.543   1.311 -0.5847  0.7149 -0.7948
19427TIP3    H279773   1.530   4.456   1.204 -0.2618  0.3830 -0.3377
19428TIP3   OH279774   5.605   2.991  15.706 -0.5521  0.2697 -0.5013
19428TIP3    H179775   5.661   3.061  15.671  0.0912 -0.5429 -1.1174
19428TIP3    H279776   5.594   3.014  15.798  0.6793  0.5257 -0.3975
19429TIP3   OH279777   4.940   5.717  11.895 -0.6941  0.3059  0.5755
19429TIP3    H179778   4.979   5.804  11.899  1.0288 -0.4555  1.6214
19429TIP3    H279779   4.863   5.727  11.839  0.2229  2.1973 -0.4218
19430TIP3   OH279780   6.476   6.471  11.706  0.0964 -1.1149  0.4538
19430TIP3    H179781   6.500   6.559  11.733 -1.2509 -0.3898 -0.6120
19430TIP3    H279782   6.539   6.448  11.638 -0.0050 -0.6726  0.2099
19431TIP3   OH279783   3.230   2.761   3.721 -0.4005 -0.3232  0.5528
19431TIP3    H179784   3.301   2.697   3.730  0.0535 -0.1517 -1.4550
19431TIP3    H279785   3.272   2.846   3.731 -0.3130 -0.2232 -0.5626
19432TIP3   OH279786   3.603   3.267  12.115  0.1184 -0.0453 -0.2327
19432TIP3    H179787   3.696   3.291  12.108  0.2021 -0.0186  0.8295
19432TIP3    H279788   3.589   3.207  12.042  1.7513 -2.3994  1.2070
19433TIP3   OH279789   1.451   6.763  12.504 -0.0469 -0.0874  0.5878
19433TIP3    H179790   1.477   6.808  12.584 -3.0880 -0.7000  2.0806
19433TIP3    H279791   1.509   6.687  12.499 -0.8527 -0.9902  3.2647
19434TIP3   OH279792   3.591   3.507  12.800 -0.5210  0.1568 -0.6851
19434TIP3    H179793   3.564   3.598  12.799  0.7487  0.5542 -0.3560
19434TIP3    H279794   3.590   3.481  12.892  0.6803  0.3521 -0.5919
19435TIP3   OH279795   1.774   0.379  15.144 -0.0430 -0.2290  0.2692
19435TIP3    H179796   1.824   0.323  15.085  0.6458  0.4726  0.1701
19435TIP3    H279797   1.836   0.403  15.213 -0.5780 -0.2973  0.7809
19436TIP3   OH279798   1.787   3.978  16.261  0.4557  0.4842 -0.4805
19436TIP3    H179799   1.864   3.926  16.284  1.3213  1.2324 -1.5419
19436TIP3    H279800   1.821   4.067  16.251 -0.4991  0.7808 -1.2571
19437TIP3   OH279801   4.489   5.050   4.249 -0.2953  0.2205  0.4132
19437TIP3    H179802   4.417   5.006   4.294 -0.0799 -1.0081 -0.4203
19437TIP3    H279803   4.494   5.008   4.163 -0.2103  2.0148 -0.5033
19438TIP3   OH279804   0.830   0.196   5.547  0.3126  0.2129 -0.3471
19438TIP3    H179805   0.870   0.276   5.582  1.4614 -0.4534 -0.0590
19438TIP3    H279806   0.746   0.189   5.593  0.8309  0.5135  0.6931
19439TIP3   OH279807   4.354   1.735  11.658  0.0084  0.3358 -0.2758
19439TIP3    H179808   4.324   1.677  11.587 -0.0669  3.6814 -3.2645
19439TIP3    H279809   4.441   1.764  11.630 -0.4474  2.5438  0.3967
19440TIP3   OH279810   0.698   3.901   5.631 -0.2021 -0.1159 -0.3624
19440TIP3    H179811   0.731   3.974   5.579 -1.7597 -0.1045 -1.4169
19440TIP3    H279812   0.661   3.942   5.709  1.2085 -0.0379  0.2913
19441TIP3   OH279813   2.927   2.092  11.962 -0.1160 -0.2944 -0.5760
19441TIP3    H179814   2.881   2.151  12.022 -1.0380  0.0898 -1.6226
19441TIP3    H279815   2.909   2.004  11.995 -0.7722 -0.0968 -0.3975
19442TIP3   OH279816   3.570   6.577  14.619 -0.0328 -0.0950  0.2800
19442TIP3    H179817   3.630   6.519  14.572 -0.9967 -1.0892  0.2430
19442TIP3    H279818   3.615   6.662  14.619  1.7445 -0.9841  0.9763
19443TIP3   OH279819   2.091   5.810  13.592  0.1026  0.3057  0.0356
19443TIP3    H179820   2.036   5.889  13.591  2.0976  1.7898  0.6900
19443TIP3    H279821   2.073   5.770  13.677  2.1664  2.5001  1.6594
19444TIP3   OH279822   2.391   6.453   1.143 -0.2237 -0.2581  0.1752
19444TIP3    H179823   2.418   6.377   1.091 -0.4240 -0.6020  0.5607
19444TIP3    H279824   2.434   6.527   1.102  0.5144 -0.6694  0.1875
19445TIP3   OH279825   5.497   1.326   4.357  0.0711 -0.0283 -0.4390
19445TIP3    H179826   5.581   1.282   4.371  0.4725  0.8431 -0.0379
19445TIP3    H279827   5.454   1.324   4.443  0.9485  2.0632  0.1242
19446TIP3   OH279828   6.637   5.183   5.055  0.1024 -0.0435 -0.0457
19446TIP3    H179829   6.596   5.236   5.125 -0.3085 -0.8608  0.3468
19446TIP3    H279830   6.573   5.184   4.984  0.0475 -0.0975  0.0025
19447TIP3   OH279831   3.520   3.656   1.982 -0.0575  0.1827  0.2890
19447TIP3    H179832   3.496   3.635   2.072 -1.8368 -1.1302 -0.4261
19447TIP3    H279833   3.587   3.724   1.990 -1.2290  1.1780  2.5754
19448TIP3   OH279834   1.571   2.653   0.424 -0.5667  0.6524  0.0622
19448TIP3    H179835   1.643   2.649   0.361 -1.0609  3.0312 -0.7487
19448TIP3    H279836   1.528   2.568   0.417 -0.0712  0.5332 -2.2019
19449TIP3   OH279837   4.923   1.147   1.823 -0.0770 -0.0069  0.0913
19449TIP3    H179838   4.873   1.097   1.888  2.0225 -1.4031  0.7461
19449TIP3    H279839   4.899   1.107   1.739  1.3915 -2.1061  0.5882
19450TIP3   OH279840   4.711   4.574   4.875  0.4474  1.0065  0.2027
19450TIP3    H179841   4.668   4.653   4.908  0.2382  0.6577  0.8011
19450TIP3    H279842   4.678   4.563   4.786 -1.4202  0.2757  0.9222
19451TIP3   OH279843   6.574   3.021  16.318 -0.4378  0.6282  0.1813
19451TIP3    H179844   6.618   3.052  16.396 -0.8009  2.8806 -0.4521
19451TIP3    H279845   6.624   3.058  16.245 -1.3676  0.3979 -0.6093
19452TIP3   OH279846   1.943   6.192  13.044 -0.5073 -0.3215  0.2937
19452TIP3    H179847   1.912   6.133  13.112 -1.2930 -0.5942 -0.2874
19452TIP3    H279848   1.953   6.136  12.966 -0.9291  0.2413 -0.1718
19453TIP3   OH279849   3.009   0.862  16.583  0.2127  0.1962  0.5085
19453TIP3    H179850   2.972   0.943  16.619  0.2439  0.6306 -0.4076
19453TIP3    H279851   3.040   0.886  16.496 -1.6600 -1.2380 -0.6623
19454TIP3   OH279852   2.139   4.899  16.249  0.0008  0.2423 -0.1686
19454TIP3    H179853   2.115   4.981  16.292  0.0238  0.3647 -0.3870
19454TIP3    H279854   2.206   4.861  16.305 -0.8179 -0.1888  0.5383
19455TIP3   OH279855   4.250   6.501   1.829  0.3470  0.5728 -0.2282
19455TIP3    H179856   4.295   6.580   1.798  0.0543  0.1087 -1.9817
19455TIP3    H279857   4.303   6.428   1.796  0.3799  0.0135  1.0049
19456TIP3   OH279858   3.623   5.080  16.576 -0.0287 -0.0528 -0.1756
19456TIP3    H179859   3.594   5.167  16.605  0.1322  0.3875 -1.2886
19456TIP3    H279860   3.569   5.019  16.627 -0.3901  0.7026  0.3706
19457TIP3   OH279861   1.774   3.325  11.796  0.1045 -1.0096 -0.3536
19457TIP3    H179862   1.811   3.273  11.867 -1.4033 -1.1507  0.3508
19457TIP3    H279863   1.682   3.300  11.792 -0.0630 -0.3177 -1.7512
19458TIP3   OH279864   6.162   3.091  17.230 -0.2428 -0.5128  0.0518
19458TIP3    H179865   6.173   3.042  17.149  0.2826  0.7894 -0.7025
19458TIP3    H279866   6.128   3.027  17.293 -0.6937 -1.5415 -1.1953
19459TIP3   OH279867   4.743   0.769   1.474  0.2341  0.3660  0.3726
19459TIP3    H179868   4.782   0.785   1.388  0.4307  1.6379  0.6785
19459TIP3    H279869   4.672   0.707   1.457  2.3291 -2.0143 -0.1987
19460TIP3   OH279870   1.570   0.494   5.045  0.0459  0.1465  0.1855
19460TIP3    H179871   1.603   0.426   4.987 -2.3374 -0.7389 -0.2624
19460TIP3    H279872   1.638   0.506   5.111  2.4408  0.5154 -2.2054
19461TIP3   OH279873   2.872   3.540   1.611  0.1984 -0.6335 -0.5255
19461TIP3    H179874   2.946   3.509   1.560  1.2265  0.8311  0.0247
19461TIP3    H279875   2.865   3.477   1.683  0.9435 -0.7623 -0.5549
19462TIP3   OH279876   1.050   3.388  14.536  0.0412 -0.2142  0.3351
19462TIP3    H179877   1.055   3.295  14.511 -0.4388 -0.4461  1.0575
19462TIP3    H279878   1.046   3.435  14.453  1.1371 -0.7846 -0.0603
19463TIP3   OH279879   3.699   4.344   0.528  0.5752  0.4962 -0.6100
19463TIP3    H179880   3.766   4.278   0.514  1.6925  1.4234  0.0820
19463TIP3    H279881   3.737   4.402   0.595 -0.5507  1.5489 -0.8430
19464TIP3   OH279882   4.308   5.700   2.627  0.3972 -0.2139  0.6664
19464TIP3    H179883   4.303   5.781   2.577  0.5030  0.2038  1.3187
19464TIP3    H279884   4.357   5.640   2.571 -0.9381 -0.3072 -0.4382
19465TIP3   OH279885   5.256   6.464  15.200  0.1484  0.1654 -0.2522
19465TIP3    H179886   5.237   6.532  15.136  0.4620  0.4339 -0.0657
19465TIP3    H279887   5.351   6.467  15.211  0.0524  0.4423  0.5738
19466TIP3   OH279888   4.697   0.186  11.502  0.5035  0.1943 -0.6134
19466TIP3    H179889   4.741   0.167  11.419  1.3862  0.6678 -0.2614
19466TIP3    H279890   4.767   0.208  11.562  0.2211 -3.3184  1.2225
19467TIP3   OH279891   1.936   5.685   1.146  0.1746 -0.4795 -0.6392
19467TIP3    H179892   1.998   5.739   1.095 -0.1047  0.9863  0.5066
19467TIP3    H279893   1.855   5.736   1.146  0.1440 -0.4750  1.1708
19468TIP3   OH279894   6.712   5.815  15.629  0.1368 -0.5082  0.0212
19468TIP3    H179895   6.707   5.910  15.622 -1.2339 -0.6177 -0.8695
19468TIP3    H279896   6.806   5.796  15.635  0.3816  1.0033  2.3289
19469TIP3   OH279897   1.626   6.756  15.527 -0.3842  0.0159 -0.2148
19469TIP3    H179898   1.536   6.786  15.531  0.3042  2.1179  0.8793
19469TIP3    H279899   1.678   6.836  15.516  1.3682 -1.1030 -0.4907
19470TIP3   OH279900   5.965   1.174   4.860  0.2558 -0.1605 -0.0565
19470TIP3    H179901   5.939   1.164   4.952 -0.4209 -0.4876 -0.2767
19470TIP3    H279902   5.888   1.213   4.818  0.4279 -0.3587 -0.5599
19471TIP3   OH279903   5.929   4.349   2.905 -0.3297  0.0974 -0.0516
19471TIP3    H179904   5.870   4.320   2.975 -1.7946 -0.2869 -1.4048
19471TIP3    H279905   5.890   4.430   2.873  0.6161  0.5442 -0.1037
19472TIP3   OH279906   2.789   2.677   1.923 -0.0808  0.5411  0.4133
19472TIP3    H179907   2.777   2.743   1.854  1.8551 -1.3770 -1.9635
19472TIP3    H279908   2.846   2.719   1.987  3.0304  0.6759 -2.1544
19473TIP3   OH279909   6.511   3.419  14.766  0.6741  0.4590  0.0354
19473TIP3    H179910   6.476   3.332  14.781  1.1081  0.3506  0.4442
19473TIP3    H279911   6.585   3.405  14.706  0.3989  0.6153 -0.3474
19474TIP3   OH279912   4.996   6.815  16.620 -0.4187  0.4020  0.1448
19474TIP3    H179913   5.071   6.809  16.680 -1.0445 -1.0357  0.8267
19474TIP3    H279914   4.927   6.855  16.673 -0.8429 -0.4736  0.2660
19475TIP3   OH279915   0.790   4.464  10.928  0.2359 -0.1688  0.0054
19475TIP3    H179916   0.817   4.547  10.967 -0.8431  0.0280  0.3658
19475TIP3    H279917   0.843   4.398  10.973 -0.2929  0.1454  1.1410
19476TIP3   OH279918   3.782   2.530  14.000  0.0445 -0.5570 -0.4501
19476TIP3    H179919   3.745   2.535  14.088  0.8641  1.3074 -0.1627
19476TIP3    H279920   3.713   2.564  13.943  0.8845  2.1709 -0.0006
19477TIP3   OH279921   3.872   4.779   5.064  0.6032 -0.5434  0.6721
19477TIP3    H179922   3.854   4.697   5.020  1.2556 -0.1808 -0.2940
19477TIP3    H279923   3.839   4.766   5.153  0.1374 -1.6174  0.3575
19478TIP3   OH279924   4.531   5.071   1.431  0.1169  0.0620 -0.2233
19478TIP3    H179925   4.587   5.090   1.507  0.4525  1.3488 -0.7759
19478TIP3    H279926   4.588   5.083   1.356 -0.6050  0.2322 -0.7489
19479TIP3   OH279927   4.149   6.752   4.440  0.2549  0.1536  0.1685
19479TIP3    H179928   4.182   6.677   4.489  0.2086 -0.6704 -0.9927
19479TIP3    H279929   4.055   6.754   4.460  0.3264  0.1484  0.5096
19480TIP3   OH279930   4.413   0.788   0.120 -0.6934 -0.1228  0.3306
19480TIP3    H179931   4.387   0.714   0.065 -1.6835 -0.4695  1.2210
19480TIP3    H279932   4.341   0.850   0.111  0.2898  0.9218 -0.6848
19481TIP3   OH279933   3.722   1.176   2.406  0.2956  0.3303 -0.2312
19481TIP3    H179934   3.762   1.106   2.456  0.0544  0.0107 -0.4780
19481TIP3    H279935   3.663   1.132   2.345 -1.6715  0.8604  1.2086
19482TIP3   OH279936   1.004   2.927   4.006 -0.5875  0.3882 -0.0481
19482TIP3    H179937   0.982   3.011   3.966  0.6764  0.3878 -0.7876
19482TIP3    H279938   0.940   2.865   3.969  0.0714  0.5366 -1.5129
19483TIP3   OH279939   0.644   0.853   4.127 -0.8358 -0.4458  0.6987
19483TIP3    H179940   0.566   0.809   4.093 -0.4683 -0.1567 -0.5726
19483TIP3    H279941   0.641   0.940   4.086  0.2675 -0.5097  0.4703
19484TIP3   OH279942   2.559   2.774   3.467  0.0663  0.3851  0.1020
19484TIP3    H179943   2.577   2.794   3.559  0.4622 -0.9866  0.3461
19484TIP3    H279944   2.466   2.750   3.465 -0.1733  1.2808 -0.0309
19485TIP3   OH279945   2.643   6.359  12.353  0.2081  0.0166 -0.2017
19485TIP3    H179946   2.596   6.279  12.376  0.0705  0.5115  1.3835
19485TIP3    H279947   2.690   6.337  12.272 -1.0514 -1.1515 -0.6621
19486TIP3   OH279948   3.206   5.007  13.360 -0.3274 -0.2429  0.1766
19486TIP3    H179949   3.289   4.982  13.401  0.3546 -0.5415 -1.3442
19486TIP3    H279950   3.225   5.087  13.311  0.2189 -2.4631 -3.5814
19487TIP3   OH279951   0.801   2.944  12.466  0.8318 -0.2402  0.2201
19487TIP3    H179952   0.878   2.962  12.520  1.8085  0.7244 -1.4099
19487TIP3    H279953   0.789   2.849  12.473  1.1487 -0.1963  1.7870
19488TIP3   OH279954   0.054   0.026  16.010  0.4066 -0.1269  0.4515
19488TIP3    H179955   0.025  -0.055  15.970  0.1063 -0.2104  0.8379
19488TIP3    H279956   0.118  -0.001  16.076 -0.0371 -0.0921  0.9033
19489TIP3   OH279957   1.321   4.540  15.837  0.0050  0.3226  0.3072
19489TIP3    H179958   1.394   4.479  15.826 -0.6599 -0.6690  1.2046
19489TIP3    H279959   1.245   4.484  15.855 -0.7492  1.3917  0.5782
19490TIP3   OH279960   2.686   3.738  16.872 -0.4727  0.0827 -0.8664
19490TIP3    H179961   2.735   3.701  16.945  0.6914  0.5596 -1.3801
19490TIP3    H279962   2.617   3.674  16.854  0.3296 -0.8986 -0.5197
19491TIP3   OH279963   2.040   0.064  16.089  0.3390 -0.4038  0.2186
19491TIP3    H179964   2.074   0.070  16.178  2.8111 -0.7061 -0.6235
19491TIP3    H279965   2.046   0.153  16.055 -1.9259  0.0081  0.7191
19492TIP3   OH279966   0.389   6.082   5.523  0.0723  0.6189 -0.3434
19492TIP3    H179967   0.459   6.127   5.475  0.7252  0.5057  0.4858
19492TIP3    H279968   0.404   6.104   5.614  0.0571 -0.7944  0.0208
19493TIP3   OH279969   4.791   0.170  13.746  0.4773  0.1461 -0.1007
19493TIP3    H179970   4.713   0.225  13.741 -0.9260 -1.5608  1.5765
19493TIP3    H279971   4.825   0.168  13.657 -1.2213  1.1789 -0.8134
19494TIP3   OH279972   2.861   2.239   2.708 -0.5345 -0.0068  0.6956
19494TIP3    H179973   2.787   2.261   2.764 -1.9635  0.3063 -1.1914
19494TIP3    H279974   2.878   2.147   2.725 -1.9487 -0.3162  0.5526
19495TIP3   OH279975   6.319   3.412   2.276  0.2010 -0.1658 -0.4164
19495TIP3    H179976   6.380   3.350   2.316 -0.0793  0.0977  0.4435
19495TIP3    H279977   6.366   3.496   2.278 -0.3438  0.1228  0.6414
19496TIP3   OH279978   2.784   3.860  12.346 -0.2664 -0.0431  0.0904
19496TIP3    H179979   2.760   3.846  12.255  0.1196 -0.0161 -0.0167
19496TIP3    H279980   2.719   3.921  12.379  0.0598  0.5808 -0.3961
19497TIP3   OH279981   2.896   1.495  12.699 -0.4691 -0.2420  0.2150
19497TIP3    H179982   2.954   1.435  12.652 -0.2789 -0.2814  0.4972
19497TIP3    H279983   2.862   1.444  12.772 -2.3626 -0.8165 -0.9930
19498TIP3   OH279984   0.277   4.546  12.147 -0.3929 -0.3046 -0.0536
19498TIP3    H179985   0.281   4.604  12.072 -0.2901  0.6429  0.6685
19498TIP3    H279986   0.183   4.529  12.159 -0.3780 -0.8992 -0.7118
19499TIP3   OH279987   3.325   3.900   2.096 -0.3781 -0.0044  0.0643
19499TIP3    H179988   3.338   3.930   2.186  0.6775 -1.2942  0.3817
19499TIP3    H279989   3.235   3.867   2.093  0.4762 -2.8217  1.5934
19500TIP3   OH279990   3.592   0.139   6.537 -0.3264 -0.4385 -0.0004
19500TIP3    H179991   3.543   0.112   6.460 -1.4356 -1.5650  1.0538
19500TIP3    H279992   3.679   0.161   6.504 -1.0513  0.0216 -1.6779
19501TIP3   OH279993   0.007   5.675   0.466  0.0525 -0.7080 -0.4685
19501TIP3    H179994  -0.057   5.627   0.518  0.4338  0.3791  1.0644
19501TIP3    H279995   0.092   5.642   0.495  0.2932  0.3795  0.1159
19502TIP3   OH279996   4.292   1.028  12.935 -0.0061  0.3829 -0.0027
19502TIP3    H179997   4.344   1.059  12.861  2.6439 -1.1133  1.1089
19502TIP3    H279998   4.210   0.997  12.895 -0.3303  3.1339 -1.7732
19503TIP3   OH279999   1.222   4.570   2.879 -0.1679 -0.1954  0.5538
19503TIP3    H180000   1.236   4.480   2.909  0.6506 -0.0597  0.6038
19503TIP3    H280001   1.166   4.561   2.802  0.5606 -0.8181  0.0787
19504TIP3   OH280002   6.187   2.262  13.485 -0.1559 -0.0039 -0.8245
19504TIP3    H180003   6.270   2.239  13.444  0.3449 -0.1669  0.2388
19504TIP3    H280004   6.176   2.196  13.554 -1.5400 -0.4432 -1.4196
19505TIP3   OH280005   4.516   4.555   6.091  0.5065 -0.3676  0.0974
19505TIP3    H180006   4.506   4.641   6.133 -0.4682 -0.4736  0.1230
19505TIP3    H280007   4.433   4.510   6.109  0.0524 -0.4353 -1.8760
19506TIP3   OH280008   6.535   1.412  16.201  0.4176  0.4978  0.3744
19506TIP3    H180009   6.443   1.399  16.222 -0.1809 -2.0906 -3.0017
19506TIP3    H280010   6.537   1.492  16.147  0.3499  1.1190  1.2749
19507TIP3   OH280011   6.644   1.835   4.684  0.6511  0.3045 -0.2686
19507TIP3    H180012   6.571   1.802   4.631 -0.0039 -0.4791  1.0622
19507TIP3    H280013   6.716   1.774   4.667 -0.1009 -1.0069  1.0498
19508TIP3   OH280014   5.926   4.134  13.173 -0.1348  0.6998  0.2452
19508TIP3    H180015   5.868   4.198  13.214 -0.9727  1.6303 -2.1807
19508TIP3    H280016   5.866   4.068  13.136  0.6733 -1.0752  1.9468
19509TIP3   OH280017   2.544   0.459  11.995 -0.1471 -0.7844 -0.1543
19509TIP3    H180018   2.525   0.528  12.059 -0.8798 -0.8611 -0.2761
19509TIP3    H280019   2.632   0.478  11.964 -1.6729  2.5917 -3.2392
19510TIP3   OH280020   5.989   2.206   3.829  0.0536 -0.4267 -0.2641
19510TIP3    H180021   5.983   2.256   3.747  0.6645  1.5649  0.8356
19510TIP3    H280022   5.918   2.143   3.824 -2.5112  2.2700 -0.6571
19511TIP3   OH280023   3.590   1.719  12.543  0.0227 -0.4396  0.1666
19511TIP3    H180024   3.534   1.773  12.487  0.8604 -0.5571 -0.8292
19511TIP3    H280025   3.636   1.782  12.599  0.7814 -0.1180 -0.7881
19512TIP3   OH280026   1.869   2.842   3.524  0.3676  0.2994 -0.2735
19512TIP3    H180027   1.789   2.872   3.567  0.0802 -1.0208  0.1532
19512TIP3    H280028   1.877   2.897   3.446 -0.0987  1.4889  0.5002
19513TIP3   OH280029   3.665   2.202  15.828 -0.0437 -0.2500  0.3476
19513TIP3    H180030   3.689   2.154  15.907  1.7982 -1.0837 -0.6542
19513TIP3    H280031   3.581   2.165  15.801  1.0913 -2.6910 -0.1397
19514TIP3   OH280032   4.646   4.474  13.612 -0.3142  0.3298 -0.2833
19514TIP3    H180033   4.557   4.494  13.641 -0.8244 -0.0724 -1.5337
19514TIP3    H280034   4.688   4.438  13.690 -1.4582 -0.1330  0.1399
19515TIP3   OH280035   0.907   3.882   1.762  0.6781 -0.4245 -0.5002
19515TIP3    H180036   0.997   3.915   1.769  0.7326 -0.7300  0.4518
19515TIP3    H280037   0.870   3.897   1.849  0.0677 -1.0288 -0.6489
19516TIP3   OH280038   3.645   6.368   0.405  0.0003 -0.0522  0.3502
19516TIP3    H180039   3.603   6.354   0.320  0.4845 -0.4405  0.1742
19516TIP3    H280040   3.640   6.284   0.449  0.9711 -0.2211  0.1569
19517TIP3   OH280041   4.344   0.809  11.747 -0.5267 -0.2979 -0.1111
19517TIP3    H180042   4.281   0.875  11.778  3.0301  2.2985  2.4861
19517TIP3    H280043   4.423   0.859  11.728  2.0869 -3.7002  0.8139
19518TIP3   OH280044   5.343   2.864  15.262 -0.4115  0.0798 -0.5336
19518TIP3    H180045   5.286   2.905  15.326 -1.3859  0.0963 -1.3909
19518TIP3    H280046   5.362   2.933  15.198  0.3715  0.0039 -0.3996
19519TIP3   OH280047   5.672   2.056   3.385 -0.5339  0.1470  0.2651
19519TIP3    H180048   5.666   2.140   3.340 -2.5714 -0.1364 -0.1119
19519TIP3    H280049   5.611   2.064   3.459  0.4170 -0.4778  1.1610
19520TIP3   OH280050   6.393   3.745  11.925 -0.2699  0.6144 -0.1825
19520TIP3    H180051   6.331   3.721  11.993  2.2862 -2.0080  1.5052
19520TIP3    H280052   6.339   3.763  11.848 -3.1791  1.6615  1.9228
19521TIP3   OH280053   4.182   5.749  13.437 -0.2345 -0.1596  0.0429
19521TIP3    H180054   4.225   5.796  13.367  1.1446  0.3603  1.1947
19521TIP3    H280055   4.118   5.693  13.393  0.7257  0.0035 -1.6188
19522TIP3   OH280056   4.753   3.840   5.589 -0.1193  0.2689 -0.0209
19522TIP3    H180057   4.779   3.765   5.644  0.9591 -0.3327 -1.3041
19522TIP3    H280058   4.740   3.911   5.652  0.7096 -0.4903  1.0661
19523TIP3   OH280059   0.149   2.985  14.188  0.2851 -0.0831  0.3859
19523TIP3    H180060   0.177   2.896  14.211 -0.4599 -0.1971  0.9198
19523TIP3    H280061   0.068   2.972  14.138  0.5901  0.2682 -0.2010
19524TIP3   OH280062   2.219   4.421   2.951  0.3220 -0.8577  0.7076
19524TIP3    H180063   2.150   4.436   2.886  1.0486 -1.3928 -0.2247
19524TIP3    H280064   2.276   4.356   2.909  2.9405  1.5404  0.2479
19525TIP3   OH280065   4.030   3.259  13.693  0.6787 -0.1165 -0.1931
19525TIP3    H180066   4.033   3.350  13.724  0.8205  0.0452 -0.6731
19525TIP3    H280067   3.972   3.261  13.617  0.9292 -0.3691 -0.3921
19526TIP3   OH280068   3.435   3.432  11.025  0.4229  0.2444  0.2688
19526TIP3    H180069   3.352   3.461  10.987  0.9077  0.8936 -0.3289
19526TIP3    H280070   3.424   3.443  11.119 -0.1429  0.4008  0.1877
19527TIP3   OH280071   2.713   2.586  15.292 -0.0997  0.2345  0.0584
19527TIP3    H180072   2.687   2.554  15.206 -1.8205  0.1775  0.5592
19527TIP3    H280073   2.737   2.678  15.277  1.9611 -0.4036 -0.8611
19528TIP3   OH280074   1.024   2.017  11.280  0.2212 -0.0841  0.0033
19528TIP3    H180075   1.055   1.977  11.198  0.0536  0.9648 -0.5914
19528TIP3    H280076   1.084   2.090  11.295 -0.6798  0.6805 -0.0326
19529TIP3   OH280077   2.295   4.451   0.092  0.2969  0.5051 -0.1114
19529TIP3    H180078   2.255   4.533   0.062  1.8315  0.9211 -1.1441
19529TIP3    H280079   2.351   4.478   0.165 -0.5809  0.0749  0.7318
19530TIP3   OH280080   4.017   1.623   0.915 -0.4585 -0.0837 -0.4119
19530TIP3    H180081   4.112   1.636   0.910 -0.2062 -1.4036  0.3553
19530TIP3    H280082   4.001   1.543   0.865 -0.5568 -2.1604  2.6113
19531TIP3   OH280083   4.554   3.671   5.975 -0.0490 -0.0113  0.2296
19531TIP3    H180084   4.615   3.695   6.044  0.3231  0.2591 -0.1858
19531TIP3    H280085   4.518   3.587   6.002  1.7269 -0.9868 -0.3120
19532TIP3   OH280086   2.105   2.307   1.196  0.1627 -0.1859  0.6069
19532TIP3    H180087   2.153   2.387   1.172 -1.6619  0.5466 -0.8034
19532TIP3    H280088   2.157   2.269   1.267  1.4848  1.8611  0.8298
19533TIP3   OH280089   6.456   1.295   2.780 -0.3089  0.4749 -0.8251
19533TIP3    H180090   6.369   1.259   2.792  0.9734 -2.7843 -0.3836
19533TIP3    H280091   6.457   1.374   2.835 -2.1714 -0.8830  1.3440
19534TIP3   OH280092   5.659   6.809  12.346  0.2316  0.4772 -0.2091
19534TIP3    H180093   5.610   6.825  12.265  1.2853 -0.5550 -1.0801
19534TIP3    H280094   5.747   6.840  12.327  0.4044  0.5447  0.6765
19535TIP3   OH280095   4.245   5.353  15.769 -0.0384  0.4738  0.1846
19535TIP3    H180096   4.223   5.334  15.678  0.9731  0.0905  0.0078
19535TIP3    H280097   4.172   5.316  15.819 -0.3112  0.1610 -0.4334
19536TIP3   OH280098   3.731   4.240  11.841 -0.0808  0.5772  0.6826
19536TIP3    H180099   3.680   4.284  11.910 -2.5572 -0.9202 -0.1021
19536TIP3    H280100   3.668   4.224  11.771  2.3930  2.2683 -2.1678
19537TIP3   OH280101   3.945   4.726  13.607  0.1861 -0.0048 -0.1834
19537TIP3    H180102   3.982   4.650  13.562  1.0254  0.6503 -0.6403
19537TIP3    H280103   3.912   4.782  13.537 -0.6054 -0.0271  0.1609
19538TIP3   OH280104   5.140   0.515   2.677  0.1778 -0.7045 -0.6057
19538TIP3    H180105   5.077   0.533   2.607  0.2564  0.1077 -0.4809
19538TIP3    H280106   5.095   0.544   2.756  0.1248 -1.5377 -0.3278
19539TIP3   OH280107   6.373   0.402   1.523 -0.0881 -0.3670 -0.1650
19539TIP3    H180108   6.337   0.432   1.606 -1.2557  0.2115 -0.8511
19539TIP3    H280109   6.460   0.369   1.545 -0.5664 -0.6923  1.3548
19540TIP3   OH280110   6.194   1.065  12.372 -0.2189 -0.4748  0.2092
19540TIP3    H180111   6.163   1.144  12.326 -0.9491 -1.9461 -1.9617
19540TIP3    H280112   6.115   1.012  12.382  0.7036 -2.1258 -0.9040
19541TIP3   OH280113   4.564   2.241   2.775 -0.1182 -0.3107 -0.4580
19541TIP3    H180114   4.527   2.301   2.839 -0.5598 -0.2455 -0.7711
19541TIP3    H280115   4.490   2.190   2.744  0.2728 -1.0898 -0.1251
19542TIP3   OH280116   5.475   3.121   3.412  0.5263  0.5612 -0.0106
19542TIP3    H180117   5.471   3.039   3.364 -0.2225  1.1336 -0.9619
19542TIP3    H280118   5.558   3.117   3.460  1.6145  0.2505 -1.8430
19543TIP3   OH280119   6.218   1.163  17.225  0.0231  0.1048  0.3321
19543TIP3    H180120   6.206   1.138  17.133 -0.0772 -1.7007  0.7898
19543TIP3    H280121   6.130   1.185  17.255 -0.2324 -0.9858  0.4274
19544TIP3   OH280122   4.095   3.253  14.660  0.1250  0.2800  0.1313
19544TIP3    H180123   4.100   3.170  14.708 -1.5649 -0.8104 -1.4564
19544TIP3    H280124   4.071   3.318  14.726  2.0976 -0.3144  1.5283
19545TIP3   OH280125   4.047   6.262  14.041  0.0333 -1.2247  0.6772
19545TIP3    H180126   4.049   6.349  14.082  0.3362 -1.2122  0.6355
19545TIP3    H280127   4.132   6.223  14.062 -0.3764 -1.8041  1.3080
19546TIP3   OH280128   4.684   6.096   0.295 -0.5535 -0.2867  0.3599
19546TIP3    H180129   4.750   6.028   0.308  0.2894  0.1468 -1.3575
19546TIP3    H280130   4.606   6.049   0.264 -0.1831 -0.5395 -0.1968
19547TIP3   OH280131   4.579   1.111  15.165 -0.1964  0.3817 -0.1476
19547TIP3    H180132   4.602   1.105  15.258 -0.4695  1.6951  0.0264
19547TIP3    H280133   4.659   1.141  15.122 -0.1242 -0.0440 -0.3130
19548TIP3   OH280134   2.421   4.710  14.378  0.0248 -0.1545 -0.8180
19548TIP3    H180135   2.334   4.718  14.418  0.1336 -3.1539  0.2871
19548TIP3    H280136   2.471   4.783  14.414 -0.7186 -1.0819  2.4113
19549TIP3   OH280137   0.619   5.537  10.565 -0.2395 -0.2525  0.4695
19549TIP3    H180138   0.655   5.555  10.478  1.9382  1.3698  1.5899
19549TIP3    H280139   0.595   5.444  10.562  0.5760 -0.4576 -1.5969
19550TIP3   OH280140   0.893   1.414  12.232 -0.1963 -0.1224 -0.2469
19550TIP3    H180141   0.868   1.333  12.187  1.3282 -0.2989 -0.8444
19550TIP3    H280142   0.920   1.386  12.319  0.9002 -0.3616 -0.6487
19551TIP3   OH280143   4.967   5.578   1.380  0.0456 -0.4625  0.4092
19551TIP3    H180144   5.059   5.601   1.390  0.1186 -0.8962  0.7952
19551TIP3    H280145   4.923   5.623   1.451  0.0510 -0.7452  0.5935
19552TIP3   OH280146   2.317   2.722  11.077 -0.0602 -0.3271 -0.4126
19552TIP3    H180147   2.247   2.782  11.105  0.4709  0.4726 -0.7385
19552TIP3    H280148   2.275   2.666  11.011 -0.8263 -1.0010  0.6175
19553TIP3   OH280149   5.304   1.319   0.835  0.2356  0.0259 -0.1255
19553TIP3    H180150   5.249   1.378   0.783  1.4774  0.3159 -1.1410
19553TIP3    H280151   5.378   1.373   0.863  1.6792 -1.1262 -1.5190
19554TIP3   OH280152   4.833   1.480   0.262  0.3371  0.2783  0.2466
19554TIP3    H180153   4.760   1.539   0.276 -1.3269 -1.7327  0.5229
19554TIP3    H280154   4.823   1.449   0.173  0.9864  0.1198  0.2184
19555TIP3   OH280155   1.394   3.825   6.213 -0.0412 -0.4657 -0.3731
19555TIP3    H180156   1.346   3.896   6.256  2.4896  1.4435 -0.4522
19555TIP3    H280157   1.408   3.761   6.283 -0.8375 -0.0430  0.1920
19556TIP3   OH280158   1.676   5.536   6.201 -0.4134 -0.1247  0.2573
19556TIP3    H180159   1.586   5.568   6.189 -0.6640  1.5739  4.8067
19556TIP3    H280160   1.725   5.614   6.228  1.9510 -1.4623  0.0390
19557TIP3   OH280161   1.341   1.345  14.214  0.0114 -0.3739  0.1741
19557TIP3    H180162   1.434   1.342  14.234 -0.0525 -0.2303  0.5167
19557TIP3    H280163   1.326   1.273  14.153  0.4618  0.0102 -0.3976
19558TIP3   OH280164   0.075   5.752   3.517  0.5514  0.5505  0.0899
19558TIP3    H180165   0.154   5.805   3.509  0.6168  0.7937  1.7998
19558TIP3    H280166   0.010   5.812   3.553 -0.0780  0.0587 -0.2048
19559TIP3   OH280167   0.656   2.953  17.001  0.4719  0.4589  0.8651
19559TIP3    H180168   0.724   2.886  17.008  0.7987  0.3919 -1.8098
19559TIP3    H280169   0.574   2.904  17.010  0.7353  0.0236  0.9713
19560TIP3   OH280170   5.340   3.984  14.168 -0.0052 -0.3612 -0.2602
19560TIP3    H180171   5.367   4.048  14.235  0.6844 -2.0001  1.1045
19560TIP3    H280172   5.255   4.016  14.138 -0.1610  0.6457  1.1213
19561TIP3   OH280173   2.839   5.954   1.240  0.0155 -0.4697  0.2817
19561TIP3    H180174   2.870   6.010   1.312  0.0048  0.4938 -0.4391
19561TIP3    H280175   2.764   5.908   1.277 -0.0970  0.1456  0.8473
19562TIP3   OH280176   6.563   4.748   5.847 -0.4767 -0.7619  0.6058
19562TIP3    H180177   6.477   4.709   5.862 -0.8427  0.1890  1.0624
19562TIP3    H280178   6.548   4.812   5.777 -0.3025 -0.0748  1.1890
19563TIP3   OH280179   1.729   0.180  15.425  0.3787 -0.0909  0.4596
19563TIP3    H180180   1.743   0.268  15.390 -0.2805 -0.5224 -0.9470
19563TIP3    H280181   1.756   0.121  15.354  0.6897 -1.0402  1.3290
19564TIP3   OH280182   1.050   3.272  14.098 -0.4178 -0.1129 -0.3632
19564TIP3    H180183   0.979   3.311  14.149  0.5904 -0.4475  1.3700
19564TIP3    H280184   1.029   3.178  14.096 -1.2869  0.0841 -1.9878
19565TIP3   OH280185   3.274   6.803   1.865  0.2169  0.5696  0.2668
19565TIP3    H180186   3.201   6.863   1.852  0.1688  0.0997 -2.1909
19565TIP3    H280187   3.237   6.730   1.914 -0.7437  0.7790 -0.1175
19566TIP3   OH280188   6.705   2.912  11.970  0.1798 -0.1013 -0.1314
19566TIP3    H180189   6.743   3.000  11.973  2.0553 -0.8467 -0.4537
19566TIP3    H280190   6.611   2.926  11.978  0.3438  2.0042 -1.1223
19567TIP3   OH280191   0.397   6.067  11.173 -0.2671 -0.3998  0.1934
19567TIP3    H180192   0.337   6.137  11.148 -0.2287 -0.4683 -0.0922
19567TIP3    H280193   0.471   6.077  11.114 -0.8549 -1.5117 -0.7780
19568TIP3   OH280194   0.980   2.926  15.663  0.5069 -0.5287  0.0526
19568TIP3    H180195   0.941   3.008  15.633  0.4018 -0.3666  0.6251
19568TIP3    H280196   0.989   2.874  15.583  0.9473  0.1882 -0.3786
19569TIP3   OH280197   1.643   5.768   3.018  0.2052  0.4870  0.3392
19569TIP3    H180198   1.698   5.846   3.006  1.1771  0.1989  2.3745
19569TIP3    H280199   1.664   5.712   2.944  2.9040  0.3034  1.1306
19570TIP3   OH280200   3.872   5.195   4.380  0.1273 -0.5772 -0.3787
19570TIP3    H180201   3.856   5.109   4.341 -1.9894 -1.3641  1.9905
19570TIP3    H280202   3.913   5.176   4.464  0.6274  0.8271 -0.2763
19571TIP3   OH280203   4.081   0.380  15.062  0.2568 -0.0996 -0.5687
19571TIP3    H180204   4.049   0.326  15.135  1.4840  1.7560  1.4432
19571TIP3    H280205   4.032   0.348  14.986 -2.6769 -0.7038  1.4066
19572TIP3   OH280206   2.447   1.895  10.754  0.1395 -0.0857  0.3926
19572TIP3    H180207   2.535   1.923  10.778  0.6516 -1.0959 -0.2221
19572TIP3    H280208   2.449   1.888  10.658 -1.0859  1.3763  0.2252
19573TIP3   OH280209   5.805   6.484   0.405  0.4886  0.0471  0.0292
19573TIP3    H180210   5.812   6.542   0.481 -0.9810  0.6303 -0.2510
19573TIP3    H280211   5.891   6.487   0.365  0.4886  1.9573  0.1032
19574TIP3   OH280212   4.939   1.905  15.243 -0.3092 -0.0892 -0.1727
19574TIP3    H180213   5.024   1.862  15.236  0.1083  0.2093  2.1916
19574TIP3    H280214   4.886   1.844  15.294 -0.9699  0.4725 -0.1749
19575TIP3   OH280215   4.529   3.924   6.770  0.1432 -0.1424  0.2230
19575TIP3    H180216   4.586   3.895   6.841  0.9693 -2.3802 -1.2436
19575TIP3    H280217   4.582   3.985   6.719 -0.8208  2.3525  2.0346
19576TIP3   OH280218   5.638   1.094   1.866  0.5474  0.4468  0.3745
19576TIP3    H180219   5.714   1.129   1.820 -0.8552  1.6393 -1.1526
19576TIP3    H280220   5.603   1.168   1.915  0.5230 -0.1654  1.3022
19577TIP3   OH280221   2.807   6.772   6.329 -0.1662  0.2785 -0.1878
19577TIP3    H180222   2.751   6.757   6.253 -0.2009 -0.2329 -0.0668
19577TIP3    H280223   2.757   6.835   6.383  0.0116  0.9041 -0.7367
19578TIP3   OH280224   2.285   4.064  12.123 -0.6163 -0.1993  0.2087
19578TIP3    H180225   2.313   3.976  12.146 -1.9824 -0.6696  0.1441
19578TIP3    H280226   2.260   4.059  12.031  1.5042  0.8453 -0.5004
19579TIP3   OH280227   2.588   3.709  15.200 -0.4536 -0.4822  0.5088
19579TIP3    H180228   2.641   3.749  15.269  1.3827 -1.0455 -0.5057
19579TIP3    H280229   2.581   3.617  15.225 -0.2142 -0.5804  0.2353
19580TIP3   OH280230   4.871   6.251  11.681  0.1106 -0.8779 -0.2213
19580TIP3    H180231   4.860   6.178  11.621  0.6725 -0.4087 -0.9140
19580TIP3    H280232   4.859   6.329  11.626 -1.9223 -0.4155  0.7549
19581TIP3   OH280233   0.973   4.599  12.353  0.4905 -0.0683 -0.2392
19581TIP3    H180234   0.905   4.641  12.407  0.0465 -0.1480 -0.7272
19581TIP3    H280235   0.954   4.628  12.264 -0.4936 -2.1296 -0.7620
19582TIP3   OH280236   4.622   4.111   3.389 -0.2036  0.1643  0.0179
19582TIP3    H180237   4.534   4.142   3.412 -1.0130 -1.2769 -0.9822
19582TIP3    H280238   4.618   4.016   3.404  1.3114  0.1286  0.3015
19583TIP3   OH280239   1.836   4.923  14.292  0.3157 -0.1747  0.0631
19583TIP3    H180240   1.761   4.872  14.322  1.5719 -1.1772  1.6859
19583TIP3    H280241   1.908   4.894  14.348  1.9211  0.7431 -1.4426
19584TIP3   OH280242   3.421   0.438  16.712 -0.1529  0.2560  0.3390
19584TIP3    H180243   3.331   0.431  16.681 -0.1343 -0.3713  0.4128
19584TIP3    H280244   3.474   0.427  16.633 -0.1538  2.3246  0.0133
19585TIP3   OH280245   3.718   6.549   3.482 -0.1162  0.0759 -0.0783
19585TIP3    H180246   3.740   6.467   3.439  1.3702 -0.0618  0.8469
19585TIP3    H280247   3.724   6.529   3.576  2.6901  1.7535  0.2088
19586TIP3   OH280248   0.993   3.736  13.184  0.2953 -0.1618  0.0913
19586TIP3    H180249   1.027   3.759  13.271  1.1552 -0.4515 -0.1621
19586TIP3    H280250   1.037   3.655  13.161 -1.7375 -1.4347  0.4070
19587TIP3   OH280251   1.196   4.820  12.525  0.2366 -0.3914  0.3389
19587TIP3    H180252   1.183   4.913  12.507 -1.6686 -0.7794 -0.6161
19587TIP3    H280253   1.109   4.781  12.510  0.9259 -2.2722  0.9985
19588TIP3   OH280254   1.560   0.747  12.406 -0.6168  0.2859 -0.4489
19588TIP3    H180255   1.529   0.738  12.496 -1.6232  1.0418 -0.6914
19588TIP3    H280256   1.609   0.829  12.406  1.0786 -0.6906 -0.1685
19589TIP3   OH280257   0.568   3.319  14.798  0.1218  0.2503  0.7330
19589TIP3    H180258   0.586   3.386  14.864 -0.4000  0.3082  0.8236
19589TIP3    H280259   0.651   3.273  14.787  1.3207  2.6570 -1.3506
19590TIP3   OH280260   3.425   0.761  16.189  0.0785 -0.4491  0.4264
19590TIP3    H180261   3.347   0.713  16.160 -1.1143  1.5222  0.1877
19590TIP3    H280262   3.401   0.795  16.276  1.5240 -1.6277  1.3256
19591TIP3   OH280263   0.035   4.312   6.168  0.0174  0.1104 -0.0361
19591TIP3    H180264   0.130   4.316   6.168  0.1485 -1.6950  1.2752
19591TIP3    H280265   0.014   4.245   6.233 -2.1362  0.1389 -0.6279
19592TIP3   OH280266   2.965   4.721  15.402 -0.5112  0.0519  0.3959
19592TIP3    H180267   3.019   4.755  15.330 -1.2186 -0.0426 -0.1922
19592TIP3    H280268   2.967   4.789  15.469  2.1495 -0.8518  1.3665
19593TIP3   OH280269   5.665   6.065   1.558 -0.1154  1.0087  0.0845
19593TIP3    H180270   5.726   6.138   1.563  0.0760  0.8922 -0.5367
19593TIP3    H280271   5.579   6.106   1.545  0.2137  1.0765 -2.1231
19594TIP3   OH280272   0.389   4.618  11.631 -0.0770 -0.1021 -0.3598
19594TIP3    H180273   0.395   4.699  11.581  0.1799 -0.1231 -0.3612
19594TIP3    H280274   0.296   4.596  11.628 -0.0678 -0.0920 -0.8122
19595TIP3   OH280275   1.803   5.047  13.609 -0.7812  0.2544  0.3010
19595TIP3    H180276   1.885   5.029  13.563 -0.4393 -0.4045  1.1439
19595TIP3    H280277   1.736   5.043  13.541 -0.1983  0.0773 -0.2757
19596TIP3   OH280278   2.764   0.885  12.131  0.2312  0.3596  0.3732
19596TIP3    H180279   2.705   0.874  12.057  0.3759 -0.2466  0.3458
19596TIP3    H280280   2.834   0.941  12.098  0.1126  0.3844  0.1634
19597TIP3   OH280281   1.434   2.856   1.412  0.4530  0.6829 -0.5667
19597TIP3    H180282   1.500   2.812   1.467 -1.5662 -1.2672  0.4770
19597TIP3    H280283   1.459   2.948   1.414  2.3446  0.2066  0.9300
19598TIP3   OH280284   1.768   0.044  13.513  0.6348  0.1796 -0.0581
19598TIP3    H180285   1.716  -0.024  13.555 -0.6567  1.5247  0.6320
19598TIP3    H280286   1.707   0.089  13.454  1.6312  0.3164 -1.0315
19599TIP3   OH280287   6.395   3.750  15.014  0.1792 -0.2947  0.6172
19599TIP3    H180288   6.430   3.662  15.002  0.1876 -0.0804 -1.2853
19599TIP3    H280289   6.385   3.759  15.108 -0.9821 -2.7887  0.8188
19600TIP3   OH280290   1.368   4.269  16.673 -0.1578 -0.6446 -0.5981
19600TIP3    H180291   1.433   4.322  16.626 -2.3689  2.7477 -0.1907
19600TIP3    H280292   1.412   4.242  16.753  1.2782  0.0612 -1.1077
19601TIP3   OH280293   5.520   6.744  17.103 -0.2214 -0.1478  0.3085
19601TIP3    H180294   5.533   6.835  17.074  1.3979 -0.3087  0.4086
19601TIP3    H280295   5.427   6.738  17.125 -1.3558  0.3623 -3.5619
19602TIP3   OH280296   2.169   6.768   6.091 -0.0106 -0.3705  0.2830
19602TIP3    H180297   2.247   6.799   6.138 -1.1312  0.0970  1.9256
19602TIP3    H280298   2.120   6.847   6.072 -1.1453 -0.8094  1.2743
19603TIP3   OH280299   6.279   4.668   5.833  0.3982  0.3386 -0.5779
19603TIP3    H180300   6.193   4.668   5.792 -0.8476  0.7306  1.8575
19603TIP3    H280301   6.313   4.580   5.818 -0.4707  0.1239 -1.4248
19604TIP3   OH280302   2.584   2.829   3.144  0.4545 -0.1278 -0.6287
19604TIP3    H180303   2.550   2.756   3.091 -0.2762 -0.8566  0.8035
19604TIP3    H280304   2.542   2.819   3.229 -0.0775  2.3070 -0.5288
19605TIP3   OH280305   1.732   0.023   5.335 -0.3713 -0.3331  0.7668
19605TIP3    H180306   1.693   0.108   5.311  0.3138  0.2228  1.5630
19605TIP3    H280307   1.674  -0.042   5.295  0.7351  0.4859 -2.4936
19606TIP3   OH280308   3.159   6.317   3.638 -0.2065 -0.5330  0.2010
19606TIP3    H180309   3.139   6.343   3.728 -0.1994  0.8588 -0.1638
19606TIP3    H280310   3.121   6.387   3.585 -1.2681 -1.9382 -0.9693
19607TIP3   OH280311   2.546   4.865   6.365 -0.0764  0.3558 -0.2754
19607TIP3    H180312   2.487   4.939   6.353  1.6780  1.5158 -2.4381
19607TIP3    H280313   2.634   4.902   6.357  0.8568 -2.0481 -2.4754
19608TIP3   OH280314   5.611   6.493   3.740 -0.2449  0.0357  0.6412
19608TIP3    H180315   5.568   6.569   3.780  0.5306 -0.5539  2.7255
19608TIP3    H280316   5.673   6.531   3.678  0.1038  1.1223  1.6201
19609TIP3   OH280317   3.084   1.271   3.600  0.6852  0.2169  0.2944
19609TIP3    H180318   3.086   1.359   3.638  0.3824  0.1559  0.4627
19609TIP3    H280319   2.990   1.251   3.594  0.6414  0.8173 -1.8802
19610TIP3   OH280320   0.298   3.829   4.229  0.1313  0.1961  0.1273
19610TIP3    H180321   0.250   3.762   4.277  0.1625  0.7492  0.9477
19610TIP3    H280322   0.234   3.897   4.211  0.2659  0.2700 -0.0825
19611TIP3   OH280323   1.773   3.934  11.092  0.1317 -0.1321  0.7958
19611TIP3    H180324   1.717   3.863  11.123  0.0537  0.1718  1.3460
19611TIP3    H280325   1.713   3.999  11.057  0.2330 -0.6819 -0.4786
19612TIP3   OH280326   2.271   5.633  12.442 -0.3478 -0.1926 -0.0590
19612TIP3    H180327   2.290   5.558  12.499 -1.1179  0.1397  0.6721
19612TIP3    H280328   2.356   5.662  12.411  0.0445 -0.7560  0.4575
19613TIP3   OH280329   1.780   5.381  11.990 -0.0860 -0.5340  0.1212
19613TIP3    H180330   1.786   5.387  11.895 -0.5383  0.6316  0.1503
19613TIP3    H280331   1.745   5.466  12.018  0.0550 -0.8469  1.3304
19614TIP3   OH280332   3.695   1.861   1.662 -0.1361 -0.2152 -0.2334
19614TIP3    H180333   3.755   1.829   1.729 -0.4817  0.5604  0.4786
19614TIP3    H280334   3.615   1.809   1.675 -0.2527  0.0329  0.0652
19615TIP3   OH280335   0.548   2.004  14.968  0.4800 -0.1770  0.4345
19615TIP3    H180336   0.471   2.048  15.004 -0.1720  1.0920 -2.2796
19615TIP3    H280337   0.621   2.061  14.993  0.1342  0.2892  0.4034
19616TIP3   OH280338   2.748   0.649  15.684 -0.2200  0.4030 -0.5266
19616TIP3    H180339   2.759   0.653  15.589  2.3040 -0.6090 -0.3706
19616TIP3    H280340   2.832   0.614  15.716 -0.6212  1.6652  2.1632
19617TIP3   OH280341   5.655   3.977   0.484 -0.0865  0.7037 -0.6359
19617TIP3    H180342   5.644   3.953   0.392  0.6468  0.4927 -0.6753
19617TIP3    H280343   5.605   4.058   0.493 -0.6598  0.4066 -1.0708
19618TIP3   OH280344   2.937   2.344  16.675 -0.2619 -0.2094  0.2631
19618TIP3    H180345   2.868   2.361  16.611  0.7365  1.5163 -0.4243
19618TIP3    H280346   3.005   2.297  16.626  0.6269  1.3598 -0.0656
19619TIP3   OH280347   3.162   5.822  12.587  0.2329  0.1630 -0.3305
19619TIP3    H180348   3.105   5.788  12.656  0.2261  2.8646  1.1408
19619TIP3    H280349   3.247   5.784  12.605 -0.0840 -0.2408  0.3384
19620TIP3   OH280350   2.264   6.084  12.836  0.5200 -0.1096  0.0452
19620TIP3    H180351   2.297   6.004  12.797  0.1871 -1.3464  2.1408
19620TIP3    H280352   2.170   6.082  12.819  0.3995 -0.5701  0.7004
19621TIP3   OH280353   0.813   6.171  12.343 -0.1656  0.2590  0.4268
19621TIP3    H180354   0.882   6.159  12.409 -0.4130 -0.1488  0.6212
19621TIP3    H280355   0.744   6.109  12.370  0.0439 -0.4612 -0.6404
19622TIP3   OH280356   5.808   0.969   0.673  0.2499  0.3634  0.0006
19622TIP3    H180357   5.891   0.968   0.720  0.6161  0.0045 -0.6381
19622TIP3    H280358   5.776   0.879   0.680 -0.2190  0.5658  0.4771
19623TIP3   OH280359   2.458   1.931  14.392  0.3826 -0.0545 -0.6424
19623TIP3    H180360   2.372   1.961  14.363 -0.0339 -1.5055 -0.9787
19623TIP3    H280361   2.518   1.958  14.323  0.1401  0.5732 -0.6147
19624TIP3   OH280362   3.800   6.549   0.064 -0.6625 -0.1979 -0.5019
19624TIP3    H180363   3.844   6.630   0.090 -1.7103  0.6999 -1.4022
19624TIP3    H280364   3.773   6.508   0.146 -1.6432  1.2725 -0.0491
19625TIP3   OH280365   6.300   1.479  10.345  0.4778  0.4945 -0.6793
19625TIP3    H180366   6.296   1.417  10.417  0.6452  2.1563  0.8461
19625TIP3    H280367   6.390   1.474  10.313  0.3565 -0.3714 -0.8983
19626TIP3   OH280368   1.401   5.942   1.433 -0.6097 -0.7668 -0.1411
19626TIP3    H180369   1.428   5.892   1.510  2.2273 -0.7923 -1.0412
19626TIP3    H280370   1.395   6.032   1.465  2.3435 -0.4783 -0.1719
19627TIP3   OH280371   2.178   5.743   1.373  0.6953 -0.4053 -0.4838
19627TIP3    H180372   2.114   5.689   1.327  0.5647 -2.8253  2.2642
19627TIP3    H280373   2.235   5.680   1.418  1.8048  1.7290  1.3029
19628TIP3   OH280374   6.071   3.693   5.099 -0.4741  0.0504 -0.5422
19628TIP3    H180375   6.045   3.776   5.138 -0.6318  0.4691 -1.4997
19628TIP3    H280376   6.166   3.691   5.105 -0.4620  0.3598 -0.6209
19629TIP3   OH280377   0.216   1.527   1.278 -0.1231 -0.2642  0.2801
19629TIP3    H180378   0.293   1.583   1.284 -0.3924  0.0101  1.7688
19629TIP3    H280379   0.142   1.588   1.273 -0.4076 -0.4442  1.7579
19630TIP3   OH280380   5.358   5.229  13.494  0.0996  0.4963 -0.2166
19630TIP3    H180381   5.414   5.306  13.494  0.7512  0.0536  0.9114
19630TIP3    H280382   5.395   5.171  13.427 -0.2772  1.0706 -0.9304
19631TIP3   OH280383   4.278   1.491  12.854  0.1477  0.3395  0.2307
19631TIP3    H180384   4.215   1.454  12.792  0.1718  0.1844  0.2990
19631TIP3    H280385   4.251   1.582  12.863  0.3477  0.4551 -0.2727
19632TIP3   OH280386   3.695   1.155  13.294 -0.8701 -0.2096 -0.0246
19632TIP3    H180387   3.708   1.079  13.238  0.9387 -0.2977  0.4680
19632TIP3    H280388   3.783   1.181  13.321 -1.6141  0.5039  1.8842
19633TIP3   OH280389   2.037   6.157  16.893  0.4081  0.2966 -0.3644
19633TIP3    H180390   2.057   6.148  16.800 -1.1982 -0.6876 -0.6649
19633TIP3    H280391   1.944   6.182  16.895  0.5606  0.8456  0.9749
19634TIP3   OH280392   2.418   2.236   4.440 -0.2414 -0.2912  0.3444
19634TIP3    H180393   2.344   2.282   4.479 -1.3007 -2.1740  0.6620
19634TIP3    H280394   2.388   2.145   4.431  2.1839 -1.2319  0.9676
19635TIP3   OH280395   5.328   3.984   2.795 -0.3485  0.7109 -0.8773
19635TIP3    H180396   5.247   4.036   2.784 -0.1333  0.8399 -1.9757
19635TIP3    H280397   5.398   4.045   2.771  0.0043  0.3005 -0.8833
19636TIP3   OH280398   1.501   2.954   2.945 -0.5492  0.2402 -0.4594
19636TIP3    H180399   1.424   2.958   3.001  0.4625 -0.8735  1.1171
19636TIP3    H280400   1.535   3.044   2.944  0.9309 -0.0853  3.1305
19637TIP3   OH280401   2.347   4.068   2.896 -0.4666  0.6276 -0.5406
19637TIP3    H180402   2.293   4.025   2.963  2.1486  1.1161  2.0583
19637TIP3    H280403   2.430   4.021   2.899  1.4681  3.8431  0.2572
19638TIP3   OH280404   4.147   2.598  16.331  0.0961  0.4053 -0.3879
19638TIP3    H180405   4.153   2.622  16.238 -0.6435  0.7342 -0.3546
19638TIP3    H280406   4.235   2.617  16.366  0.5927 -0.4029 -1.1721
19639TIP3   OH280407   4.137   3.801   0.943  0.5664 -0.3371 -0.0792
19639TIP3    H180408   4.197   3.824   0.872 -1.4108 -0.0780 -1.7634
19639TIP3    H280409   4.057   3.772   0.898 -2.3475  3.7548  1.8998
19640TIP3   OH280410   3.311   0.179  15.582 -0.5952  0.5146 -0.3772
19640TIP3    H180411   3.271   0.094  15.564 -0.7360  0.2801  0.9403
19640TIP3    H280412   3.350   0.170  15.669  0.4735  1.4125 -0.7388
19641TIP3   OH280413   3.605   1.618   6.296 -0.1579 -0.0387 -0.2826
19641TIP3    H180414   3.684   1.614   6.350 -0.5184  0.1525  0.2715
19641TIP3    H280415   3.570   1.529   6.297  0.7826 -0.4490 -1.6651
19642TIP3   OH280416   4.072   5.917  15.169  0.0786  0.0711 -0.0060
19642TIP3    H180417   4.101   6.008  15.172 -0.4602  0.2375  0.4422
19642TIP3    H280418   3.992   5.919  15.117 -0.5268  0.0348  0.9060
19643TIP3   OH280419   3.381   0.339   5.993  0.4184 -0.2390 -0.2912
19643TIP3    H180420   3.476   0.340   5.989  0.5640  2.4365  1.4303
19643TIP3    H280421   3.354   0.426   5.963 -1.2626  0.1220  1.9823
19644TIP3   OH280422   1.654   1.388  11.801  0.1185 -0.1989  0.0216
19644TIP3    H180423   1.693   1.412  11.716  0.1677  0.6919  0.2793
19644TIP3    H280424   1.678   1.296  11.814 -1.2258 -0.8324 -1.6530
19645TIP3   OH280425   5.105   6.469   1.985  0.3371 -0.0860 -0.3795
19645TIP3    H180426   5.109   6.473   2.081  1.4255 -0.7891 -0.3806
19645TIP3    H280427   5.112   6.560   1.957 -0.3857  0.1674  0.2063
19646TIP3   OH280428   4.978   0.084   0.099 -0.1875 -0.7241 -0.3605
19646TIP3    H180429   5.022  -0.001   0.088  2.3146  0.3091  0.9356
19646TIP3    H280430   4.921   0.072   0.175  1.2234 -0.9064  0.7142
19647TIP3   OH280431   5.311   0.262   2.137  0.3417  0.6089  0.1762
19647TIP3    H180432   5.357   0.337   2.101 -1.7422  1.3435 -1.1157
19647TIP3    H280433   5.357   0.186   2.100  1.5228  1.2377  0.2911
19648TIP3   OH280434   3.944   3.170  16.007  0.3147  0.2286  0.4943
19648TIP3    H180435   4.013   3.216  16.054  0.5696 -1.6428  2.0753
19648TIP3    H280436   3.925   3.226  15.932  3.9140  0.6038 -0.3279
19649TIP3   OH280437   6.703   1.390  14.390  0.4375  0.1988  0.0849
19649TIP3    H180438   6.730   1.298  14.392 -1.1517 -0.2867 -0.0694
19649TIP3    H280439   6.656   1.403  14.473  2.3209  1.4392  1.0333
19650TIP3   OH280440   0.920   3.076   0.860  0.8570 -0.1721  0.2093
19650TIP3    H180441   0.870   3.054   0.939  0.7493  1.8001  0.7426
19650TIP3    H280442   1.006   3.038   0.875  0.1337 -1.9681  0.1239
19651TIP3   OH280443   0.937   1.716  16.664 -0.5219  0.2148  0.0197
19651TIP3    H180444   0.980   1.660  16.728 -0.1946  1.0453  0.5465
19651TIP3    H280445   0.843   1.705  16.682 -0.5104 -0.9117 -0.5429
19652TIP3   OH280446   2.999   6.040  11.126 -0.2686 -0.2174  0.3333
19652TIP3    H180447   3.079   6.066  11.173 -0.5352  0.0107  0.6697
19652TIP3    H280448   3.030   5.982  11.057  0.0891 -0.9961  1.1147
19653TIP3   OH280449   2.986   1.483   0.792 -0.2590  0.5415 -0.1172
19653TIP3    H180450   2.918   1.480   0.725 -0.4550  1.0467  0.0556
19653TIP3    H280451   2.964   1.559   0.845  0.6543  0.9361 -0.2933
19654TIP3   OH280452   0.355   6.687  13.852  0.2049 -0.2337 -0.1362
19654TIP3    H180453   0.437   6.637  13.859  0.6124  0.3239 -0.7180
19654TIP3    H280454   0.311   6.649  13.776 -0.0446 -0.4885  0.1361
19655TIP3   OH280455   3.619   6.357  15.838  0.0001  0.7387  0.1517
19655TIP3    H180456   3.627   6.293  15.909 -2.4704  0.5122  0.3195
19655TIP3    H280457   3.703   6.353  15.793 -0.0463 -2.7171  0.0868
19656TIP3   OH280458   4.943   4.710   2.277 -0.7218  0.3093  0.6011
19656TIP3    H180459   4.985   4.751   2.202  0.0473  0.6740  1.2266
19656TIP3    H280460   5.003   4.640   2.303 -1.9539 -1.1952 -0.3799
19657TIP3   OH280461   4.336   4.563  12.978  0.1012 -0.6966  0.4504
19657TIP3    H180462   4.395   4.554  12.903 -1.5240 -1.9300 -0.7364
19657TIP3    H280463   4.306   4.475  12.996 -0.5176 -0.2372  1.7743
19658TIP3   OH280464   4.772   2.620  13.384  0.2740  0.1676 -0.1773
19658TIP3    H180465   4.830   2.544  13.386  1.1048  0.7645 -0.8947
19658TIP3    H280466   4.784   2.657  13.297 -2.0791 -0.3562 -0.7865
19659TIP3   OH280467   5.911   1.362  15.343  0.0820 -0.0860 -0.3425
19659TIP3    H180468   5.856   1.435  15.371 -0.2519 -0.1551 -0.7931
19659TIP3    H280469   5.849   1.290  15.328  0.6842 -1.8230  3.9629
19660TIP3   OH280470   3.356   5.826  14.681 -0.3531 -0.3870  0.2879
19660TIP3    H180471   3.397   5.758  14.735  0.8758 -0.1457 -0.3165
19660TIP3    H280472   3.324   5.780  14.604 -0.3996 -0.4281  0.3315
19661TIP3   OH280473   1.941   6.026  13.898  0.0128 -0.9588  0.0817
19661TIP3    H180474   1.882   5.972  13.845  1.6156 -0.9590 -1.8182
19661TIP3    H280475   2.028   6.004  13.866  0.8153  1.8670  0.0932
19662TIP3   OH280476   4.901   2.438   3.405 -0.2835  0.2056 -0.1744
19662TIP3    H180477   4.989   2.412   3.432  1.1839  3.0239 -1.7979
19662TIP3    H280478   4.859   2.467   3.486  2.0083  3.1576  0.1337
19663TIP3   OH280479   5.688   5.200   1.036  0.1680  0.1939 -0.1391
19663TIP3    H180480   5.638   5.281   1.032 -0.5540 -0.2699 -0.6894
19663TIP3    H280481   5.727   5.200   1.124  0.5585  1.3471 -0.2921
19664TIP3   OH280482   6.123   2.027   0.091 -0.3096  0.4722 -0.4466
19664TIP3    H180483   6.163   2.079   0.021 -0.9925  0.8716 -0.5464
19664TIP3    H280484   6.029   2.042   0.082 -0.4942 -0.5568 -0.2841
19665TIP3   OH280485   2.989   0.841  14.953 -0.6747 -0.0583  0.3866
19665TIP3    H180486   3.078   0.835  14.918 -0.8885 -0.4025 -0.1082
19665TIP3    H280487   2.958   0.927  14.926 -0.7196 -0.1929 -0.0021
19666TIP3   OH280488   1.380   3.349   6.381  0.5958 -0.5727  0.2397
19666TIP3    H180489   1.308   3.329   6.322  0.7623 -0.1660 -0.1149
19666TIP3    H280490   1.453   3.372   6.322  0.9348 -0.7246  0.5951
19667TIP3   OH280491   6.817   4.317  14.996 -0.0627 -0.4424 -0.0692
19667TIP3    H180492   6.804   4.400  15.042  1.5215 -1.0873  1.6732
19667TIP3    H280493   6.758   4.255  15.039  0.4200 -0.7288  0.1967
19668TIP3   OH280494   0.334   0.100  12.709  0.0707 -0.7415 -0.1550
19668TIP3    H180495   0.282   0.051  12.772 -0.0222 -0.6528 -0.1634
19668TIP3    H280496   0.421   0.107  12.750 -0.4580  0.9126  0.8203
19669TIP3   OH280497   6.632   2.746   0.587 -0.1640  0.6471  0.2903
19669TIP3    H180498   6.698   2.678   0.602  0.7767  1.5061  0.1852
19669TIP3    H280499   6.609   2.738   0.495  0.3073  0.7798  0.1594
19670TIP3   OH280500   5.695   0.280   3.151 -0.4186 -0.1312 -0.5226
19670TIP3    H180501   5.686   0.367   3.190 -0.4294 -0.6975  0.7828
19670TIP3    H280502   5.785   0.255   3.168 -0.4046 -0.3680 -0.9332
19671TIP3   OH280503   6.074   5.286  12.251  0.0317 -0.3905 -0.0641
19671TIP3    H180504   6.149   5.232  12.275  0.3095 -0.2255 -0.5531
19671TIP3    H280505   6.016   5.227  12.202  0.3490 -0.2480 -0.6246
19672TIP3   OH280506   1.553   5.938   5.424  0.7094  0.0479  0.0041
19672TIP3    H180507   1.555   5.921   5.519  1.4641 -0.4798 -0.1000
19672TIP3    H280508   1.526   5.855   5.386 -1.4063  0.7366 -0.1585
19673TIP3   OH280509   5.571   2.979  10.796 -0.0671  0.2428  0.3104
19673TIP3    H180510   5.662   2.951  10.782  0.2434  1.2796  0.1631
19673TIP3    H280511   5.521   2.935  10.727  0.2217 -0.7532  0.7085
19674TIP3   OH280512   5.223   2.164   1.259 -0.0450  0.0281 -0.1318
19674TIP3    H180513   5.284   2.237   1.271  1.7447 -1.4919  0.6447
19674TIP3    H280514   5.167   2.190   1.186  0.1459  2.3910  0.5132
19675TIP3   OH280515   3.022   2.841   2.217  0.1106 -0.3329 -0.0512
19675TIP3    H180516   3.053   2.905   2.281 -2.0469  1.0369 -0.2701
19675TIP3    H280517   3.081   2.766   2.227  0.6221  0.3437  2.6155
19676TIP3   OH280518   0.353   0.974  14.059  0.3134 -0.4033  0.0004
19676TIP3    H180519   0.332   0.997  13.968  0.3309 -0.5189 -0.0335
19676TIP3    H280520   0.315   0.886  14.071 -1.3918  0.3886  0.7103
19677TIP3   OH280521   6.620   4.458  11.203 -0.2954  0.3446  0.0291
19677TIP3    H180522   6.677   4.397  11.250 -1.7833 -0.6203  0.6583
19677TIP3    H280523   6.680   4.520  11.162  1.3076 -1.6222 -0.7771
19678TIP3   OH280524   0.912   3.294   4.908  0.1501 -0.3255 -0.4271
19678TIP3    H180525   0.963   3.373   4.928  1.6979 -1.3904  0.0665
19678TIP3    H280526   0.911   3.245   4.991  0.5103 -1.5071 -1.0993
19679TIP3   OH280527   3.536   5.434   1.535 -0.0523 -0.5903  0.0781
19679TIP3    H180528   3.515   5.404   1.623  2.3023 -1.7094  0.3238
19679TIP3    H280529   3.521   5.529   1.538 -1.2271 -0.7863  1.2747
19680TIP3   OH280530   4.914   5.348   0.694 -0.0471 -0.1394 -0.1727
19680TIP3    H180531   4.984   5.383   0.638  0.1754  0.8313  0.6820
19680TIP3    H280532   4.948   5.264   0.725  0.0172 -0.4748 -1.1099
19681TIP3   OH280533   2.662   0.964  16.641  0.1279  0.5477 -0.1495
19681TIP3    H180534   2.746   0.997  16.673 -0.9048  0.6447  2.7360
19681TIP3    H280535   2.683   0.879  16.602  1.6582  0.9392 -0.2456
19682TIP3   OH280536   1.831   2.011   3.728 -0.1338 -0.2479 -0.3149
19682TIP3    H180537   1.898   1.944   3.740 -0.1196 -0.3221 -0.7712
19682TIP3    H280538   1.800   1.997   3.638 -1.3622 -0.7561  0.1791
19683TIP3   OH280539   5.185   0.567   1.758 -0.7870  0.1182 -0.2663
19683TIP3    H180540   5.140   0.486   1.783  0.8963 -0.5870  0.6351
19683TIP3    H280541   5.176   0.571   1.663 -2.3943 -0.1697 -0.1596
19684TIP3   OH280542   3.437   2.021   0.739 -0.1486 -0.3245 -0.2466
19684TIP3    H180543   3.507   1.964   0.771  0.2462  0.1570 -0.2431
19684TIP3    H280544   3.478   2.107   0.731 -1.3367  0.5310  2.0594
19685TIP3   OH280545   4.684   6.548  16.833 -0.8404 -0.1539  0.1704
19685TIP3    H180546   4.643   6.499  16.761 -0.9393  0.0052  0.1169
19685TIP3    H280547   4.760   6.496  16.857 -0.3719  0.1691 -0.5613
19686TIP3   OH280548   2.414   6.077  11.710 -0.1798  0.6145  0.2418
19686TIP3    H180549   2.348   6.094  11.777  2.0346  1.3985  2.3508
19686TIP3    H280550   2.419   5.982  11.704  0.0441  0.5077  1.7438
19687TIP3   OH280551   3.097   6.544   2.361  0.0058  0.1087 -0.0092
19687TIP3    H180552   3.013   6.572   2.324  0.3836  2.1544  0.5303
19687TIP3    H280553   3.077   6.462   2.406 -1.7352  0.5827  0.1732
19688TIP3   OH280554   6.180   5.174  12.579 -0.0574 -0.0746 -0.0563
19688TIP3    H180555   6.253   5.177  12.641 -0.8830  1.5521  0.8950
19688TIP3    H280556   6.171   5.265  12.549  0.5416 -0.8404 -2.9001
19689TIP3   OH280557   0.903   3.487  13.949  0.1361 -0.3203  0.7101
19689TIP3    H180558   0.968   3.532  13.895 -2.1343  1.6128 -0.6647
19689TIP3    H280559   0.928   3.395  13.946  3.1093  0.3919  0.8212
19690TIP3   OH280560   0.409   1.246  15.504 -0.0398 -0.5233  0.1651
19690TIP3    H180561   0.455   1.325  15.531 -2.1341  0.9035 -0.1445
19690TIP3    H280562   0.476   1.179  15.498  1.6379  0.9577  1.5301
19691TIP3   OH280563   2.481   1.655  15.528  0.1831 -0.2747 -0.0253
19691TIP3    H180564   2.496   1.619  15.616  1.4529 -3.1865 -1.2843
19691TIP3    H280565   2.386   1.662  15.520  0.0133 -0.7921  1.2789
19692TIP3   OH280566   3.098   1.503   3.730  0.0952 -0.1615  0.2067
19692TIP3    H180567   3.048   1.576   3.694  1.1097  0.3437 -0.1931
19692TIP3    H280568   3.080   1.506   3.824 -0.8644 -0.1810  0.0357
19693TIP3   OH280569   4.163   5.627   3.054 -0.0523 -0.5580  0.2500
19693TIP3    H180570   4.165   5.695   3.121 -0.4296 -0.7792  0.4886
19693TIP3    H280571   4.111   5.665   2.983 -1.1286 -0.9654  0.7978
19694TIP3   OH280572   0.934   2.178   0.721  0.1678 -0.6694  0.0165
19694TIP3    H180573   0.944   2.246   0.654  0.1092 -1.5553 -0.9141
19694TIP3    H280574   0.905   2.225   0.799  1.0655  0.5005 -0.3331
19695TIP3   OH280575   5.421   6.195  15.217 -0.0305  0.8572 -0.6539
19695TIP3    H180576   5.428   6.183  15.312  0.8571  2.3196 -0.4973
19695TIP3    H280577   5.511   6.195  15.186 -0.3721 -1.9348 -1.8770
19696TIP3   OH280578   2.208   3.379  14.424 -0.0917 -0.5831 -0.1597
19696TIP3    H180579   2.211   3.357  14.331  1.2603  1.1247 -0.5731
19696TIP3    H280580   2.151   3.456  14.429  0.3828 -0.2531  0.3197
19697TIP3   OH280581   6.126   6.167  10.995 -0.0303 -0.1166 -0.4756
19697TIP3    H180582   6.172   6.098  11.043 -1.1502  0.6317  1.8156
19697TIP3    H280583   6.191   6.198  10.932  1.5698 -1.1422  0.5647
19698TIP3   OH280584   0.430   5.352   6.128 -0.2176  0.2937 -0.2294
19698TIP3    H180585   0.448   5.292   6.200 -0.4379  0.3292 -0.1469
19698TIP3    H280586   0.460   5.437   6.160 -1.4875  0.5517  0.3063
19699TIP3   OH280587   3.849   5.015   3.978  0.2199 -0.6980  0.6324
19699TIP3    H180588   3.928   5.066   3.962 -0.4554  0.1367 -0.1178
19699TIP3    H280589   3.835   5.023   4.073  0.6420 -0.2772  0.6640
19700TIP3   OH280590   1.395   3.693   3.488 -0.6471 -0.2701  0.0178
19700TIP3    H180591   1.413   3.740   3.570  0.8400 -0.5495 -0.1204
19700TIP3    H280592   1.430   3.605   3.502 -0.0628 -0.2247 -1.0144
19701TIP3   OH280593   4.700   4.840   5.453  0.4305 -0.0439 -0.0787
19701TIP3    H180594   4.684   4.746   5.453  0.0215  0.0119 -1.2314
19701TIP3    H280595   4.633   4.876   5.511 -0.5456 -0.3022 -1.0168
19702TIP3   OH280596   4.405   2.095   0.385 -0.0315  0.5706  0.3755
19702TIP3    H180597   4.394   2.188   0.362 -0.5564  0.8802  1.7421
19702TIP3    H280598   4.499   2.082   0.390  0.1745  0.3134 -2.3930
19703TIP3   OH280599   3.828   2.131   2.969 -0.2263  0.1281 -0.5157
19703TIP3    H180600   3.754   2.125   3.029  0.5728 -0.1025  0.4962
19703TIP3    H280601   3.811   2.210   2.917 -0.1983  1.2585  1.1065
19704TIP3   OH280602   2.329   4.594  16.652 -0.4521  0.0023 -0.6189
19704TIP3    H180603   2.301   4.684  16.639 -0.5917  0.0922  0.2656
19704TIP3    H280604   2.277   4.562  16.726  1.2305 -0.0397  0.6126
19705TIP3   OH280605   5.775   5.046   4.668  0.1679 -0.0135  0.0038
19705TIP3    H180606   5.820   4.964   4.647 -0.3075 -0.0059 -1.1075
19705TIP3    H280607   5.846   5.107   4.689  0.8139  0.1843 -2.3960
19706TIP3   OH280608   6.076   0.575  11.391  0.0725 -0.3060 -0.1818
19706TIP3    H180609   6.037   0.631  11.325 -0.3439  0.5871  0.7876
19706TIP3    H280610   6.048   0.487  11.368 -1.2042  0.1442 -0.4114
19707TIP3   OH280611   4.115   4.236  11.609  0.0361 -0.3935  0.1246
19707TIP3    H180612   4.161   4.172  11.663 -1.0516 -0.9082  0.4632
19707TIP3    H280613   4.091   4.187  11.530 -1.0665 -0.5206  0.5135
19708TIP3   OH280614   4.760   6.152  10.335 -0.3367  0.5065  0.1875
19708TIP3    H180615   4.724   6.165  10.423 -0.3925 -0.2901  0.2833
19708TIP3    H280616   4.691   6.186  10.277 -0.5638  0.4566  0.4254
19709TIP3   OH280617   0.527   5.787  13.990 -0.6106  0.0496 -0.0039
19709TIP3    H180618   0.585   5.713  13.978  0.1260  0.5234  0.5151
19709TIP3    H280619   0.567   5.837  14.062 -1.2957  0.7412 -0.0897
19710TIP3   OH280620   5.919   5.533   5.278  0.0416 -0.7816 -0.2200
19710TIP3    H180621   5.916   5.625   5.255  4.2492 -0.4952 -0.3821
19710TIP3    H280622   5.926   5.487   5.195  0.5005 -1.0125 -0.0570
19711TIP3   OH280623   3.328   0.290  11.886 -0.4682 -0.0602  0.8076
19711TIP3    H180624   3.328   0.209  11.835  0.1109 -0.0374  0.7667
19711TIP3    H280625   3.265   0.274  11.957  1.7587 -1.6747  2.5449
19712TIP3   OH280626   3.199   2.626   4.878 -0.6115  0.0731  0.4392
19712TIP3    H180627   3.154   2.616   4.794 -0.2677  0.3896  0.2110
19712TIP3    H280628   3.292   2.617   4.856 -0.4175  1.5570  0.5581
19713TIP3   OH280629   1.855   1.221   4.825 -0.2758 -0.2878  0.0500
19713TIP3    H180630   1.874   1.263   4.741 -0.5396 -1.3866 -0.5758
19713TIP3    H280631   1.761   1.236   4.839 -0.0333  0.7580  0.6553
19714TIP3   OH280632   6.012   5.431   2.894 -0.3784 -0.4590  0.3539
19714TIP3    H180633   6.090   5.416   2.948 -0.5375 -0.6079  0.5417
19714TIP3    H280634   6.038   5.501   2.834 -0.2305 -0.2263  0.6850
19715TIP3   OH280635   5.689   4.257   3.748 -0.2171 -0.1396 -0.6437
19715TIP3    H180636   5.595   4.253   3.729 -0.2599  0.0740 -0.4902
19715TIP3    H280637   5.696   4.231   3.840  0.2324 -3.4646 -1.5198
19716TIP3   OH280638   0.323   3.155   2.353  0.0822  0.3891  0.2064
19716TIP3    H180639   0.385   3.177   2.284 -0.7065 -1.0515 -1.0466
19716TIP3    H280640   0.284   3.238   2.379  0.6493  1.0076 -0.8606
19717TIP3   OH280641   0.654   1.490  17.007 -0.4412  0.1070 -0.4331
19717TIP3    H180642   0.603   1.519  17.082  2.4692  1.8805  1.0539
19717TIP3    H280643   0.684   1.571  16.966  1.3542 -0.8233 -1.0514
19718TIP3   OH280644   0.441   4.867  11.811 -0.8996  0.0723 -0.0333
19718TIP3    H180645   0.533   4.889  11.829 -0.7563 -1.1759  0.8791
19718TIP3    H280646   0.425   4.902  11.723  0.3194  0.6934 -0.0316
19719TIP3   OH280647   6.260   5.187   3.338  0.1122  0.0851  0.3650
19719TIP3    H180648   6.334   5.179   3.397  1.4215  1.8491 -0.9276
19719TIP3    H280649   6.248   5.099   3.302  2.2582 -0.0448 -0.1404
19720TIP3   OH280650   1.982   1.397   2.748  0.0898  0.2632 -0.3658
19720TIP3    H180651   2.070   1.372   2.722  0.4763 -1.4951  2.2748
19720TIP3    H280652   1.926   1.328   2.712 -0.0369  0.5715 -0.7705
19721TIP3   OH280653   1.685   2.365  13.789 -0.1628  0.7941 -0.6328
19721TIP3    H180654   1.681   2.303  13.862  0.9235  0.6701 -0.6613
19721TIP3    H280655   1.772   2.353  13.752  0.2494  2.6978 -0.3544
19722TIP3   OH280656   5.953   1.602   4.919 -0.0115  0.3347 -0.1247
19722TIP3    H180657   5.945   1.540   4.992 -1.1088 -2.3735 -2.3439
19722TIP3    H280658   6.031   1.572   4.872 -0.4551  0.7403 -1.1348
19723TIP3   OH280659   5.912   1.237  16.279  0.2440 -0.1793  0.3138
19723TIP3    H180660   5.890   1.239  16.372 -0.6008 -0.3172  0.1190
19723TIP3    H280661   6.007   1.221  16.277  0.2112 -0.5085  1.1430
19724TIP3   OH280662   4.434   0.052  12.656 -0.4374  0.3395  0.3632
19724TIP3    H180663   4.355  -0.001  12.658 -0.3286  0.1145 -0.8376
19724TIP3    H280664   4.402   0.142  12.646 -0.6596  0.6666  3.1420
19725TIP3   OH280665   0.198   5.671  14.959 -0.5019 -0.1416 -0.7132
19725TIP3    H180666   0.272   5.613  14.938 -1.0715 -1.0641 -0.2516
19725TIP3    H280667   0.235   5.759  14.957  1.4311 -0.7196  2.7317
19726TIP3   OH280668   4.240   6.064  15.481 -0.0197 -0.1624  0.2213
19726TIP3    H180669   4.216   5.977  15.450 -0.6970  0.7394 -2.0784
19726TIP3    H280670   4.177   6.122  15.437  0.2736  1.4677  1.8548
19727TIP3   OH280671   5.808   3.271   2.329 -0.3850  0.0821  0.2917
19727TIP3    H180672   5.897   3.296   2.303 -0.4689 -0.0492 -0.1312
19727TIP3    H280673   5.819   3.190   2.378 -0.3213 -0.2720 -0.2897
19728TIP3   OH280674   5.881   4.251   4.441 -0.4034 -0.0870 -0.5074
19728TIP3    H180675   5.827   4.216   4.512 -0.9905  0.4637 -0.6705
19728TIP3    H280676   5.920   4.173   4.400  1.0445 -0.3535  1.2455
19729TIP3   OH280677   3.745   6.678   2.394 -0.4602  0.3699  0.3677
19729TIP3    H180678   3.711   6.765   2.373 -0.7486  0.7424  2.2006
19729TIP3    H280679   3.754   6.678   2.489  0.6425 -1.2158  0.3028
19730TIP3   OH280680   2.671   2.791  10.435  0.4865 -0.1368 -0.2633
19730TIP3    H180681   2.605   2.747  10.489 -1.7915  0.7658 -2.0842
19730TIP3    H280682   2.695   2.869  10.485 -1.0493  0.3247 -0.1868
19731TIP3   OH280683   2.183   4.932  13.151 -0.0955 -0.5500  0.0696
19731TIP3    H180684   2.201   4.896  13.237 -0.4830 -0.6514  0.1074
19731TIP3    H280685   2.167   4.856  13.096 -1.4577 -0.4266  0.2690
19732TIP3   OH280686   3.577   3.051  11.940  0.5348 -0.1961 -0.0694
19732TIP3    H180687   3.521   3.033  11.865  0.0078 -0.0953  0.3011
19732TIP3    H280688   3.660   3.007  11.918  0.3112 -0.3647 -0.6008
19733TIP3   OH280689   1.152   4.483   1.678 -0.2322  0.3974 -0.1406
19733TIP3    H180690   1.237   4.523   1.697 -0.6006  0.8238  0.6665
19733TIP3    H280691   1.099   4.499   1.756 -0.2534 -2.1304  0.4626
19734TIP3   OH280692   2.256   3.494   1.224  0.0818 -0.9390  0.4296
19734TIP3    H180693   2.252   3.411   1.272 -0.7265  0.0967  2.2366
19734TIP3    H280694   2.350   3.509   1.211  0.3202 -1.2883  1.6298
19735TIP3   OH280695   0.154   1.539  11.509  0.0134 -0.0442  0.3040
19735TIP3    H180696   0.239   1.578  11.530  0.0366 -1.4852  3.5410
19735TIP3    H280697   0.091   1.589  11.561 -0.6625 -0.9581  0.3905
19736TIP3   OH280698   1.505   3.119  12.376 -0.5586  0.2571  0.4786
19736TIP3    H180699   1.516   3.090  12.285 -2.8717 -0.3445  0.3331
19736TIP3    H280700   1.551   3.052  12.427  0.0888  0.1625 -0.2068
19737TIP3   OH280701   5.519   1.338  11.623 -0.0990 -0.0728  0.0645
19737TIP3    H180702   5.461   1.413  11.608 -0.2657 -0.1893  0.1205
19737TIP3    H280703   5.515   1.288  11.541  1.6025  1.0321 -0.7596
19738TIP3   OH280704   3.620   4.085   3.966  0.4833 -0.0272 -0.4440
19738TIP3    H180705   3.624   4.002   3.918 -0.8988  0.4554 -1.4492
19738TIP3    H280706   3.681   4.073   4.039  0.4436 -1.8535 -0.6599
19739TIP3   OH280707   5.654   3.491  13.800  0.2078 -0.2992  0.2896
19739TIP3    H180708   5.610   3.551  13.860  0.1439 -1.1748  1.1377
19739TIP3    H280709   5.589   3.474  13.731 -0.7505 -1.4107  1.4193
19740TIP3   OH280710   6.244   5.838   1.323  0.1291 -0.4821  0.0015
19740TIP3    H180711   6.319   5.793   1.362  0.4985 -0.7941 -1.0276
19740TIP3    H280712   6.229   5.913   1.380  0.8172 -0.7685  0.5859
19741TIP3   OH280713   3.345   3.298   4.835  0.4979  0.2473 -0.0170
19741TIP3    H180714   3.437   3.300   4.862  0.8743  0.0305 -1.2273
19741TIP3    H280715   3.297   3.271   4.914  1.6566 -1.3397  0.1937
19742TIP3   OH280716   0.247   5.826  13.144 -0.4253 -1.0273  0.4805
19742TIP3    H180717   0.166   5.854  13.101 -0.1112  0.5021  0.8198
19742TIP3    H280718   0.301   5.790  13.073 -0.4536  0.1891 -0.1800
19743TIP3   OH280719   5.593   3.099   2.114  0.4943  0.1776  0.0579
19743TIP3    H180720   5.681   3.077   2.085  0.3980 -0.3052  0.1296
19743TIP3    H280721   5.576   3.185   2.075  0.6640 -0.1138 -0.6675
19744TIP3   OH280722   3.333   2.762  11.931  0.0069 -0.3019 -0.1195
19744TIP3    H180723   3.396   2.798  11.993 -0.9880 -2.1896  2.1658
19744TIP3    H280724   3.374   2.772  11.845  1.0483  3.2609  0.6659
19745TIP3   OH280725   6.558   5.940   0.671  0.4984 -0.0586 -0.3149
19745TIP3    H180726   6.649   5.961   0.694 -0.0770 -0.4700  2.9057
19745TIP3    H280727   6.536   5.867   0.729 -0.8689 -2.4250 -3.5093
19746TIP3   OH280728   6.331   4.885   0.618 -0.1292  0.2345 -0.4795
19746TIP3    H180729   6.388   4.811   0.639 -1.1354 -0.6626 -0.8255
19746TIP3    H280730   6.364   4.919   0.535  0.4295  0.2717 -0.2452
19747TIP3   OH280731   4.126   3.249   2.753  0.2405 -0.1033 -1.0267
19747TIP3    H180732   4.087   3.231   2.839  0.8365 -0.7183 -0.8824
19747TIP3    H280733   4.088   3.183   2.695 -1.1021  1.0451 -1.5390
19748TIP3   OH280734   4.596   5.164   5.806 -0.4796 -0.2793 -0.0083
19748TIP3    H180735   4.636   5.194   5.887 -0.5207  0.1036 -0.1302
19748TIP3    H280736   4.553   5.081   5.830  1.0592 -1.1321 -0.0622
19749TIP3   OH280737   0.970   6.493  12.122  0.6645  0.5155  0.0991
19749TIP3    H180738   0.929   6.409  12.100  0.1587  0.8273 -0.1967
19749TIP3    H280739   0.945   6.551  12.049  2.7753  0.3670 -0.8159
19750TIP3   OH280740   3.383   1.237  11.868  0.4876  0.5515  0.2349
19750TIP3    H180741   3.458   1.294  11.852  0.4500  0.3769 -0.5925
19750TIP3    H280742   3.324   1.254  11.795 -0.0215  0.2579  0.5702
19751TIP3   OH280743   0.650   1.270   1.092  0.5809  0.0809 -0.3096
19751TIP3    H180744   0.673   1.178   1.081 -0.0388 -0.0498 -0.5369
19751TIP3    H280745   0.590   1.271   1.167 -0.8936  0.0530 -1.4551
19752TIP3   OH280746   2.221   2.926   3.434 -0.2024  0.0332  0.3185
19752TIP3    H180747   2.182   3.002   3.479  2.1357  2.1898 -1.0090
19752TIP3    H280748   2.289   2.895   3.495  0.7907  0.9120 -0.3015
19753TIP3   OH280749   5.904   6.034   0.332 -0.2149 -0.7182 -0.0692
19753TIP3    H180750   5.825   6.040   0.386 -0.8925  0.4784 -1.1443
19753TIP3    H280751   5.973   6.071   0.387 -0.2578 -2.2919  1.0955
19754TIP3   OH280752   3.156   0.904   5.856 -0.0701  0.3291  0.0549
19754TIP3    H180753   3.068   0.909   5.819 -0.6722 -1.2931  1.1760
19754TIP3    H280754   3.142   0.891   5.950  1.4158  2.3146  0.6240
19755TIP3   OH280755   4.327   6.413   3.293  0.1680 -0.1889  0.1469
19755TIP3    H180756   4.263   6.439   3.359  0.8390  0.8755  0.4103
19755TIP3    H280757   4.386   6.353   3.338  0.3000  0.1031  0.3657
19756TIP3   OH280758   5.681   1.749   5.303  0.5377  0.1737 -0.3795
19756TIP3    H180759   5.602   1.718   5.348  0.3494  0.6503 -0.3743
19756TIP3    H280760   5.706   1.828   5.351  0.7174  0.3157 -0.7038
19757TIP3   OH280761   0.324   4.015   5.387 -0.1881  0.0462 -0.0871
19757TIP3    H180762   0.264   3.988   5.317  1.1855  1.2743 -1.8202
19757TIP3    H280763   0.381   4.080   5.346  0.8650  0.6134  2.1270
19758TIP3   OH280764   3.896   4.918  13.164  0.3271 -0.1854  0.1223
19758TIP3    H180765   3.870   4.958  13.247 -0.1104  0.1938 -0.1930
19758TIP3    H280766   3.842   4.839  13.157  0.2624 -0.1420  0.1321
19759TIP3   OH280767   2.764   2.110   3.583  0.0948 -0.0942  0.6615
19759TIP3    H180768   2.786   2.201   3.564 -1.1610 -0.0199 -0.6727
19759TIP3    H280769   2.723   2.113   3.670 -0.0262  0.6396  0.5890
19760TIP3   OH280770   4.649   6.501  11.221 -0.6457  0.1227  0.3878
19760TIP3    H180771   4.696   6.530  11.300  1.0460  0.7618 -0.7973
19760TIP3    H280772   4.683   6.414  11.203 -1.9995 -0.5883  1.0485
19761TIP3   OH280773   3.900   2.799   5.557  0.5971  0.2457  0.4836
19761TIP3    H180774   3.987   2.759   5.551  1.5725  2.0109  1.8434
19761TIP3    H280775   3.911   2.870   5.620 -0.9415  2.8383 -1.9452
19762TIP3   OH280776   4.818   1.654   2.220  0.2276  0.3472 -0.1284
19762TIP3    H180777   4.895   1.708   2.238  0.6087 -0.0303 -0.6166
19762TIP3    H280778   4.852   1.565   2.212  0.0224  0.4064 -2.1596
19763TIP3   OH280779   4.198   4.762  15.217 -0.2630  0.1430 -0.2427
19763TIP3    H180780   4.246   4.683  15.242 -0.3273  0.0272 -0.4845
19763TIP3    H280781   4.209   4.822  15.291  1.7065  0.7753 -0.9739
19764TIP3   OH280782   6.692   2.206  12.591  0.1038 -0.0975 -0.2890
19764TIP3    H180783   6.644   2.287  12.611  1.3218  0.1877  1.8621
19764TIP3    H280784   6.628   2.151  12.546 -1.7580  0.8507  1.0313
19765TIP3   OH280785   2.929   5.277   0.844  0.4685 -0.4148 -0.0605
19765TIP3    H180786   2.968   5.196   0.876  2.9762  0.3390 -0.9464
19765TIP3    H280787   2.915   5.330   0.922  0.8784 -0.8859  0.3385
19766TIP3   OH280788   4.356   2.410  14.260  0.0442 -0.1326  0.0229
19766TIP3    H180789   4.347   2.321  14.224 -0.4708 -0.5614  1.1861
19766TIP3    H280790   4.269   2.432  14.292  0.6132  0.0076  1.5326
19767TIP3   OH280791   3.533   0.884   2.510  0.0173  0.7767 -0.1023
19767TIP3    H180792   3.443   0.852   2.511  0.2694 -0.0711 -1.4396
19767TIP3    H280793   3.557   0.885   2.417  1.1966  1.5617  0.1852
19768TIP3   OH280794   5.048   3.240   0.228 -0.7841 -0.4415  0.3614
19768TIP3    H180795   5.092   3.155   0.218 -2.2736 -1.2458  0.2849
19768TIP3    H280796   4.956   3.221   0.210 -0.8731  1.6225 -1.8543
19769TIP3   OH280797   4.264   1.401   4.990 -0.2500 -0.4712 -0.6349
19769TIP3    H180798   4.337   1.352   5.026 -0.8204 -2.0691 -1.5399
19769TIP3    H280799   4.188   1.343   5.002 -1.1606  0.6490 -0.7666
19770TIP3   OH280800   1.346   0.549   5.454 -0.0969 -0.0483  0.4615
19770TIP3    H180801   1.326   0.547   5.547  1.4805 -1.4370  0.8285
19770TIP3    H280802   1.429   0.596   5.448  1.7708 -3.1098  0.2837
19771TIP3   OH280803   5.332   2.632   4.862 -0.1400 -0.2957 -0.1937
19771TIP3    H180804   5.274   2.707   4.872 -0.2401 -0.4337  0.2980
19771TIP3    H280805   5.376   2.624   4.947 -0.3911 -1.0080 -0.1271
19772TIP3   OH280806   3.410   1.168  11.341  0.0510  0.6747 -0.8412
19772TIP3    H180807   3.494   1.134  11.308 -1.0790 -2.1952 -1.0522
19772TIP3    H280808   3.384   1.233  11.276  1.2751  0.3173 -1.7480
19773TIP3   OH280809   0.187   0.167  13.274  0.3876  0.9252  0.6628
19773TIP3    H180810   0.221   0.221  13.345 -2.9686  2.0123  1.6430
19773TIP3    H280811   0.113   0.120  13.313  1.2147 -1.9908 -1.0037
19774TIP3   OH280812   6.373   3.037  15.109 -0.6567 -0.4473 -0.4147
19774TIP3    H180813   6.409   3.111  15.159 -0.6049  0.4058 -1.6517
19774TIP3    H280814   6.294   3.013  15.156 -0.3167 -0.0356  0.3854
19775TIP3   OH280815   4.952   6.335   3.019 -0.6432  0.3541 -0.2237
19775TIP3    H180816   5.036   6.292   3.032 -0.4762  0.5212 -0.7551
19775TIP3    H280817   4.950   6.358   2.926 -1.0136  0.9030 -0.0869
19776TIP3   OH280818   3.774   2.744  12.454 -0.0963 -0.0108 -0.1621
19776TIP3    H180819   3.817   2.717  12.535  0.9241  2.0275  0.0385
19776TIP3    H280820   3.686   2.771  12.481 -0.2723 -0.7333  0.0122
19777TIP3   OH280821   0.019   4.947  17.060 -0.5179  0.6995 -0.6653
19777TIP3    H180822   0.023   5.003  17.138 -0.9289 -0.4318  0.1928
19777TIP3    H280823   0.076   4.991  16.997  0.4439  1.2507  0.5274
19778TIP3   OH280824   5.811   3.019   1.899 -0.4842  0.1140  0.0377
19778TIP3    H180825   5.761   3.089   1.858 -1.8405  1.1657  3.1770
19778TIP3    H280826   5.746   2.951   1.917  0.0978 -0.3868  0.2966
19779TIP3   OH280827   5.186   3.305   5.285  0.3705  0.4693  0.2709
19779TIP3    H180828   5.138   3.344   5.213  0.8562  0.8199  0.1316
19779TIP3    H280829   5.278   3.316   5.261  0.6101  2.1547  1.7375
19780TIP3   OH280830   4.134   3.458   0.959  0.0416  0.4127 -0.4853
19780TIP3    H180831   4.103   3.517   1.028  2.1250  1.3517 -0.2610
19780TIP3    H280832   4.182   3.390   1.006 -0.3423 -0.1447 -0.8906
19781TIP3   OH280833   5.731   3.803  15.237  0.6088 -0.5280  0.2709
19781TIP3    H180834   5.675   3.842  15.169  1.5112 -1.7542 -1.2546
19781TIP3    H280835   5.673   3.744  15.284 -0.1239  0.6196  0.8631
19782TIP3   OH280836   6.463   4.909   1.536  0.3316  0.2335 -0.4332
19782TIP3    H180837   6.513   4.976   1.584  0.0730  1.7835 -2.1747
19782TIP3    H280838   6.389   4.889   1.592  0.3414  1.5628  0.0969
19783TIP3   OH280839   1.513   1.420   0.763 -0.0695 -0.0732  0.0036
19783TIP3    H180840   1.532   1.481   0.692  2.4276  0.0133  0.6246
19783TIP3    H280841   1.515   1.473   0.842 -0.5409 -0.5294  0.3298
19784TIP3   OH280842   4.661   4.546  15.072 -0.1118  0.3494  0.0027
19784TIP3    H180843   4.662   4.504  15.158 -0.2531  2.1825  0.9324
19784TIP3    H280844   4.664   4.472  15.010 -2.1319 -1.1311  1.5189
19785TIP3   OH280845   5.786   5.594   0.684 -0.4923 -0.1071  0.5279
19785TIP3    H180846   5.722   5.577   0.753  0.4657 -0.4268  1.3449
19785TIP3    H280847   5.809   5.508   0.651 -2.0133  0.0795 -1.2355
19786TIP3   OH280848   0.981   2.554  12.894  0.7336 -0.2419  0.2203
19786TIP3    H180849   0.912   2.545  12.828  0.6474 -1.5526  0.4635
19786TIP3    H280850   1.038   2.623  12.859 -0.1299  0.1443 -0.4761
19787TIP3   OH280851   2.769   4.225   0.407 -0.7138  0.0402 -0.3952
19787TIP3    H180852   2.786   4.133   0.429 -0.1838 -0.2569 -1.8838
19787TIP3    H280853   2.729   4.221   0.320 -0.6638  1.2167 -0.4791
19788TIP3   OH280854   6.654   0.414  12.141  0.2696  0.1299  0.0161
19788TIP3    H180855   6.733   0.365  12.119  1.8110  2.7217 -0.5691
19788TIP3    H280856   6.625   0.451  12.058 -0.2566  1.0397  0.5988
19789TIP3   OH280857   3.602   0.765   0.219 -0.2707  0.3567 -0.1201
19789TIP3    H180858   3.688   0.739   0.186 -0.8687  0.0206 -1.4776
19789TIP3    H280859   3.560   0.808   0.145 -1.9316 -1.0573 -0.0662
19790TIP3   OH280860   4.433   2.896   1.121 -0.0950  0.3844  0.0430
19790TIP3    H180861   4.430   2.980   1.076  0.1885  1.0763  1.2571
19790TIP3    H280862   4.526   2.877   1.130 -0.1135  0.8081  1.2881
19791TIP3   OH280863   2.629   0.684   6.205 -0.0857  0.1746 -0.1042
19791TIP3    H180864   2.681   0.747   6.155 -1.4998  1.0120 -0.6142
19791TIP3    H280865   2.547   0.677   6.155 -1.3900  0.7134  1.8432
19792TIP3   OH280866   0.932   4.896  15.765  0.3405  0.9696 -0.3183
19792TIP3    H180867   0.849   4.861  15.798  0.8566 -1.0051 -0.9735
19792TIP3    H280868   0.938   4.984  15.803 -1.0602  0.3785  1.4110
19793TIP3   OH280869   1.101   4.313  14.275 -0.1129  0.5451  0.3632
19793TIP3    H180870   1.094   4.269  14.190  0.3090  1.5757 -0.2257
19793TIP3    H280871   1.039   4.385  14.270  1.7929  2.2377 -0.1335
19794TIP3   OH280872   0.061   6.657   0.610 -0.0048 -0.2247 -0.0944
19794TIP3    H180873   0.101   6.574   0.635 -1.8542 -1.3655 -0.6469
19794TIP3    H280874  -0.018   6.632   0.563 -0.4184  1.8725 -0.6425
19795TIP3   OH280875   4.862   1.402  16.633 -0.2759 -0.2938 -1.0534
19795TIP3    H180876   4.886   1.391  16.541 -1.3126  0.7662 -1.4793
19795TIP3    H280877   4.814   1.485  16.635 -1.5241 -1.0153  0.1997
19796TIP3   OH280878   1.620   6.679   4.859  0.5843  0.2345 -0.0171
19796TIP3    H180879   1.648   6.598   4.817 -0.5574  0.1519 -0.6484
19796TIP3    H280880   1.561   6.651   4.929 -1.6301  0.5524 -1.6463
19797TIP3   OH280881   1.723   3.631  13.606 -0.2676  0.1990 -0.4309
19797TIP3    H180882   1.806   3.601  13.571  0.9262  0.4584  1.9927
19797TIP3    H280883   1.693   3.698  13.544  0.2242 -1.3681 -2.4606
19798TIP3   OH280884   5.475   6.656   4.517 -0.1777 -0.1850  0.3685
19798TIP3    H180885   5.424   6.737   4.527 -0.0046  0.1203 -1.0756
19798TIP3    H280886   5.562   6.679   4.549  0.0563  0.4207 -0.6691
19799TIP3   OH280887   4.854   2.069  15.488  0.0459 -0.2176 -0.4728
19799TIP3    H180888   4.925   2.009  15.465  0.4172  0.8327 -2.2864
19799TIP3    H280889   4.846   2.127  15.412 -0.2118  2.1137  1.2132
19800TIP3   OH280890   0.685   3.389  14.501 -0.3949  0.2344  0.3270
19800TIP3    H180891   0.734   3.341  14.567 -0.5202 -1.4480 -0.7474
19800TIP3    H280892   0.595   3.360  14.512 -0.6973  1.1636  0.4338
19801TIP3   OH280893   4.589   3.998   4.505 -0.4824 -0.0255  0.1170
19801TIP3    H180894   4.527   3.935   4.468 -0.6268 -0.6981  1.4396
19801TIP3    H280895   4.643   3.946   4.565  1.6013  0.4652 -1.2290
19802TIP3   OH280896   5.352   2.125   5.409  0.0620  0.6275  0.3144
19802TIP3    H180897   5.320   2.044   5.447 -2.0028  1.2999  0.1216
19802TIP3    H280898   5.397   2.098   5.329  1.0239 -0.4560  1.1883
19803TIP3   OH280899   4.617   1.605  15.639 -0.3126 -0.0395 -0.3730
19803TIP3    H180900   4.709   1.586  15.624 -0.0782 -1.0693  1.9516
19803TIP3    H280901   4.604   1.693  15.602  1.4721 -0.0534 -1.1197
19804TIP3   OH280902   2.580   0.065   0.808 -0.0169  0.5403  0.0598
19804TIP3    H180903   2.547   0.004   0.873  0.3693  0.3603  0.0871
19804TIP3    H280904   2.674   0.068   0.823  0.0880  0.4267 -0.5499
19805TIP3   OH280905   6.063   5.065  11.465  0.1445  0.2766  0.4034
19805TIP3    H180906   6.137   5.021  11.507  0.2162 -1.5745 -1.4834
19805TIP3    H280907   6.101   5.141  11.421  0.4160  0.9339  1.7140
19806TIP3   OH280908   1.607   0.284   4.120  0.1303  0.7199  0.3325
19806TIP3    H180909   1.537   0.329   4.168 -0.6303 -1.1644  1.1252
19806TIP3    H280910   1.678   0.275   4.184 -0.0756  0.0501  0.4828
19807TIP3   OH280911   4.740   3.416   5.953  0.0498 -0.5443  0.2750
19807TIP3    H180912   4.663   3.361   5.964 -0.4892  0.2475  0.5662
19807TIP3    H280913   4.802   3.361   5.906 -1.2683 -0.7104 -1.3814
19808TIP3   OH280914   0.446   0.805   1.167 -0.3306 -0.0376 -0.4789
19808TIP3    H180915   0.410   0.720   1.142 -0.9610  0.7110 -2.2943
19808TIP3    H280916   0.463   0.850   1.084  2.5041  0.6396  0.3380
19809TIP3   OH280917   2.463   1.786  10.467  0.5516  0.0267 -0.0228
19809TIP3    H180918   2.540   1.781  10.409  0.2251 -0.1189 -0.4518
19809TIP3    H280919   2.411   1.857  10.429  0.3076 -0.1080  0.0643
19810TIP3   OH280920   3.301   0.741  16.451 -0.0471  0.0885 -0.7395
19810TIP3    H180921   3.219   0.769  16.411 -0.8277 -0.1822  0.6015
19810TIP3    H280922   3.347   0.822  16.472 -0.8272  0.3069  0.1834
19811TIP3   OH280923   0.462   0.091  13.877 -0.3738  0.1918 -0.0745
19811TIP3    H180924   0.414   0.168  13.844  1.1576  0.3538 -2.1028
19811TIP3    H280925   0.416   0.017  13.839  1.0096  0.3570 -2.2356
19812TIP3   OH280926   1.996   3.015   0.088  0.2215  0.3727  0.2178
19812TIP3    H180927   2.042   2.940   0.125 -0.5460 -0.2315 -0.0335
19812TIP3    H280928   1.928   2.977   0.033  0.6309  1.2583 -0.9347
19813TIP3   OH280929   1.701   0.225  13.780 -0.5950  0.2111  0.5032
19813TIP3    H180930   1.783   0.272  13.791  0.8451 -1.9454 -0.4501
19813TIP3    H280931   1.641   0.290  13.742  0.8497  1.6393  0.5680
19814TIP3   OH280932   1.138   4.943  13.970  0.3808  0.5477  0.0387
19814TIP3    H180933   1.092   5.021  14.002 -2.6596 -1.4883  1.0872
19814TIP3    H280934   1.178   4.905  14.049 -0.5591 -0.3793  0.0958
19815TIP3   OH280935   6.146   6.213  13.917 -0.0127 -0.5234  0.1954
19815TIP3    H180936   6.052   6.234  13.913  0.1096  0.1612  0.7149
19815TIP3    H280937   6.160   6.185  14.007  0.3938 -0.0690  0.2742
19816TIP3   OH280938   0.104   3.777   2.355 -0.1342  0.0044 -0.4510
19816TIP3    H180939   0.065   3.864   2.362  0.4226  0.3138 -1.1176
19816TIP3    H280940   0.059   3.725   2.423 -0.9380  0.6270 -0.4917
19817TIP3   OH280941   1.770   2.381  12.673  0.4927 -0.1566 -0.1737
19817TIP3    H180942   1.839   2.330  12.716  0.0988 -1.3858 -0.9213
19817TIP3    H280943   1.695   2.322  12.670 -0.1050  0.6042 -0.7457
19818TIP3   OH280944   5.607   6.423  14.757  0.5323  0.2273 -0.5997
19818TIP3    H180945   5.568   6.492  14.703  1.2858  2.7543  1.8612
19818TIP3    H280946   5.700   6.446  14.761  0.2133  1.5080  3.3786
19819TIP3   OH280947   5.740   6.424  13.189 -0.2538 -0.0927  0.8352
19819TIP3    H180948   5.755   6.514  13.218 -1.3628 -0.2999  2.1835
19819TIP3    H280949   5.820   6.399  13.144 -0.1037  1.7220 -0.0106
19820TIP3   OH280950   3.771   2.108  14.928 -0.4977  0.0016 -0.3401
19820TIP3    H180951   3.784   2.038  14.864 -2.1447  0.0359 -0.7781
19820TIP3    H280952   3.802   2.071  15.010  1.6054 -0.0582 -1.1119
19821TIP3   OH280953   6.136   0.407   4.586 -0.1144 -0.5851 -0.4538
19821TIP3    H180954   6.224   0.444   4.578 -0.8160  1.1579 -0.4514
19821TIP3    H280955   6.146   0.317   4.555  0.9145  0.6457 -4.2231
19822TIP3   OH280956   0.710   4.931  13.705 -0.4001  0.6401  0.6131
19822TIP3    H180957   0.649   5.000  13.679 -0.8983 -0.2386 -0.5761
19822TIP3    H280958   0.795   4.960  13.670 -0.2779  1.3972  1.4733
19823TIP3   OH280959   5.374   0.925   0.592 -0.1699 -0.4004 -0.1077
19823TIP3    H180960   5.446   0.936   0.529  1.0092 -2.0378  0.8772
19823TIP3    H280961   5.308   0.988   0.564  2.3606  2.5123  0.0117
19824TIP3   OH280962   0.818   1.612  11.939  0.7030  0.1948 -0.0275
19824TIP3    H180963   0.889   1.590  11.878 -0.5811  0.3141 -1.6202
19824TIP3    H280964   0.810   1.707  11.932  2.5387  0.6661  2.6724
19825TIP3   OH280965   0.397   0.412   2.978  0.3656 -0.3473  0.2986
19825TIP3    H180966   0.323   0.440   3.031  1.4532  0.0282  1.7044
19825TIP3    H280967   0.466   0.477   2.997  1.4534 -1.3806  0.0155
19826TIP3   OH280968   5.266   2.100   4.719  0.4032  0.0996  0.2237
19826TIP3    H180969   5.310   2.164   4.663  1.0278 -0.0133  0.5780
19826TIP3    H280970   5.267   2.019   4.669 -2.1031  0.7561 -1.0687
19827TIP3   OH280971   4.364   1.511   3.784  0.1223  0.0752 -0.0289
19827TIP3    H180972   4.457   1.490   3.774 -0.0585 -1.4822  1.1386
19827TIP3    H280973   4.334   1.531   3.696  0.8952 -2.4191 -0.9428
19828TIP3   OH280974   2.214   0.331   4.138 -0.0624 -0.5397 -0.5423
19828TIP3    H180975   2.305   0.344   4.111  0.1164  1.0438  0.6642
19828TIP3    H280976   2.162   0.357   4.062  0.4692 -0.8482 -1.0211
19829TIP3   OH280977   6.644   3.574   4.460  0.5554  0.6654 -0.1400
19829TIP3    H180978   6.656   3.666   4.435 -0.1787  0.5823 -0.8203
19829TIP3    H280979   6.582   3.577   4.533  0.6313  0.7194 -0.0776
19830TIP3   OH280980   5.585   2.382   2.716 -0.6891 -0.0650 -0.2225
19830TIP3    H180981   5.523   2.349   2.781  0.2622 -0.7556  0.3723
19830TIP3    H280982   5.532   2.435   2.656 -2.7046 -3.8429 -2.1775
19831TIP3   OH280983   4.518   0.019  11.769 -0.5755  0.7091  0.4551
19831TIP3    H180984   4.466   0.099  11.781  0.6427  1.3902  1.3912
19831TIP3    H280985   4.599   0.035  11.818 -0.7151 -1.5151  1.5201
19832TIP3   OH280986   1.917   5.520   5.140  0.1440  0.0085  0.1129
19832TIP3    H180987   1.958   5.551   5.059  1.0398 -0.5973  0.3159
19832TIP3    H280988   1.893   5.429   5.121 -1.1627  0.3607 -0.0086
19833TIP3   OH280989   2.909   5.155  12.346  0.2238  0.5108 -0.3885
19833TIP3    H180990   2.896   5.155  12.251 -1.2312 -1.9613 -0.2821
19833TIP3    H280991   2.996   5.193  12.358  1.1113 -0.5257 -2.8396
19834TIP3   OH280992   5.071   5.086  11.411  0.2850  0.2687  0.1281
19834TIP3    H180993   5.086   5.106  11.503  1.0178 -0.6278  0.2233
19834TIP3    H280994   5.091   5.167  11.364 -0.1305  0.7393  0.7492
19835TIP3   OH280995   3.518   5.781  14.215  0.0280  0.7584  0.4345
19835TIP3    H180996   3.478   5.702  14.252  0.3087  0.8012  0.8350
19835TIP3    H280997   3.569   5.818  14.286 -1.9617  2.6117  1.0034
19836TIP3   OH280998   2.579   2.008   1.852  0.5677 -0.0693  0.6953
19836TIP3    H180999   2.495   2.036   1.815 -0.5349 -0.0620  3.0437
19836TIP3    H281000   2.638   2.081   1.834 -1.4579  2.6567  3.9970
19837TIP3   OH281001   4.559   3.563   4.172 -0.0331  0.3893  0.0481
19837TIP3    H181002   4.571   3.532   4.262  1.5156  0.7195 -0.0165
19837TIP3    H281003   4.488   3.509   4.138 -0.8896  0.4883  1.5575
19838TIP3   OH281004   6.432   4.766  13.518 -0.7481 -0.1471  0.2948
19838TIP3    H181005   6.393   4.734  13.436  1.1327 -0.6720 -0.4530
19838TIP3    H281006   6.516   4.721  13.523  0.9006  2.7144  0.5332
19839TIP3   OH281007   1.760   2.391   2.165  0.0595 -0.4134  0.6883
19839TIP3    H181008   1.785   2.379   2.256 -0.6185  1.4863  1.1762
19839TIP3    H281009   1.841   2.381   2.116  0.5996 -0.5812  1.5927
19840TIP3   OH281010   4.960   3.808   6.031 -0.2486  0.6322  0.4220
19840TIP3    H181011   4.907   3.752   5.974  0.0395  0.3132  0.4639
19840TIP3    H281012   5.001   3.747   6.093 -0.0889  0.9097  0.5889
19841TIP3   OH281013   2.577   2.030  14.614 -0.0017 -0.0223  0.4699
19841TIP3    H181014   2.535   1.983  14.541 -0.7926 -1.6664  1.8854
19841TIP3    H281015   2.671   2.019  14.599 -0.1514 -0.3359 -0.3037
19842TIP3   OH281016   2.111   6.404   5.325 -0.0001  0.3780 -0.4928
19842TIP3    H181017   2.143   6.319   5.294  0.8279  0.1245  0.9844
19842TIP3    H281018   2.049   6.432   5.257  0.2173 -1.0799 -1.3395
19843TIP3   OH281019   2.091   3.533   0.996 -0.1589  0.5012 -0.1111
19843TIP3    H181020   2.062   3.624   1.001 -1.0282  0.1781  1.3033
19843TIP3    H281021   2.139   3.518   1.078 -0.0198 -0.3060 -0.3246
19844TIP3   OH281022   2.220   0.742  13.711  0.1429 -0.2824  0.4972
19844TIP3    H181023   2.131   0.774  13.693  0.4997  1.1500  1.1412
19844TIP3    H281024   2.212   0.697  13.794  0.2546  1.0426  1.2557
19845TIP3   OH281025   2.122   1.413   2.396 -0.3779 -0.2390  0.2130
19845TIP3    H181026   2.190   1.411   2.463 -0.7586  1.5651  0.7101
19845TIP3    H281027   2.114   1.322   2.367  0.7553 -0.8349  1.6386
19846TIP3   OH281028   2.205   4.225  14.530 -0.0267 -0.0846  0.0987
19846TIP3    H181029   2.162   4.143  14.504  1.6148 -0.7141 -0.7433
19846TIP3    H281030   2.193   4.283  14.454 -0.2184  0.0726  0.2488
19847TIP3   OH281031   5.292   1.761  16.689 -0.4538  0.7876 -0.5014
19847TIP3    H181032   5.287   1.852  16.720  0.7744  0.7039 -0.0237
19847TIP3    H281033   5.312   1.710  16.767 -2.2238 -0.0713 -0.5508
19848TIP3   OH281034   3.531   6.035   2.143 -0.3207 -0.1527  0.0747
19848TIP3    H181035   3.571   6.071   2.222  2.2853  1.1980 -1.7046
19848TIP3    H281036   3.490   5.953   2.172 -2.8052  2.0324  3.4760
19849TIP3   OH281037   0.037   4.822   5.185  0.1514 -0.3679  0.2504
19849TIP3    H181038   0.055   4.877   5.261 -1.5896 -0.0298  0.4433
19849TIP3    H281039   0.087   4.742   5.202  3.6909  1.4378 -0.5723
19850TIP3   OH281040   5.113   2.881   1.273  0.2961  0.0252  0.1849
19850TIP3    H181041   5.184   2.822   1.297 -1.3177 -1.1062  2.7228
19850TIP3    H281042   5.044   2.824   1.240 -0.3537  0.7933  0.1701
19851TIP3   OH281043   0.096   6.444  16.432 -0.1533  0.3719 -0.2671
19851TIP3    H181044   0.003   6.448  16.410 -0.3809 -0.6679  0.4554
19851TIP3    H281045   0.106   6.363  16.481  1.2044  0.3136 -0.6059
19852TIP3   OH281046   2.026   2.634   6.034 -0.2126 -0.3554 -0.5073
19852TIP3    H181047   2.005   2.542   6.054  0.9458 -1.0041 -2.0536
19852TIP3    H281048   2.108   2.629   5.984  2.5611  1.8077  3.2710
19853TIP3   OH281049   0.777   3.800   4.238  0.2756  0.4548  0.4794
19853TIP3    H181050   0.762   3.886   4.278  2.4344  0.5909  1.1078
19853TIP3    H281051   0.775   3.818   4.144 -1.5486  0.7279  0.5254
19854TIP3   OH281052   0.557   6.150   1.442 -0.0352 -0.0421 -0.2608
19854TIP3    H181053   0.614   6.146   1.365  0.3331 -0.4505  0.0282
19854TIP3    H281054   0.614   6.178   1.513  0.7626 -3.9540  0.8724
19855TIP3   OH281055   5.789   4.309  14.601 -0.5162  0.0264  0.4879
19855TIP3    H181056   5.836   4.373  14.655 -0.7731 -1.5658  2.7368
19855TIP3    H281057   5.819   4.224  14.633 -1.6818 -1.0171 -1.0453
19856TIP3   OH281058   2.647   4.627   4.476  0.3538  0.5379 -0.4296
19856TIP3    H181059   2.681   4.568   4.543  0.1223 -0.0305 -0.8076
19856TIP3    H281060   2.610   4.700   4.524  1.3297  0.7519  0.0248
19857TIP3   OH281061   1.161   4.134   5.066 -0.2381 -0.1117  0.1470
19857TIP3    H181062   1.214   4.078   5.123  1.3387  1.1018 -0.0803
19857TIP3    H281063   1.220   4.159   4.995 -1.4231  0.4632 -0.6703
19858TIP3   OH281064   2.753   1.094   2.731  0.1746  0.2289  0.0656
19858TIP3    H181065   2.731   1.102   2.638 -0.8677 -0.0683  0.2664
19858TIP3    H281066   2.682   1.141   2.776 -1.9011 -3.3265  0.8950
19859TIP3   OH281067   2.679   2.410   3.895 -0.0403  0.3864  0.2842
19859TIP3    H181068   2.640   2.494   3.873 -1.4823 -0.2131  0.4493
19859TIP3    H281069   2.611   2.364   3.944  0.1251 -1.4598 -1.1159
19860TIP3   OH281070   2.906   5.868   0.110  0.1729 -0.0200  0.0211
19860TIP3    H181071   2.894   5.839   0.019 -0.1577  0.0136  0.0550
19860TIP3    H281072   2.896   5.963   0.106 -2.7074 -0.2105  0.5319
19861TIP3   OH281073   2.610   5.660  13.070  0.4955 -0.1715 -0.3197
19861TIP3    H181074   2.583   5.587  13.125  1.5865  0.1479  0.6693
19861TIP3    H281075   2.555   5.733  13.097  0.7656 -0.1147  0.0716
19862TIP3   OH281076   6.591   6.418  13.087 -0.1230  0.4032 -0.0171
19862TIP3    H181077   6.545   6.492  13.126 -0.1525  0.2999  0.1441
19862TIP3    H281078   6.552   6.408  13.000 -0.4041  0.3150  0.1202
19863TIP3   OH281079   3.359   5.200  14.807 -0.0228 -0.6364 -0.2003
19863TIP3    H181080   3.287   5.239  14.756  2.6441  1.8070 -2.4586
19863TIP3    H281081   3.354   5.244  14.892 -1.0881 -0.3662 -0.3866
19864TIP3   OH281082   2.587   5.670  12.092 -0.4073 -0.3395 -0.3968
19864TIP3    H181083   2.531   5.746  12.106  1.2048  0.9452 -0.5956
19864TIP3    H281084   2.629   5.687  12.007  0.5817 -1.0525 -0.0707
19865TIP3   OH281085   6.277   3.960   2.045 -0.4415  0.1195  0.3933
19865TIP3    H181086   6.323   3.927   1.968 -0.3664  0.5566  0.2490
19865TIP3    H281087   6.275   3.885   2.106 -0.0124 -0.0592  0.1903
19866TIP3   OH281088   6.148   5.696  14.042 -0.0496 -0.5088  0.1341
19866TIP3    H181089   6.233   5.656  14.063  0.4947  0.8192  0.5937
19866TIP3    H281090   6.167   5.754  13.967 -0.9212 -1.4400 -0.8430
19867TIP3   OH281091   5.525   1.097   6.167 -0.2500  0.4342 -0.5924
19867TIP3    H181092   5.613   1.070   6.143 -0.1795 -0.4105  0.4974
19867TIP3    H281093   5.509   1.053   6.251 -1.1132  1.8276  0.0149
19868TIP3   OH281094   2.150   6.723   2.481 -0.2149 -0.0866  0.3278
19868TIP3    H181095   2.231   6.675   2.496 -1.2147 -1.9906  0.0144
19868TIP3    H281096   2.168   6.812   2.512  2.5694  0.0920 -1.3914
19869TIP3   OH281097   2.162   5.018   2.036 -0.8757  0.2298  0.0295
19869TIP3    H181098   2.227   4.950   2.017 -0.6758  0.1622  0.8895
19869TIP3    H281099   2.083   4.988   1.991  0.0182  0.9981 -2.1547
19870TIP3   OH281100   6.310   2.402  16.627 -0.0150  0.2310  0.0653
19870TIP3    H181101   6.219   2.391  16.600  0.0741 -1.4734  0.3237
19870TIP3    H281102   6.320   2.496  16.640 -1.9990  0.3888  0.8965
19871TIP3   OH281103   3.974   4.103  10.966  0.0654 -0.0557  0.2524
19871TIP3    H181104   3.889   4.146  10.964  0.1738  0.1478 -0.2545
19871TIP3    H281105   4.003   4.105  10.875  0.1071 -1.1333  0.2348
19872TIP3   OH281106   2.764   5.085   5.481  0.2606 -0.4108  0.0178
19872TIP3    H181107   2.762   4.993   5.456 -0.8440 -0.1998 -0.7199
19872TIP3    H281108   2.767   5.083   5.577 -0.0227 -1.2112  0.0195
19873TIP3   OH281109   5.072   3.057  13.929  0.6916 -0.4190 -0.4173
19873TIP3    H181110   5.068   3.115  13.854  2.4116  1.7400  1.0398
19873TIP3    H281111   4.992   3.075  13.978  1.1743  0.7587 -0.0170
19874TIP3   OH281112   6.785   4.400   2.123  0.1711 -0.1126  0.1899
19874TIP3    H181113   6.703   4.395   2.074 -0.8759  1.7693  1.5832
19874TIP3    H281114   6.762   4.371   2.212  1.2424 -0.3995  0.3949
19875TIP3   OH281115   4.427   0.180   0.478  0.3722 -0.1087 -0.2904
19875TIP3    H181116   4.446   0.234   0.555  0.2919 -0.7938  0.2239
19875TIP3    H281117   4.449   0.091   0.505 -0.8850 -0.5440 -0.6053
19876TIP3   OH281118   2.100   1.154   5.817  0.4753 -0.1909  0.7198
19876TIP3    H181119   2.144   1.222   5.867  0.5076 -1.1640  2.0895
19876TIP3    H281120   2.171   1.097   5.787  0.4182  0.1554 -0.0991
19877TIP3   OH281121   4.929   5.495  17.159 -0.6885  0.5762  0.0879
19877TIP3    H181122   4.898   5.543  17.082 -2.7179 -0.9880 -0.1650
19877TIP3    H281123   4.969   5.416  17.122  1.2520  1.2935  0.5543
19878TIP3   OH281124   2.281   4.799  14.122  0.0712 -0.0403  0.2798
19878TIP3    H181125   2.366   4.768  14.154  0.2900  0.1190 -0.1418
19878TIP3    H281126   2.217   4.753  14.176  0.4392  0.6462  1.3400
19879TIP3   OH281127   2.827   0.242  16.758  0.2188 -0.1700  0.5087
19879TIP3    H181128   2.815   0.271  16.668  1.7791 -0.1168  0.2999
19879TIP3    H281129   2.780   0.306  16.811  1.3861  1.2511 -0.1161
19880TIP3   OH281130   0.688   6.821  14.014 -0.4357  0.2306 -0.5941
19880TIP3    H181131   0.701   6.753  14.079 -0.3021 -0.4637 -1.3275
19880TIP3    H281132   0.593   6.823  14.001 -0.6093  1.3852  0.6615
19881TIP3   OH281133   2.402   5.702   3.987 -0.1597  0.4398  0.3720
19881TIP3    H181134   2.352   5.781   3.963  1.1962  1.0536 -0.5487
19881TIP3    H281135   2.355   5.630   3.946 -1.3254  0.7717  1.0797
19882TIP3   OH281136   3.991   4.433   4.348 -0.7869 -0.3123  0.6671
19882TIP3    H181137   4.065   4.478   4.307 -1.1260 -0.1853  0.1893
19882TIP3    H281138   4.030   4.356   4.390 -0.5348 -0.9159 -0.6096
19883TIP3   OH281139   1.177   6.546  15.463  0.3795 -0.2119  0.2050
19883TIP3    H181140   1.083   6.544  15.480  0.5040  2.4198  1.7538
19883TIP3    H281141   1.192   6.632  15.422  1.8861 -1.3851 -1.9389
19884TIP3   OH281142   6.591   5.734   0.888  0.0471 -1.0589  0.3106
19884TIP3    H181143   6.552   5.652   0.917 -0.8502 -0.2308  1.5476
19884TIP3    H281144   6.582   5.792   0.963  3.0383 -0.5843  0.4275
19885TIP3   OH281145   3.671   0.814  16.100  0.4728  0.2884  0.0726
19885TIP3    H181146   3.638   0.884  16.044 -0.3690 -0.6522 -0.6374
19885TIP3    H281147   3.597   0.791  16.155  0.5672 -0.4200 -0.0881
19886TIP3   OH281148   2.205   0.673  11.348  0.1740 -0.7123 -0.3784
19886TIP3    H181149   2.220   0.751  11.295 -0.8965  0.4059  0.9061
19886TIP3    H281150   2.249   0.691  11.431  1.5837 -2.3217 -0.7163
19887TIP3   OH281151   5.414   5.030   2.824 -0.4507  0.1154 -0.1423
19887TIP3    H181152   5.496   5.061   2.863  0.3798 -0.7116 -1.1393
19887TIP3    H281153   5.390   4.954   2.877 -0.8572  0.6640  0.4657
19888TIP3   OH281154   6.498   4.053   3.505 -0.2888  0.2009 -0.3592
19888TIP3    H181155   6.483   4.047   3.410 -1.8560  1.4013 -0.2204
19888TIP3    H281156   6.537   4.139   3.517  0.3406 -0.1368  0.0600
19889TIP3   OH281157   0.992   0.425   0.927 -0.2566 -0.3303 -0.1848
19889TIP3    H181158   1.054   0.482   0.973 -1.1752 -1.4366  2.6781
19889TIP3    H281159   0.907   0.465   0.941 -0.7100 -1.4127  0.2843
19890TIP3   OH281160   5.929   5.297  12.496  0.4817  0.3295  0.0746
19890TIP3    H181161   5.976   5.315  12.415  0.8716  1.6650  0.5710
19890TIP3    H281162   5.952   5.207  12.518  0.0966 -0.1647 -1.4644
19891TIP3   OH281163   4.851   2.351   0.397 -0.0683 -0.7412 -0.3009
19891TIP3    H181164   4.931   2.379   0.442 -0.2404  1.7937 -1.3926
19891TIP3    H281165   4.780   2.381   0.454 -0.3131  3.0854 -2.2345
19892TIP3   OH281166   0.925   3.767   2.746  0.6141 -0.3191  0.4711
19892TIP3    H181167   0.880   3.776   2.830  2.6650  0.4670  1.5386
19892TIP3    H281168   1.001   3.824   2.753  0.5052  0.2691 -2.1829
19893TIP3   OH281169   4.447   3.406   3.597 -0.4288  0.7669  0.2220
19893TIP3    H181170   4.512   3.408   3.528  0.2236  2.1482  0.8489
19893TIP3    H281171   4.495   3.427   3.677 -1.2331 -0.4279  1.0633
19894TIP3   OH281172   1.999   3.932  15.386  0.2162 -0.4518  0.1145
19894TIP3    H181173   2.079   3.985  15.388  0.7560 -1.2653  1.1762
19894TIP3    H281174   1.929   3.993  15.413  0.7512 -0.1533  0.8639
19895TIP3   OH281175   2.535   0.493  16.610 -0.2131 -0.1300 -0.0650
19895TIP3    H181176   2.562   0.574  16.567 -1.4971  0.1130 -0.4494
19895TIP3    H281177   2.610   0.434  16.598  1.0903  1.2216  0.9408
19896TIP3   OH281178   0.856   3.399   5.942 -0.3585  0.2655  0.3292
19896TIP3    H181179   0.879   3.401   5.849  2.9317 -0.5848  1.0119
19896TIP3    H281180   0.844   3.490   5.967 -1.5972  0.4877 -0.9243
19897TIP3   OH281181   2.298   1.370   5.984 -0.3550  0.4649  0.1484
19897TIP3    H181182   2.233   1.440   5.985 -1.2859 -0.3708  1.2444
19897TIP3    H281183   2.377   1.410   6.020 -1.3912  0.5425  2.5445
19898TIP3   OH281184   0.976   3.961  13.668 -0.8347 -0.0131  0.1463
19898TIP3    H181185   1.043   4.026  13.688 -0.2890 -0.2725 -0.7497
19898TIP3    H281186   0.935   3.993  13.587 -1.4197 -0.1326  0.3926
19899TIP3   OH281187   6.132   5.605  16.528 -0.1182 -0.3881  0.0186
19899TIP3    H181188   6.220   5.620  16.493 -1.2432 -0.3363 -2.9983
19899TIP3    H281189   6.088   5.690  16.520 -0.2093 -0.1327  2.4794
19900TIP3   OH281190   4.606   1.120  12.954 -0.6406  0.1913  0.4113
19900TIP3    H181191   4.535   1.140  12.892 -1.6376 -1.0415  1.1026
19900TIP3    H281192   4.626   1.028  12.938 -1.7807 -0.5357  2.6939
19901TIP3   OH281193   4.759   2.029   2.077  0.0551 -0.4969  0.0174
19901TIP3    H181194   4.804   1.961   2.028 -0.8097 -1.6174  0.7348
19901TIP3    H281195   4.735   2.094   2.011  2.3653 -0.0157 -0.4367
19902TIP3   OH281196   3.596   0.544   4.698  0.1277  0.2239 -0.9987
19902TIP3    H181197   3.545   0.598   4.639 -2.5684 -1.0112  0.0261
19902TIP3    H281198   3.679   0.590   4.708 -1.6812  3.7389 -0.8089
19903TIP3   OH281199   4.194   5.313  15.502  0.5189  0.0524  0.0061
19903TIP3    H181200   4.247   5.250  15.453 -0.7941 -1.3597  0.3345
19903TIP3    H281201   4.137   5.352  15.436  0.5466  0.0639 -0.0108
19904TIP3   OH281202   4.355   3.613  15.630 -0.4397 -0.8203  0.4651
19904TIP3    H181203   4.450   3.605  15.637 -0.3056 -0.7847 -0.9280
19904TIP3    H281204   4.338   3.612  15.536 -1.6758  0.7732  0.6274
19905TIP3   OH281205   2.371   0.840   1.127 -0.0786  0.4477 -0.1903
19905TIP3    H181206   2.386   0.752   1.162 -0.9065 -0.9864 -3.1029
19905TIP3    H281207   2.457   0.882   1.130  0.1927 -0.1275  1.9035
19906TIP3   OH281208   4.644   6.489  16.027 -0.4033 -0.0257 -0.0674
19906TIP3    H181209   4.645   6.527  16.115  0.9989  3.5111 -1.4343
19906TIP3    H281210   4.728   6.445  16.019  0.7489  2.1125 -0.4886
19907TIP3   OH281211   0.920   6.521   3.731 -0.4917 -0.2134 -0.2462
19907TIP3    H181212   0.984   6.451   3.716  0.4925  0.8600 -1.2410
19907TIP3    H281213   0.870   6.525   3.649 -0.4712  0.3078 -0.2342
19908TIP3   OH281214   0.492   3.661  16.696  0.2972 -0.0878 -0.1111
19908TIP3    H181215   0.400   3.648  16.719  0.7110 -1.2470  1.0185
19908TIP3    H281216   0.527   3.572  16.683  0.9550  0.3791 -1.8738
19909TIP3   OH281217   3.171   0.324   2.216 -0.1911 -0.0721 -0.1449
19909TIP3    H181218   3.094   0.299   2.166 -0.5932  0.1714  0.3421
19909TIP3    H281219   3.177   0.419   2.206  2.0502 -0.3988 -3.0143
19910TIP3   OH281220   5.206   6.268   5.901  0.7521 -0.1561  0.0701
19910TIP3    H181221   5.237   6.285   5.990 -0.3201  1.0681  0.2355
19910TIP3    H281222   5.114   6.245   5.912  0.5618  0.2045 -0.7309
19911TIP3   OH281223   5.434   1.008   5.341 -0.1862  0.1775  0.6237
19911TIP3    H181224   5.526   1.033   5.340  0.0488 -0.0597  4.3679
19911TIP3    H281225   5.429   0.934   5.280  1.8427  0.8338 -0.4253
19912TIP3   OH281226   4.306   0.284   0.130  0.4921 -0.2627 -0.0575
19912TIP3    H181227   4.398   0.283   0.103  0.5459  0.0615  0.1143
19912TIP3    H281228   4.267   0.210   0.083  0.4292  0.6859 -1.5389
19913TIP3   OH281229   0.133   0.278   1.954 -0.5646  0.1212  0.2173
19913TIP3    H181230   0.192   0.279   1.879 -1.2774  1.1580 -0.3568
19913TIP3    H281231   0.154   0.197   2.000  1.1812  0.3818 -0.0466
19914TIP3   OH281232   5.233   5.736  14.865  0.6838  0.8539 -0.0024
19914TIP3    H181233   5.249   5.818  14.912  1.1380  0.4552  0.5636
19914TIP3    H281234   5.281   5.745  14.783  2.0075  0.5726  0.7052
19915TIP3   OH281235   0.502   4.474   3.763 -0.2795 -0.3060 -0.0017
19915TIP3    H181236   0.574   4.410   3.764 -0.3555 -0.3894  0.3398
19915TIP3    H281237   0.428   4.427   3.802 -0.1786  0.1727  0.7856
19916TIP3   OH281238   1.280   1.955  12.636  0.4052  0.0153  0.3186
19916TIP3    H181239   1.213   1.927  12.699 -0.1853  1.7328  0.5084
19916TIP3    H281240   1.257   1.910  12.555  1.1492 -2.2003  1.2486
19917TIP3   OH281241   2.820   2.844  16.687  0.1371 -0.2589  0.2628
19917TIP3    H181242   2.802   2.922  16.634  1.0474  0.5059  1.0245
19917TIP3    H281243   2.857   2.781  16.626  2.3785  1.0543  0.1353
19918TIP3   OH281244   4.317   2.332   3.870  0.4676  0.3897 -0.3970
19918TIP3    H181245   4.280   2.412   3.831 -1.5171 -1.7689 -3.4171
19918TIP3    H281246   4.354   2.285   3.795  3.9065 -0.4906  1.6409
19919TIP3   OH281247   4.695   3.517   4.748  0.7682  0.0061 -0.5621
19919TIP3    H181248   4.634   3.561   4.689  2.4316  0.7985 -1.7778
19919TIP3    H281249   4.642   3.453   4.794 -1.5082  2.3362  0.3108
19920TIP3   OH281250   1.219   2.050  16.697 -0.2735  0.2673  0.3043
19920TIP3    H181251   1.226   2.003  16.780 -1.6741 -1.2131 -0.3622
19920TIP3    H281252   1.168   2.128  16.718 -1.4159 -0.5552  0.7091
19921TIP3   OH281253   1.111   4.242  16.596  0.0113 -0.1074 -0.2045
19921TIP3    H181254   1.203   4.270  16.593 -0.2248  0.6233 -2.1667
19921TIP3    H281255   1.114   4.149  16.576  0.3588 -0.2510  0.4639
19922TIP3   OH281256   3.024   4.157  17.007 -0.3654 -0.0294  0.1474
19922TIP3    H181257   3.063   4.190  17.088  1.7213 -2.5614  0.2998
19922TIP3    H281258   2.993   4.069  17.029  0.1628 -0.7441 -1.7204
19923TIP3   OH281259   3.497   0.408   4.213  0.0570  0.2035 -0.6251
19923TIP3    H181260   3.528   0.422   4.123 -0.9303 -0.8960 -1.1554
19923TIP3    H281261   3.456   0.322   4.211  0.6277 -0.1431  1.0610
19924TIP3   OH281262   1.360   4.851  15.870 -0.7589  0.0190  0.6009
19924TIP3    H181263   1.365   4.755  15.865 -2.0391 -0.1249  1.6664
19924TIP3    H281264   1.432   4.875  15.929  0.0770 -0.1981 -0.3071
19925TIP3   OH281265   0.833   1.544  12.580 -0.0647 -0.1587  0.5247
19925TIP3    H181266   0.825   1.486  12.504 -0.0177  1.1302 -0.5187
19925TIP3    H281267   0.917   1.521  12.620  0.2208 -0.4298 -0.2138
19926TIP3   OH281268   2.797   5.325   4.357 -0.1993 -0.0810 -0.3265
19926TIP3    H181269   2.724   5.269   4.331 -1.0635  1.7255 -2.0348
19926TIP3    H281270   2.875   5.279   4.326 -0.6338 -1.5913  0.7018
19927TIP3   OH281271   2.247   0.974   5.600 -0.1670  0.5653  0.3819
19927TIP3    H181272   2.272   0.897   5.550 -0.0788  1.6049 -1.2418
19927TIP3    H281273   2.306   1.043   5.569 -2.0054  1.9477 -0.2043
19928TIP3   OH281274   1.196   4.170   1.321 -0.8917  0.5917 -0.4141
19928TIP3    H181275   1.185   4.193   1.413 -0.7625 -1.9729  0.3142
19928TIP3    H281276   1.281   4.207   1.298 -1.5394  2.4802  0.0319
19929TIP3   OH281277   6.619   3.618  12.195 -0.7121 -0.4686 -0.1018
19929TIP3    H181278   6.605   3.584  12.107  0.9309 -1.7723  0.0876
19929TIP3    H281279   6.707   3.655  12.193 -1.7864  2.3352  0.1973
19930TIP3   OH281280   4.087   3.848  15.226 -0.7623  0.1578 -0.0376
19930TIP3    H181281   4.070   3.924  15.169 -1.5683  0.7880  1.0070
19930TIP3    H281282   4.148   3.881  15.292 -0.2434 -0.4287 -0.2145
19931TIP3   OH281283   5.125   6.016   3.560  0.3671 -0.3480 -0.2597
19931TIP3    H181284   5.114   6.085   3.494  0.0349 -1.9055 -1.8990
19931TIP3    H281285   5.219   5.997   3.559  0.2143 -1.1651 -1.1830
19932TIP3   OH281286   6.074   4.225   5.444 -0.2794  0.1435 -0.1130
19932TIP3    H181287   6.058   4.276   5.364 -0.6231  0.1162 -0.0635
19932TIP3    H281288   5.992   4.233   5.494  0.1499  0.6828  0.5237
19933TIP3   OH281289   0.827   4.567  11.453 -0.2068  0.1971 -0.2397
19933TIP3    H181290   0.813   4.585  11.546  0.8501  0.6638 -0.1534
19933TIP3    H281291   0.908   4.613  11.432 -0.5864  0.3392 -1.4676
19934TIP3   OH281292   3.828   6.429   3.711  0.1426 -0.1966 -0.2752
19934TIP3    H181293   3.907   6.395   3.753  0.8457  1.6897  0.0329
19934TIP3    H281294   3.777   6.352   3.689  1.3629 -1.3919  0.9274
19935TIP3   OH281295   2.464   4.428  11.220  0.2227 -0.1462  0.0980
19935TIP3    H181296   2.533   4.454  11.158  1.4913  0.2327  1.6084
19935TIP3    H281297   2.424   4.510  11.247 -0.0398 -0.2762  0.1098
19936TIP3   OH281298   0.670   0.883   3.367  0.4558  0.1760 -0.2571
19936TIP3    H181299   0.670   0.809   3.428  2.3161  1.5442  1.5268
19936TIP3    H281300   0.749   0.932   3.388  0.6470  1.3303 -3.1141
19937TIP3   OH281301   4.112   5.055   2.821  0.0850  0.4286 -0.0073
19937TIP3    H181302   4.163   5.128   2.855 -1.9921  2.1967 -0.5300
19937TIP3    H281303   4.026   5.065   2.860 -0.7320 -0.7751 -1.4085
19938TIP3   OH281304   6.367   3.528   5.397 -0.9317 -0.3312 -0.0348
19938TIP3    H181305   6.381   3.555   5.306 -0.8135  1.2518  0.4082
19938TIP3    H281306   6.454   3.511   5.431 -0.7293  1.2789  0.3684
19939TIP3   OH281307   4.108   0.384   5.421  0.0351 -0.5698 -0.0951
19939TIP3    H181308   4.184   0.336   5.454  1.6414 -0.0993 -2.7565
19939TIP3    H281309   4.035   0.356   5.477  1.9276 -1.8869  1.8773
19940TIP3   OH281310   6.681   6.337  12.602  0.6662 -0.2188 -0.4889
19940TIP3    H181311   6.733   6.376  12.532  0.6376 -0.0638 -0.4260
19940TIP3    H281312   6.649   6.254  12.567  1.7666 -0.7892 -0.1879
19941TIP3   OH281313   1.978   0.748  12.832 -0.6731  0.0202 -0.2151
19941TIP3    H181314   1.903   0.783  12.784 -0.1349 -0.5234 -1.4868
19941TIP3    H281315   2.049   0.810  12.814  0.0398 -1.1789 -1.7317
19942TIP3   OH281316   6.366   4.169   0.570  0.4449 -0.7419  0.0631
19942TIP3    H181317   6.386   4.209   0.485  1.5808 -1.4948 -0.0483
19942TIP3    H281318   6.446   4.184   0.621 -0.5853  0.5849  1.3645
19943TIP3   OH281319   5.304   6.805   1.387 -0.2512  0.0778 -0.1009
19943TIP3    H181320   5.347   6.760   1.460 -0.9132 -0.0078  0.2454
19943TIP3    H281321   5.324   6.752   1.310 -0.8251 -0.6933  0.2637
19944TIP3   OH281322   6.173   2.897  14.287  0.4375  0.0317 -1.1797
19944TIP3    H181323   6.101   2.897  14.224 -0.4589 -1.6559 -0.2419
19944TIP3    H281324   6.141   2.951  14.360 -0.9532 -2.5598  0.2665
19945TIP3   OH281325   2.162   3.552   0.622  0.3026 -0.0902 -0.2362
19945TIP3    H181326   2.128   3.627   0.670  0.4120  0.1081 -0.4687
19945TIP3    H281327   2.233   3.518   0.676 -0.0005 -0.2613  0.0551
19946TIP3   OH281328   3.751   3.648  14.356 -0.0401 -0.8995  0.3181
19946TIP3    H181329   3.732   3.727  14.305  0.1157 -1.5169 -0.7170
19946TIP3    H281330   3.677   3.639  14.415  0.0349  0.1311  0.5855
19947TIP3   OH281331   2.849   2.924  16.069 -0.1310 -0.0876  0.3913
19947TIP3    H181332   2.898   3.006  16.071  0.0860 -0.2072 -0.0676
19947TIP3    H281333   2.916   2.856  16.071 -0.1636 -0.2694 -1.9749
19948TIP3   OH281334   4.917   6.791  12.982  0.6195 -0.6420  0.0033
19948TIP3    H181335   5.007   6.787  13.015  0.5828  1.7349  0.5775
19948TIP3    H281336   4.863   6.793  13.061  0.3695  2.2825 -0.1340
19949TIP3   OH281337   0.906   2.767   1.068  0.0065  0.1401 -0.4464
19949TIP3    H181338   0.860   2.850   1.081  2.0411  1.0042  2.2384
19949TIP3    H281339   0.872   2.709   1.137  0.2009 -0.5022 -0.8805
19950TIP3   OH281340   3.560   6.572  10.620 -0.1677 -0.2686  0.4638
19950TIP3    H181341   3.505   6.494  10.626  0.1408 -0.4083  1.8571
19950TIP3    H281342   3.507   6.641  10.659  0.6860 -0.4610  2.0716
19951TIP3   OH281343   0.094   0.780   3.950  0.5363 -0.0370  0.2192
19951TIP3    H181344   0.040   0.705   3.976  0.6061 -0.2043 -0.1081
19951TIP3    H281345   0.039   0.829   3.888  0.1810  0.6296  1.0401
19952TIP3   OH281346   4.136   0.739   6.130  0.1390  0.5277 -0.1225
19952TIP3    H181347   4.083   0.794   6.072  2.6625  0.5301 -2.6422
19952TIP3    H281348   4.187   0.802   6.181 -0.0891  0.5072  0.1355
19953TIP3   OH281349   1.728   0.786  15.322  0.2176  0.0188 -0.4978
19953TIP3    H181350   1.659   0.721  15.312 -0.2806  0.5859 -0.7921
19953TIP3    H281351   1.715   0.823  15.409  0.1024  0.1796 -0.5830
19954TIP3   OH281352   5.023   1.280   1.514 -0.0113  0.1256  0.3822
19954TIP3    H181353   4.933   1.311   1.519  0.0825  0.6745 -0.7849
19954TIP3    H281354   5.020   1.210   1.448  0.4548  0.3705  0.0913
19955TIP3   OH281355   1.100   1.406  13.229  0.3846  0.0184  0.5715
19955TIP3    H181356   1.136   1.492  13.252 -0.5435  0.9010 -1.0597
19955TIP3    H281357   1.162   1.371  13.164  0.2924 -0.1269  0.5622
19956TIP3   OH281358   3.627   1.163   3.825  0.0454 -0.6526 -0.4936
19956TIP3    H181359   3.547   1.130   3.866 -0.1044  0.3842  0.1134
19956TIP3    H281360   3.599   1.197   3.740  0.0928 -1.4981 -0.8554
19957TIP3   OH281361   2.282   6.293   0.240 -0.7466  0.5321 -0.1196
19957TIP3    H181362   2.223   6.273   0.167 -1.0727 -0.0571  0.3032
19957TIP3    H281363   2.248   6.242   0.313  2.3891 -2.7807 -0.7463
19958TIP3   OH281364   4.339   4.672   1.553  0.5236 -0.7510  0.2280
19958TIP3    H181365   4.397   4.703   1.623 -0.6205 -0.0493  0.9036
19958TIP3    H281366   4.252   4.706   1.577  0.1596 -0.1432 -1.7508
19959TIP3   OH281367   0.850   3.509  11.795  0.5989  0.5601  0.5967
19959TIP3    H181368   0.778   3.561  11.830  0.8554  0.5499  1.1609
19959TIP3    H281369   0.928   3.546  11.836  1.0054  1.0647 -0.5825
19960TIP3   OH281370   3.496   0.248  14.498 -0.0680 -0.1369 -1.1893
19960TIP3    H181371   3.538   0.252  14.412  0.2827  0.6009 -0.9910
19960TIP3    H281372   3.458   0.160  14.502  1.1077 -0.6880 -1.5382
19961TIP3   OH281373   0.312   5.303   0.505 -0.4142 -0.4894 -0.4878
19961TIP3    H181374   0.364   5.235   0.462  0.3959 -0.3997  0.3087
19961TIP3    H281375   0.377   5.364   0.540 -0.6564 -2.4989  4.2167
19962TIP3   OH281376   0.356   5.643  12.460  0.9244 -0.4622 -0.1248
19962TIP3    H181377   0.290   5.576  12.445 -1.1450  1.4444 -0.0440
19962TIP3    H281378   0.408   5.645  12.380 -0.0386 -1.0217 -0.7692
19963TIP3   OH281379   0.477   0.056  11.547 -0.0823 -1.2131  0.0349
19963TIP3    H181380   0.453   0.121  11.614 -2.3865 -0.8962 -1.0113
19963TIP3    H281381   0.459   0.100  11.464 -1.8627 -3.1845 -0.7074
19964TIP3   OH281382   0.183   0.576   4.673 -0.0552 -0.3013  0.0763
19964TIP3    H181383   0.129   0.631   4.730  1.2760 -0.4563  1.5460
19964TIP3    H281384   0.270   0.617   4.676  0.1402 -0.5261 -1.5819
19965TIP3   OH281385   4.120   3.616  13.442 -0.3374 -0.3753 -0.5782
19965TIP3    H181386   4.202   3.567  13.436  0.3243  0.3387  1.5882
19965TIP3    H281387   4.133   3.675  13.516 -3.5017 -1.5700  1.0870
19966TIP3   OH281388   4.482   3.171  13.798 -0.7165 -0.3127 -0.2072
19966TIP3    H181389   4.530   3.181  13.716 -1.7962  1.6639 -0.6577
19966TIP3    H281390   4.522   3.095  13.841  0.9732 -0.3541 -1.7741
19967TIP3   OH281391   2.414   6.397   1.421  0.2091 -0.0864  0.3731
19967TIP3    H181392   2.378   6.437   1.343 -1.3843  2.0483  2.0764
19967TIP3    H281393   2.387   6.305   1.416  1.7755 -0.4940 -2.4026
19968TIP3   OH281394   5.570   3.698  13.167 -0.3494 -0.3822 -0.5709
19968TIP3    H181395   5.605   3.618  13.208  0.3687  0.1675 -0.0751
19968TIP3    H281396   5.477   3.679  13.154 -0.4438 -0.8681  0.6341
19969TIP3   OH281397   1.671   3.386   6.502 -0.6246 -0.0048 -0.0834
19969TIP3    H181398   1.629   3.391   6.588  1.2478  1.0330  0.8201
19969TIP3    H281399   1.651   3.297   6.471  1.0032 -1.4695  2.6808
19970TIP3   OH281400   2.318   5.907   0.323  0.5977 -0.3834 -0.3515
19970TIP3    H181401   2.404   5.889   0.284  0.8981 -2.9610  1.2651
19970TIP3    H281402   2.336   5.916   0.416 -0.7884  0.0159 -0.1059
19971TIP3   OH281403   4.695   6.386   4.598 -0.1478  0.2016  0.0742
19971TIP3    H181404   4.733   6.404   4.512  0.6261  0.0806  0.3788
19971TIP3    H281405   4.662   6.296   4.592  1.1619 -0.3292  0.3094
19972TIP3   OH281406   4.695   4.678  12.302 -0.4827 -0.1040 -0.5211
19972TIP3    H181407   4.782   4.695  12.337 -1.3431  2.7622  0.5703
19972TIP3    H281408   4.650   4.631  12.372 -1.1832  2.7181  1.0982
19973TIP3   OH281409   0.748   2.220   2.068  0.0102 -0.2834 -0.2956
19973TIP3    H181410   0.799   2.140   2.058  0.7914  0.4357 -2.6613
19973TIP3    H281411   0.809   2.290   2.046 -0.9452  0.9074  0.6905
19974TIP3   OH281412   2.907   0.555   1.446  0.3422 -0.4552 -0.2005
19974TIP3    H181413   2.971   0.604   1.393 -1.2956  0.7947 -1.1026
19974TIP3    H281414   2.908   0.600   1.530 -0.0300  0.1995 -0.5315
19975TIP3   OH281415   6.222   5.684   5.687 -0.6805  0.1793 -0.4422
19975TIP3    H181416   6.177   5.725   5.762  0.7347 -0.0033  0.5456
19975TIP3    H281417   6.302   5.648   5.725  0.9890  1.6545 -2.3730
19976TIP3   OH281418   5.882   2.569  12.895  0.4709 -0.1532 -0.0236
19976TIP3    H181419   5.924   2.505  12.952  0.8174  0.6718  0.6670
19976TIP3    H281420   5.932   2.650  12.908  0.3615  0.1374 -1.2638
19977TIP3   OH281421   1.090   4.395  11.010 -0.4124  0.6616 -0.2739
19977TIP3    H181422   1.089   4.312  11.056  4.0078 -0.4214 -1.5536
19977TIP3    H281423   1.161   4.445  11.052  0.2190  1.7486 -2.4472
19978TIP3   OH281424   3.470   2.663   4.739 -0.1259 -0.5739 -0.0421
19978TIP3    H181425   3.446   2.573   4.716 -1.7996  0.2817 -1.9381
19978TIP3    H281426   3.471   2.710   4.655  0.8383  1.1542  0.8837
19979TIP3   OH281427   2.338   0.099   4.005  0.1610 -0.4776  0.0888
19979TIP3    H181428   2.297   0.168   4.059 -0.9504  0.7600 -2.2043
19979TIP3    H281429   2.426   0.131   3.990  0.1093 -0.2685  0.2161
19980TIP3   OH281430   5.208   4.753  11.553  0.2866  0.3879  0.2925
19980TIP3    H181431   5.178   4.662  11.544  0.8627  0.3152 -1.3901
19980TIP3    H281432   5.164   4.799  11.481  0.6566  1.2471  0.6086
19981TIP3   OH281433   6.640   2.248  11.253 -0.0849  0.0873 -0.1853
19981TIP3    H181434   6.590   2.262  11.173 -2.9436 -0.1020  1.4197
19981TIP3    H281435   6.611   2.319  11.311 -0.6261 -1.6316  1.7577
19982TIP3   OH281436   3.653   5.418   5.914 -0.0538  0.2796 -0.0981
19982TIP3    H181437   3.668   5.461   5.830  0.8798  1.0963  0.4685
19982TIP3    H281438   3.684   5.329   5.902 -0.0870  0.3433 -0.6689
19983TIP3   OH281439   6.364   2.981  14.100 -0.4581  0.0579 -0.5243
19983TIP3    H181440   6.397   3.071  14.096 -0.6282  0.2142  0.9747
19983TIP3    H281441   6.299   2.983  14.170 -0.8281 -1.1257 -0.8138
19984TIP3   OH281442   3.767   3.835  14.139 -0.2513 -0.9365  0.0757
19984TIP3    H181443   3.776   3.801  14.050  0.2079  0.2598 -0.3551
19984TIP3    H281444   3.839   3.897  14.149 -0.0312 -1.3687  1.4471
19985TIP3   OH281445   0.833   1.622  10.683  0.7606  0.1383  0.6853
19985TIP3    H181446   0.839   1.528  10.700 -1.0691 -0.0436  0.5227
19985TIP3    H281447   0.819   1.628  10.589 -2.6210  0.2933  1.0838
19986TIP3   OH281448   1.251   6.264  13.406 -0.3120 -0.4399 -0.4190
19986TIP3    H181449   1.241   6.266  13.310 -1.3459 -4.5962 -0.5535
19986TIP3    H281450   1.171   6.223  13.437  0.4476 -0.0649  2.2157
19987TIP3   OH281451   4.988   4.591  13.060 -0.0770  0.1296 -0.6756
19987TIP3    H181452   4.952   4.640  12.985  0.8923 -0.0879 -1.2958
19987TIP3    H281453   5.001   4.503  13.027  0.2558  0.0009 -0.2026
19988TIP3   OH281454   2.887   3.208  15.585  0.2753  0.3789  0.5347
19988TIP3    H181455   2.898   3.129  15.533 -0.0820 -0.0445  1.0905
19988TIP3    H281456   2.886   3.279  15.521  1.4563  0.0205  0.0928
19989TIP3   OH281457   1.432   5.632   0.262  0.0775  0.6011  0.1616
19989TIP3    H181458   1.365   5.672   0.207  0.8959 -0.2589 -1.5443
19989TIP3    H281459   1.385   5.605   0.341 -1.0922  2.0642  0.0106
19990TIP3   OH281460   1.358   4.359   4.260  0.7572 -0.6985  0.3837
19990TIP3    H181461   1.313   4.412   4.326  0.2649 -1.8108  0.9632
19990TIP3    H281462   1.321   4.271   4.269  2.3085 -1.4196  0.1860
19991TIP3   OH281463   2.105   1.351   3.127 -0.2215 -0.8578  0.2520
19991TIP3    H181464   2.182   1.392   3.166 -0.8959 -0.2861  1.0047
19991TIP3    H281465   2.080   1.411   3.056 -0.0382 -0.9913  0.0732
19992TIP3   OH281466   4.004   0.690   3.939  0.1483 -0.8702  0.0456
19992TIP3    H181467   4.033   0.775   3.904  3.3005 -0.7606  2.4891
19992TIP3    H281468   4.085   0.644   3.959 -1.4963 -3.5438  1.0544
19993TIP3   OH281469   5.000   6.703  14.312  0.5655 -0.6676  0.3525
19993TIP3    H181470   5.090   6.671  14.320  1.0408 -0.5054 -2.9489
19993TIP3    H281471   4.966   6.658  14.234 -1.8231  0.1538  0.8448
19994TIP3   OH281472   4.751   1.092   4.686  0.2398 -0.2093  0.1716
19994TIP3    H181473   4.728   1.092   4.779 -1.0183  0.3136 -0.1196
19994TIP3    H281474   4.846   1.096   4.685  0.2616  0.0531  1.4429
19995TIP3   OH281475   3.441   3.356  11.588  0.3639  0.1972  0.2592
19995TIP3    H181476   3.534   3.332  11.594  0.5938 -0.2429 -2.8991
19995TIP3    H281477   3.441   3.449  11.567  0.2023 -0.0203 -0.7868
19996TIP3   OH281478   2.361   5.203   0.740 -0.2439  0.3394  0.1456
19996TIP3    H181479   2.275   5.161   0.745  0.9558 -2.3233 -0.1530
19996TIP3    H281480   2.389   5.192   0.650  1.2474 -0.6697  0.6967
19997TIP3   OH281481   1.329   0.941  11.217 -0.5009  0.2895  0.2451
19997TIP3    H181482   1.324   0.849  11.243  0.9701 -0.2010 -1.1208
19997TIP3    H281483   1.271   0.948  11.141 -0.8579  0.5858  0.5362
19998TIP3   OH281484   1.118   3.159   2.536  0.0968 -0.4420 -0.0355
19998TIP3    H181485   1.204   3.132   2.570  0.5839 -0.5019 -1.2516
19998TIP3    H281486   1.069   3.077   2.527  0.4385 -0.5852 -0.6951
19999TIP3   OH281487   0.291   3.760  13.783  0.6900 -0.0444 -0.2320
19999TIP3    H181488   0.333   3.834  13.827  0.7073 -0.3764  0.3254
19999TIP3    H281489   0.211   3.744  13.834 -0.2764  0.7577 -1.4441
20000TIP3   OH281490   5.577   5.138   1.422  0.0575 -0.6742  0.7406
20000TIP3    H181491   5.536   5.102   1.343 -1.6842  0.8434  0.9014
20000TIP3    H281492   5.648   5.193   1.388 -0.0818 -0.7696  0.2893
20001TIP3   OH281493   5.119   0.479  14.484 -0.3406  0.0523  0.0094
20001TIP3    H181494   5.145   0.451  14.396  0.0004 -0.0621  0.1442
20001TIP3    H281495   5.200   0.510  14.524 -0.1003 -1.5999  0.9171
20002TIP3   OH281496   1.423   1.202   3.576 -0.2200 -0.4014  0.2818
20002TIP3    H181497   1.457   1.191   3.665  1.3571  1.7824  0.0294
20002TIP3    H281498   1.500   1.224   3.523 -1.2815 -0.6231 -1.4214
20003TIP3   OH281499   1.608   1.108  11.487 -0.2135 -0.4867 -0.1103
20003TIP3    H181500   1.635   1.030  11.439 -0.8154 -0.7017 -0.0979
20003TIP3    H281501   1.690   1.145  11.520  0.1220 -0.8123 -0.5725
20004TIP3   OH281502   4.823   5.073  10.497  0.4614 -0.2345 -0.3893
20004TIP3    H181503   4.869   4.998  10.536  0.0525 -0.2263  0.1127
20004TIP3    H281504   4.743   5.036  10.460 -0.8357  0.2444  1.7598
20005TIP3   OH281505   3.232   0.582  14.519  0.2472 -0.4907  0.1466
20005TIP3    H181506   3.216   0.501  14.470  0.5350 -0.4716  0.0195
20005TIP3    H281507   3.153   0.594  14.573  0.2778 -0.9512  0.2978
20006TIP3   OH281508   1.613   4.361   0.594  0.0204 -0.0902  0.0490
20006TIP3    H181509   1.681   4.341   0.530 -0.9187 -0.1911 -0.9450
20006TIP3    H281510   1.583   4.448   0.571  1.8980  1.2960  2.4120
20007TIP3   OH281511   1.188   1.042  16.350 -0.3512 -0.0436 -0.1192
20007TIP3    H181512   1.203   1.060  16.258 -0.7402  0.9499 -0.0082
20007TIP3    H281513   1.274   1.023  16.386  0.6434  4.0856  0.2226
20008TIP3   OH281514   2.691   6.460  15.431 -0.1185  0.3360  0.5127
20008TIP3    H181515   2.759   6.434  15.368  0.6691  2.0750  0.6011
20008TIP3    H281516   2.678   6.382  15.484  1.6648 -0.1252  0.3579
20009TIP3   OH281517   5.055   4.173  15.764 -1.0100  0.0499 -0.2400
20009TIP3    H181518   5.035   4.264  15.742 -1.0243  0.1121  0.0189
20009TIP3    H281519   5.120   4.179  15.834 -2.4555 -0.0923  1.1782
20010TIP3   OH281520   2.966   4.642  13.311 -0.3445  0.5207 -0.0065
20010TIP3    H181521   3.013   4.560  13.328 -0.3392  0.2956 -1.0047
20010TIP3    H281522   2.875   4.623  13.332 -0.4735  0.0002 -0.9583
20011TIP3   OH281523   5.324   6.512  11.691  0.3004  0.2432  0.2924
20011TIP3    H181524   5.325   6.596  11.645  3.5018  0.1473 -0.0456
20011TIP3    H281525   5.270   6.455  11.637  0.9347  1.1634 -1.3548
20012TIP3   OH281526   0.952   6.418   1.028 -0.6833 -0.1647 -0.5813
20012TIP3    H181527   0.903   6.465   1.096 -1.2656 -0.6566 -0.6471
20012TIP3    H281528   0.959   6.329   1.062  2.4086  0.4221  0.6136
20013TIP3   OH281529   3.463   3.598  14.140 -0.5243 -0.3506 -0.1106
20013TIP3    H181530   3.449   3.644  14.057 -1.3886 -2.9453 -1.4942
20013TIP3    H281531   3.557   3.584  14.144 -0.4182  0.2558 -0.3688
20014TIP3   OH281532   1.637   2.456  16.106 -0.2356 -0.4065 -1.1023
20014TIP3    H181533   1.547   2.445  16.075 -0.2417  1.2021 -1.7398
20014TIP3    H281534   1.685   2.382  16.067 -0.9927 -0.4906 -1.9065
20015TIP3   OH281535   5.563   0.827   6.011  0.1581 -0.0437  0.0088
20015TIP3    H181536   5.517   0.826   6.095  2.4131 -0.9284  1.3067
20015TIP3    H281537   5.652   0.799   6.032  0.2956 -2.3817 -2.9788
20016TIP3   OH281538   4.903   1.895   6.087 -0.0857  0.2069  0.0217
20016TIP3    H181539   4.920   1.945   6.167 -1.6851  0.1202  0.4558
20016TIP3    H281540   4.916   1.804   6.113 -0.6527  0.1755  0.2071
20017TIP3   OH281541   3.001   2.808   5.291 -0.0434  0.5541  0.2008
20017TIP3    H181542   2.988   2.726   5.340  2.6049  1.7396  3.2644
20017TIP3    H281543   3.089   2.800   5.253 -0.0118  1.6954 -0.0061
20018TIP3   OH281544   4.277   0.133  13.508  0.1810  0.2379  0.2217
20018TIP3    H181545   4.339   0.073  13.548  0.1764 -0.4613 -0.7713
20018TIP3    H281546   4.313   0.151  13.421 -1.0790 -0.3598 -0.4656
20019TIP3   OH281547   5.416   2.725   0.395  0.8707  0.6432 -0.0182
20019TIP3    H181548   5.368   2.806   0.379 -1.8450 -0.8671 -0.3216
20019TIP3    H281549   5.430   2.687   0.309 -1.3453 -0.9310  0.2146
20020TIP3   OH281550   6.615   3.923   1.709 -0.4403 -0.1060 -0.3817
20020TIP3    H181551   6.631   3.839   1.666  1.6543 -0.6706  1.2775
20020TIP3    H281552   6.699   3.970   1.702 -1.1029  1.1997  0.0519
20021TIP3   OH281553   0.432   1.674   1.270 -0.0425 -1.1118 -1.2063
20021TIP3    H181554   0.453   1.732   1.343  1.4736 -2.3042 -0.6396
20021TIP3    H281555   0.515   1.633   1.247 -0.5164 -0.9162 -3.5116
20022TIP3   OH281556   6.076   3.301   3.697 -0.3677 -0.5046  0.4017
20022TIP3    H181557   6.113   3.381   3.734 -0.5697  0.3766 -1.2068
20022TIP3    H281558   5.981   3.318   3.696 -0.4499 -0.9579  0.4909
20023TIP3   OH281559   4.168   3.871  16.684  0.8329 -0.4354 -0.1307
20023TIP3    H181560   4.205   3.809  16.621 -1.4538 -1.9665 -0.1114
20023TIP3    H281561   4.238   3.934  16.700  1.1187  1.1035 -5.4302
20024TIP3   OH281562   3.939   4.521  14.826 -0.3524  0.3343  0.8278
20024TIP3    H181563   3.972   4.438  14.858 -0.4179 -0.8780 -1.9597
20024TIP3    H281564   4.011   4.558  14.774 -0.3284  2.0620  1.9815
20025TIP3   OH281565   5.393   3.205   3.069  0.2519  0.2032 -0.3758
20025TIP3    H181566   5.362   3.256   3.144 -0.6924  0.1373 -0.7152
20025TIP3    H281567   5.364   3.255   2.993  0.1575 -0.3537 -0.7050
20026TIP3   OH281568   3.078   3.293   1.977 -0.6506 -0.3599  0.7004
20026TIP3    H181569   3.146   3.325   2.036 -0.9406 -0.7385  1.2493
20026TIP3    H281570   3.003   3.275   2.034 -0.8008 -1.1074  0.2812
20027TIP3   OH281571   6.021   1.564  16.378  0.6233 -1.0715 -0.2650
20027TIP3    H181572   5.956   1.555  16.308  0.1735  0.6557 -0.1152
20027TIP3    H281573   6.078   1.488  16.368 -2.0830 -3.3380  0.3303
20028TIP3   OH281574   1.287   4.943   0.789 -0.2411 -1.1375  0.0053
20028TIP3    H181575   1.354   4.915   0.851  1.7035  1.4872 -0.7225
20028TIP3    H281576   1.321   4.917   0.704 -0.8612 -1.0578 -0.2672
20029TIP3   OH281577   1.248   6.219   4.962  0.8483  0.5056 -0.2460
20029TIP3    H181578   1.212   6.130   4.958  0.5866  0.4707  1.6677
20029TIP3    H281579   1.339   6.209   4.936  0.5865 -0.1450 -0.9663
20030TIP3   OH281580   0.310   2.322  14.383  0.0802  0.2540 -0.2732
20030TIP3    H181581   0.289   2.263  14.455 -0.0505  0.4356 -0.1610
20030TIP3    H281582   0.284   2.409  14.415  1.3265  0.5451  0.0177
20031TIP3   OH281583   3.254   1.451  12.689 -0.5222  0.1721  0.1927
20031TIP3    H181584   3.208   1.484  12.767  0.6657  2.0704  0.1596
20031TIP3    H281585   3.346   1.459  12.712 -0.1181 -3.0010  0.0382
20032TIP3   OH281586   1.752   3.733  14.377 -0.3025  0.4578 -0.4250
20032TIP3    H181587   1.722   3.726  14.467  0.6359  2.6408  0.1263
20032TIP3    H281588   1.841   3.699  14.379 -0.1847  0.7560 -0.4464
20033TIP3   OH281589   2.299   6.377  11.633  1.0805  0.3823 -0.4045
20033TIP3    H181590   2.338   6.298  11.594  0.8328  0.3674 -0.6274
20033TIP3    H281591   2.341   6.385  11.719  0.7913 -0.2424 -0.1978
20034TIP3   OH281592   4.587   3.273   2.082 -0.5183  0.1212 -0.2612
20034TIP3    H181593   4.521   3.204   2.080  0.9723 -1.3879  0.3436
20034TIP3    H281594   4.668   3.230   2.054  0.2348  1.9159 -1.0017
20035TIP3   OH281595   3.542   0.297   3.434  0.3852  0.1382 -0.3617
20035TIP3    H181596   3.563   0.251   3.515  2.8348 -0.0368 -1.0142
20035TIP3    H281597   3.597   0.376   3.436 -0.4830  0.7963 -1.2755
20036TIP3   OH281598   1.886   4.325   4.057  0.1648  0.1062 -0.4167
20036TIP3    H181599   1.857   4.411   4.088  0.4997  0.0254  0.1446
20036TIP3    H281600   1.825   4.264   4.098  0.2664  0.0371 -0.3678
20037TIP3   OH281601   3.531   1.275  13.116 -0.5261  0.0592  0.9232
20037TIP3    H181602   3.472   1.210  13.078 -0.8944  0.2348  1.1899
20037TIP3    H281603   3.579   1.227  13.184 -1.1614  0.1843  1.4693
20038TIP3   OH281604   2.695   1.765   2.931 -0.8942  0.3117 -0.4287
20038TIP3    H181605   2.626   1.707   2.899 -1.0351 -0.5223  1.2411
20038TIP3    H281606   2.774   1.712   2.929 -0.7041  0.5919 -0.4309
20039TIP3   OH281607   0.267   3.289   2.036  0.2135  0.0497  0.4698
20039TIP3    H181608   0.351   3.253   2.064  0.4597 -0.7451 -1.1657
20039TIP3    H281609   0.244   3.240   1.957 -1.5733  0.5695  0.6088
20040TIP3   OH281610   4.473   6.047  16.103  0.1932 -0.0947  0.2527
20040TIP3    H181611   4.428   6.107  16.162 -0.3574  0.2079 -0.4618
20040TIP3    H281612   4.420   6.046  16.024  0.1519 -1.5802  0.2644
20041TIP3   OH281613   5.705   3.951   1.599  0.1822 -0.0170  0.0731
20041TIP3    H181614   5.764   4.025   1.605  2.6976 -1.7453 -1.3698
20041TIP3    H281615   5.697   3.919   1.689  0.2019  1.1057  0.4901
20042TIP3   OH281616   2.722   4.247   3.388  0.4658 -0.3342  0.4727
20042TIP3    H181617   2.691   4.313   3.326  0.2124 -2.2579 -1.5813
20042TIP3    H281618   2.800   4.210   3.347 -0.8451 -3.0798  0.1998
20043TIP3   OH281619   2.643   4.020  12.524 -1.1539 -0.0898  0.1241
20043TIP3    H181620   2.710   4.083  12.495 -1.8489  0.8173  0.4431
20043TIP3    H281621   2.667   4.001  12.615 -1.5596  0.5715  0.3790
20044TIP3   OH281622   6.665   1.503   2.168  0.2481 -0.4395  0.6501
20044TIP3    H181623   6.590   1.560   2.152 -0.1489 -1.2704 -0.5589
20044TIP3    H281624   6.662   1.439   2.098  1.8402 -0.7612  0.8391
20045TIP3   OH281625   3.654   2.505  15.071  0.4247 -0.4093 -0.3021
20045TIP3    H181626   3.703   2.566  15.016  1.5632  0.6193  1.7272
20045TIP3    H281627   3.569   2.547  15.083  0.3380 -0.4143 -0.9012
20046TIP3   OH281628   3.954   2.938  11.600 -0.7230 -0.1802  0.0739
20046TIP3    H181629   3.918   2.864  11.551 -2.0491  1.8175 -2.1762
20046TIP3    H281630   4.045   2.944  11.571 -0.4248 -1.2199  0.7252
20047TIP3   OH281631   0.404   4.770  12.285  0.3845  0.0629  0.0771
20047TIP3    H181632   0.345   4.735  12.219  0.4618  0.2840 -0.1108
20047TIP3    H281633   0.373   4.731  12.367 -1.5370  1.9650  0.3645
20048TIP3   OH281634   5.596   2.274  15.648  0.0767  0.3797 -0.2009
20048TIP3    H181635   5.689   2.286  15.630  0.5810 -1.7686  0.6742
20048TIP3    H281636   5.552   2.305  15.569  1.5597  0.8775 -0.8601
20049TIP3   OH281637   5.546   2.903  16.382  0.4213  1.1680 -0.9407
20049TIP3    H181638   5.490   2.960  16.330 -1.4576 -1.2558 -1.7834
20049TIP3    H281639   5.484   2.852  16.436  2.0741  0.8586  0.7607
20050TIP3   OH281640   6.554   2.418  15.348 -0.1831  0.5318  0.1055
20050TIP3    H181641   6.495   2.418  15.272 -0.2141 -0.5480  0.1050
20050TIP3    H281642   6.497   2.398  15.422 -0.0391  0.8822  0.3118
20051TIP3   OH281643   0.810   0.665  15.688 -0.2112  0.2836 -0.2371
20051TIP3    H181644   0.879   0.612  15.728  1.3940 -1.4722 -4.6929
20051TIP3    H281645   0.855   0.743  15.655 -0.9910  0.6581 -0.4503
20052TIP3   OH281646   2.503   5.298  11.686 -0.0515  0.3179 -0.7629
20052TIP3    H181647   2.538   5.306  11.775  0.6202 -1.1859 -0.8589
20052TIP3    H281648   2.509   5.386  11.650  1.2754  0.6242  0.1193
20053TIP3   OH281649   2.396   4.558   4.022  0.0122  0.0096 -0.5504
20053TIP3    H181650   2.331   4.606   3.970 -0.7692  0.1223  0.4804
20053TIP3    H281651   2.346   4.490   4.067  0.8003 -0.5952 -0.5581
20054TIP3   OH281652   5.534   2.090  17.159  0.0065  0.6514 -0.2798
20054TIP3    H181653   5.531   2.058  17.249 -0.5250  0.1807 -0.4598
20054TIP3    H281654   5.620   2.062  17.127  1.6454  3.6434  1.0781
20055TIP3   OH281655   5.249   5.963  11.840 -0.4630  0.2786  0.0589
20055TIP3    H181656   5.238   6.028  11.771 -0.0113  1.2222  0.8623
20055TIP3    H281657   5.338   5.976  11.873 -0.4045 -0.6592  0.3247
20056TIP3   OH281658   0.521   2.527  14.741  0.7859  0.2019 -0.1661
20056TIP3    H181659   0.513   2.614  14.703  1.8681  0.7770  0.8658
20056TIP3    H281660   0.571   2.477  14.676  2.4415  1.1157  0.3409
20057TIP3   OH281661   1.942   4.964  12.233 -0.3446  0.1077  0.2922
20057TIP3    H181662   1.873   5.031  12.227 -1.0729 -0.6749 -0.3752
20057TIP3    H281663   1.895   4.881  12.232  0.6458 -0.5167 -1.8821
20058TIP3   OH281664   6.810   1.465  10.513  0.3756 -0.8646 -0.2607
20058TIP3    H181665   6.859   1.526  10.568 -1.0306  0.2573 -0.1772
20058TIP3    H281666   6.838   1.484  10.424 -0.1880  0.0855 -0.2538
20059TIP3   OH281667   0.144   2.544   0.146 -0.2868  0.5677  0.1761
20059TIP3    H181668   0.150   2.449   0.135 -2.1821  0.5865 -1.6003
20059TIP3    H281669   0.154   2.558   0.240  1.2032 -1.2548  0.3380
20060TIP3   OH281670   4.881   1.950   3.918 -0.6598  0.1934 -0.4198
20060TIP3    H181671   4.971   1.924   3.936 -1.2946 -1.2499  0.8476
20060TIP3    H281672   4.869   1.931   3.825  0.5855  1.2483 -0.8338
20061TIP3   OH281673   0.342   6.375   2.076 -0.0000 -0.0109  0.0858
20061TIP3    H181674   0.417   6.317   2.083  0.0030 -0.0381 -0.1447
20061TIP3    H281675   0.379   6.463   2.086  0.0532 -0.0277  0.0419
20062TIP3   OH281676   2.789   6.267  13.412 -0.4057  0.5970  0.0307
20062TIP3    H181677   2.827   6.231  13.492  1.2690  1.1013 -0.4981
20062TIP3    H281678   2.856   6.327  13.378 -1.8381  1.8217 -0.7703
20063TIP3   OH281679   3.258   5.826  15.430  0.3708 -0.4324  0.5220
20063TIP3    H181680   3.243   5.914  15.398  2.1289  0.3842  1.7387
20063TIP3    H281681   3.344   5.802  15.395  0.9417 -0.7259  2.0310
20064TIP3   OH281682   3.205   3.569   0.823 -1.0116 -0.2172  0.4092
20064TIP3    H181683   3.119   3.526   0.824 -0.8666 -0.5122  0.2420
20064TIP3    H281684   3.186   3.658   0.791 -1.2164 -0.3655  0.1036
20065TIP3   OH281685   3.366   3.791   6.149 -0.4426 -0.4359 -0.1026
20065TIP3    H181686   3.404   3.726   6.208 -1.0508  0.1256  0.9387
20065TIP3    H281687   3.277   3.760   6.134 -0.5667 -0.1202 -0.0187
20066TIP3   OH281688   2.547   4.361  11.547  0.0411  0.0603 -0.4831
20066TIP3    H181689   2.455   4.334  11.547  0.2051 -0.5053 -0.9464
20066TIP3    H281690   2.547   4.447  11.505 -0.0329 -0.7864 -2.2617
20067TIP3   OH281691   5.570   4.601  11.240  0.4020  0.1250 -0.5604
20067TIP3    H181692   5.653   4.567  11.208  0.7111  0.8096 -0.4965
20067TIP3    H281693   5.531   4.646  11.165  0.3865  0.3522 -0.4194
20068TIP3   OH281694   0.422   1.922  12.704 -0.0037 -0.1082 -0.1942
20068TIP3    H181695   0.497   1.864  12.717 -1.2169 -1.7068  0.1622
20068TIP3    H281696   0.393   1.905  12.615  0.4279  0.9888 -0.5556
20069TIP3   OH281697   5.956   2.449  13.128 -0.5778  0.4731  0.4922
20069TIP3    H181698   5.917   2.512  13.189 -0.0123 -0.0069  1.3756
20069TIP3    H281699   5.884   2.389  13.107 -0.8505  0.8042  0.4625
20070TIP3   OH281700   0.691   4.436   2.687 -0.0612  0.5638 -0.5813
20070TIP3    H181701   0.631   4.463   2.618  0.5196  1.4168 -0.7702
20070TIP3    H281702   0.695   4.511   2.746  1.1191  0.6738 -0.7844
20071TIP3   OH281703   3.503   6.035   6.883 -0.6740 -0.2062 -0.0192
20071TIP3    H181704   3.430   6.053   6.943 -1.5909 -2.7239 -0.2538
20071TIP3    H281705   3.462   5.995   6.806  0.8661 -0.7396 -0.6099
20072TIP3   OH281706   3.411   5.451   0.425 -0.1995  0.3739  0.1751
20072TIP3    H181707   3.352   5.526   0.417  1.0313  1.2910 -0.6743
20072TIP3    H281708   3.498   5.490   0.427  0.6039 -1.1366 -2.3667
20073TIP3   OH281709   4.001   5.597   1.614 -0.4195  0.3486  0.4117
20073TIP3    H181710   3.908   5.617   1.613 -0.0943  2.0997  1.4366
20073TIP3    H281711   4.034   5.631   1.531 -0.3474  1.6989  0.9754
20074TIP3   OH281712   3.238   3.145  15.542 -0.4266  0.0722  0.2469
20074TIP3    H181713   3.188   3.070  15.574 -0.7428  0.1115 -0.1547
20074TIP3    H281714   3.272   3.117  15.457 -1.0170  0.5881 -0.1612
20075TIP3   OH281715   1.932   2.914  12.025  0.4524  0.2376  0.1045
20075TIP3    H181716   2.014   2.950  12.060  0.5631  0.4638 -0.3719
20075TIP3    H281717   1.925   2.953  11.938  0.1243 -0.2196 -0.0754
20076TIP3   OH281718   1.340   4.804   4.170  0.5196  0.1707 -0.3186
20076TIP3    H181719   1.248   4.781   4.159  0.5487  0.5721 -1.4923
20076TIP3    H281720   1.354   4.880   4.113  1.2107  1.1040  1.0074
20077TIP3   OH281721   3.413   3.605   3.738 -0.0861 -0.8853 -0.3685
20077TIP3    H181722   3.351   3.587   3.808 -2.3893  1.4736 -1.6223
20077TIP3    H281723   3.396   3.539   3.672 -1.3784 -0.2142 -0.7299
20078TIP3   OH281724   2.836   6.740  15.536 -0.2697 -0.1801  0.0923
20078TIP3    H181725   2.876   6.654  15.546 -0.1648 -0.0968  0.3868
20078TIP3    H281726   2.743   6.721  15.518 -0.9928 -0.3277  3.4055
20079TIP3   OH281727   5.398   4.576  15.191 -0.2008 -0.4495 -0.0130
20079TIP3    H181728   5.315   4.623  15.203  1.0933  1.6269  1.7559
20079TIP3    H281729   5.374   4.484  15.189 -2.6970  0.1500 -1.4500
20080TIP3   OH281730   5.768   1.299   6.424  0.2794 -0.3038 -0.2623
20080TIP3    H181731   5.819   1.223   6.453  1.7263  1.0057  0.8105
20080TIP3    H281732   5.823   1.374   6.445 -1.7953  1.1679  0.2455
20081TIP3   OH281733   1.991   5.384   4.401  0.2165  0.4958  0.2721
20081TIP3    H181734   1.947   5.463   4.433  1.4196  1.4141 -0.2516
20081TIP3    H281735   2.081   5.412   4.386  0.6862 -1.0154  0.1499
20082TIP3   OH281736   2.759   3.313   4.597 -0.0172 -0.4001  0.1208
20082TIP3    H181737   2.779   3.242   4.659  0.6071 -0.3672 -0.0420
20082TIP3    H281738   2.750   3.269   4.512  0.0822 -0.3199  0.0688
20083TIP3   OH281739   3.048   1.944  12.279  0.4207 -0.0492  0.0888
20083TIP3    H181740   2.955   1.934  12.299  0.2440  0.0102 -0.6825
20083TIP3    H281741   3.091   1.939  12.364 -0.3408  0.6096  0.5235
20084TIP3   OH281742   5.928   5.770  15.150  0.4253 -0.3013  0.1283
20084TIP3    H181743   5.921   5.864  15.136 -1.1533 -0.4403 -0.1899
20084TIP3    H281744   5.851   5.747  15.201  0.5226 -1.5067 -0.2213
20085TIP3   OH281745   5.639   4.124  11.136 -0.6615  0.2733  0.6238
20085TIP3    H181746   5.647   4.141  11.042 -1.4464 -2.0551  0.0689
20085TIP3    H281747   5.597   4.038  11.141 -1.6252  0.8190  3.1349
20086TIP3   OH281748   2.744   0.758  13.914  0.0923 -0.2168 -0.0821
20086TIP3    H181749   2.702   0.842  13.896 -0.2881 -0.3968 -0.0477
20086TIP3    H281750   2.718   0.702  13.841  0.4987 -0.2500 -0.2025
20087TIP3   OH281751   5.872   0.232   2.869 -0.1961  0.5581 -0.2061
20087TIP3    H181752   5.962   0.245   2.838 -0.3655 -0.2477 -1.0764
20087TIP3    H281753   5.872   0.268   2.958  0.8843  0.9054 -0.3281
20088TIP3   OH281754   1.337   2.879  17.039  0.1096  0.3594  0.0286
20088TIP3    H181755   1.355   2.946  17.105 -1.0265 -0.5607  1.3221
20088TIP3    H281756   1.421   2.833  17.027  0.2365  0.2725  1.1515
20089TIP3   OH281757   6.028   1.257  14.375 -0.0606  0.0743 -0.6762
20089TIP3    H181758   6.025   1.170  14.334 -0.7024 -0.2576  0.0334
20089TIP3    H281759   5.950   1.301  14.341  0.3625  0.4485 -1.1759
20090TIP3   OH281760   0.391   4.020  13.876  0.7094 -0.0273  0.1889
20090TIP3    H181761   0.448   4.092  13.904 -1.9278  2.4267 -0.3081
20090TIP3    H281762   0.310   4.063  13.849 -1.3842 -3.2994  0.7615
20091TIP3   OH281763   6.476   5.650  14.091 -0.2833 -0.1496 -0.0596
20091TIP3    H181764   6.504   5.741  14.106  1.4187 -0.7941  0.9989
20091TIP3    H281765   6.496   5.634  13.999  1.9191 -0.2117  0.3756
20092TIP3   OH281766   6.051   2.443   1.367  0.7706 -0.0853  0.2211
20092TIP3    H181767   6.134   2.396   1.373  1.9881  1.9779  0.6480
20092TIP3    H281768   6.055   2.508   1.437 -0.8550  0.6141 -0.2777
20093TIP3   OH281769   1.773   0.485   5.231  0.2071  0.5081  0.2370
20093TIP3    H181770   1.839   0.417   5.247  0.0264  0.1309 -0.5554
20093TIP3    H281771   1.781   0.544   5.306  0.5698 -0.2263  0.7988
20094TIP3   OH281772   4.253   3.106  10.935 -0.3269  0.2199  0.3110
20094TIP3    H181773   4.340   3.114  10.895 -0.6109  0.6437 -0.2422
20094TIP3    H281774   4.212   3.034  10.887 -1.5476  2.2435 -1.8924
20095TIP3   OH281775   4.676   5.657  14.700 -0.8546 -0.6239 -0.2639
20095TIP3    H181776   4.668   5.705  14.618 -1.7661 -1.5757 -0.7594
20095TIP3    H281777   4.665   5.565  14.675 -0.0183 -1.0364  0.7758
20096TIP3   OH281778   4.388   4.665   0.838  0.3321 -0.2337  0.6911
20096TIP3    H181779   4.416   4.754   0.860  1.9957 -0.3983 -0.5805
20096TIP3    H281780   4.469   4.615   0.835 -0.5948 -1.9122  1.7103
20097TIP3   OH281781   1.151   3.412   3.421 -0.1175  0.5480  0.2133
20097TIP3    H181782   1.079   3.388   3.479  0.4641  0.1242  0.7670
20097TIP3    H281783   1.224   3.431   3.479  0.2024  1.0362 -0.3434
20098TIP3   OH281784   0.392   4.810  13.471  1.0612  0.5886  0.5929
20098TIP3    H181785   0.486   4.821  13.459  0.6827  1.5012 -1.9699
20098TIP3    H281786   0.352   4.878  13.417 -1.0946 -0.3740  0.8650
20099TIP3   OH281787   2.645   6.250  11.761  0.2440 -0.2669  0.4535
20099TIP3    H181788   2.570   6.218  11.712 -0.0158  2.2666 -1.0107
20099TIP3    H281789   2.607   6.296  11.835  0.4846 -1.0354  1.0647
20100TIP3   OH281790   5.819   0.868  12.638  0.4757  0.2568 -0.6439
20100TIP3    H181791   5.853   0.890  12.725  0.0765  2.2340 -0.9178
20100TIP3    H281792   5.724   0.861  12.651  0.5305 -0.6748 -0.7063
20101TIP3   OH281793   2.878   0.028  16.090  0.4636 -0.6056  0.8087
20101TIP3    H181794   2.873  -0.048  16.033  0.6454  0.7337 -1.0792
20101TIP3    H281795   2.815   0.010  16.160 -0.0726 -2.1176 -0.0322
20102TIP3   OH281796   4.945   1.551   4.464  0.5184 -0.3663 -0.6311
20102TIP3    H181797   4.957   1.610   4.389 -0.9133  0.0719 -0.5399
20102TIP3    H281798   4.872   1.589   4.513  1.6081 -0.4880  1.1645
20103TIP3   OH281799   1.354   2.281  11.078 -0.3287  0.0433  0.8227
20103TIP3    H181800   1.415   2.307  11.009 -0.6363 -0.1041  0.4907
20103TIP3    H281801   1.273   2.328  11.058 -0.5901 -0.4255  0.7595
20104TIP3   OH281802   4.891   4.022   0.714 -0.2499 -1.2432  0.0147
20104TIP3    H181803   4.834   4.066   0.777  1.5466  2.0851 -0.4900
20104TIP3    H281804   4.980   4.036   0.747  0.7731  0.7254 -3.1683
20105TIP3   OH281805   4.690   3.507  12.161 -0.0388 -0.2546  0.5729
20105TIP3    H181806   4.634   3.584  12.172 -0.7948 -0.6873 -0.2044
20105TIP3    H281807   4.635   3.443  12.117  1.0541 -0.6989 -0.1915
20106TIP3   OH281808   2.602   4.194  17.076 -0.4991  0.3669 -0.2752
20106TIP3    H181809   2.615   4.115  17.024  0.0654 -0.3827  0.9690
20106TIP3    H281810   2.672   4.192  17.141 -0.5885  1.8062 -0.1122
20107TIP3   OH281811   1.584   3.284   3.805  0.1655  0.1751 -0.4536
20107TIP3    H181812   1.552   3.299   3.894 -1.3794 -0.6366 -0.8481
20107TIP3    H281813   1.653   3.218   3.815 -1.4171 -1.4919 -0.0332
20108TIP3   OH281814   0.000   5.383  12.597 -0.1110  0.6284  0.7330
20108TIP3    H181815   0.060   5.411  12.667 -0.1800  0.3028  0.9252
20108TIP3    H281816  -0.083   5.367  12.641  0.7133 -3.0968  1.2908
20109TIP3   OH281817   4.585   3.259   0.266  0.0359 -0.2756 -0.3761
20109TIP3    H181818   4.576   3.227   0.355 -0.2457  0.5241 -0.1098
20109TIP3    H281819   4.673   3.231   0.239  0.1905 -0.3630  0.2101
20110TIP3   OH281820   6.614   0.390   2.707  0.4314  0.2436 -0.2332
20110TIP3    H181821   6.684   0.388   2.772  1.1272 -0.9560 -0.9876
20110TIP3    H281822   6.540   0.348   2.750  0.9889 -0.8386 -0.3041
20111TIP3   OH281823   3.822   6.599   5.056 -0.6421  0.0211 -0.2560
20111TIP3    H181824   3.794   6.570   4.969  0.9341  1.0916 -1.1907
20111TIP3    H281825   3.796   6.691   5.060 -0.3788  0.0784  0.2610
20112TIP3   OH281826   6.336   0.436   5.145  0.6534  0.4928  0.6254
20112TIP3    H181827   6.356   0.353   5.188  2.7234 -0.0244 -1.1906
20112TIP3    H281828   6.305   0.412   5.058 -2.8005  1.5439  1.4054
20113TIP3   OH281829   6.148   3.164  16.090 -0.4624  0.0569  0.1952
20113TIP3    H181830   6.059   3.183  16.120 -0.1201  1.0831  0.6234
20113TIP3    H281831   6.136   3.134  16.000 -1.2317  0.3589  0.1824
20114TIP3   OH281832   4.158   3.541   3.660 -0.4312 -0.0429 -0.0980
20114TIP3    H181833   4.068   3.570   3.674  0.4608  3.8290 -1.2213
20114TIP3    H281834   4.155   3.446   3.674 -4.5270 -0.0230  0.3755
20115TIP3   OH281835   2.645   3.815  11.179  0.3940 -0.5439 -0.2367
20115TIP3    H181836   2.675   3.736  11.224 -1.1128 -0.0886  1.6966
20115TIP3    H281837   2.551   3.801  11.166  0.2409  0.6445 -0.5060
20116TIP3   OH281838   5.930   0.052  13.223 -0.4920 -0.4742  0.1591
20116TIP3    H181839   5.955   0.068  13.132 -0.4983 -1.4144 -0.0220
20116TIP3    H281840   6.011   0.066  13.273 -0.4586 -0.0844 -0.0010
20117TIP3   OH281841   6.739   2.454   3.355 -0.2547 -0.2451 -0.5919
20117TIP3    H181842   6.796   2.532   3.351 -0.5996 -0.0467 -2.8182
20117TIP3    H281843   6.793   2.384   3.319 -0.2483 -0.8652  0.5953
20118TIP3   OH281844   3.786   5.727  10.813  0.0667 -0.4651 -0.2525
20118TIP3    H181845   3.809   5.635  10.807 -1.9740 -1.0102 -0.3518
20118TIP3    H281846   3.736   5.745  10.733 -1.2462  0.1842  0.6674
20119TIP3   OH281847   3.938   1.769  14.239 -0.1597 -0.1626 -0.2293
20119TIP3    H181848   3.962   1.716  14.315  0.1891  1.6641  1.0083
20119TIP3    H281849   3.845   1.751  14.226 -0.1091 -0.8686  0.3186
20120TIP3   OH281850   5.021   2.501  11.046 -0.1937 -0.3345  0.0110
20120TIP3    H181851   4.984   2.476  11.130  0.2619 -0.2458  0.2399
20120TIP3    H281852   5.104   2.453  11.041  0.0339  0.0716 -0.1497
20121TIP3   OH281853   2.961   3.322   5.135 -0.1702 -0.1287 -0.3921
20121TIP3    H181854   2.934   3.395   5.189  1.0350  0.5281 -0.6310
20121TIP3    H281855   2.985   3.253   5.197  1.9175  0.8699  0.0115
20122TIP3   OH281856   5.352   4.944  15.111 -0.1957  0.7948 -0.0325
20122TIP3    H181857   5.343   5.036  15.136 -1.1164  1.1450 -1.5455
20122TIP3    H281858   5.273   4.901  15.145  0.6654  0.3453  1.4755
20123TIP3   OH281859   2.482   6.370  14.019 -0.0972 -0.0329 -0.0805
20123TIP3    H181860   2.471   6.309  13.946  1.0617 -0.9974  0.4964
20123TIP3    H281861   2.428   6.445  13.996 -0.8790 -0.9015 -1.2507
20124TIP3   OH281862   5.418   1.358   6.107 -0.0196 -0.0172  0.3892
20124TIP3    H181863   5.501   1.311   6.107  0.7701  1.3181  0.5655
20124TIP3    H281864   5.375   1.329   6.188  2.1618  2.3320  2.5766
20125TIP3   OH281865   5.806   5.455   0.378  0.1142  0.3835  0.2069
20125TIP3    H181866   5.758   5.536   0.363  1.1620  0.4203 -4.0630
20125TIP3    H281867   5.896   5.483   0.396 -0.2778  0.1429  3.0723
20126TIP3   OH281868   4.917   0.986  13.466 -0.6680 -0.0978 -0.0725
20126TIP3    H181869   4.979   0.928  13.511  0.6905  0.2650 -1.4108
20126TIP3    H281870   4.870   1.030  13.537  1.1862  0.2262  1.0062
20127TIP3   OH281871   6.677   0.992  13.819 -0.0123 -0.4048  0.5798
20127TIP3    H181872   6.683   1.013  13.912 -0.2124  0.0725  0.4908
20127TIP3    H281873   6.639   1.071  13.780  0.2733 -0.5203  0.0672
20128TIP3   OH281874   3.093   0.705   1.289  0.2736  0.0650  0.0671
20128TIP3    H181875   3.106   0.793   1.252 -1.1310  0.8655  1.3116
20128TIP3    H281876   3.054   0.655   1.217  0.1632  0.7635 -0.3786
20129TIP3   OH281877   5.369   5.321   3.608 -0.0971  0.2360 -0.0240
20129TIP3    H181878   5.349   5.338   3.516 -0.7361 -1.6237 -0.2793
20129TIP3    H281879   5.365   5.226   3.616  0.6292  0.3124  1.7896
20130TIP3   OH281880   1.935   1.562   1.536  0.2158  0.5598 -0.5564
20130TIP3    H181881   2.021   1.520   1.546  0.5143  1.2175 -0.2410
20130TIP3    H281882   1.903   1.572   1.625 -1.8374 -2.8884 -0.7649
20131TIP3   OH281883   1.751   1.068   0.599  0.6381 -0.7717 -0.3642
20131TIP3    H181884   1.690   1.038   0.666  0.2725 -1.2979 -0.9241
20131TIP3    H281885   1.794   0.989   0.568 -0.5851 -0.7982 -2.0960
20132TIP3   OH281886   5.558   3.655   0.024 -0.7433  0.0807 -0.1914
20132TIP3    H181887   5.496   3.587   0.048 -0.6067 -0.9891 -2.6028
20132TIP3    H281888   5.621   3.656   0.096 -1.8948 -0.8850  0.8774
20133TIP3   OH281889   5.889   0.331   0.685 -0.7495 -0.2473 -0.7168
20133TIP3    H181890   5.871   0.280   0.764 -1.6226 -0.5166 -1.0887
20133TIP3    H281891   5.869   0.421   0.710  3.8391  0.5767  0.9982
20134TIP3   OH281892   2.997   5.751  16.119 -0.0527  1.2405 -0.6980
20134TIP3    H181893   3.033   5.839  16.110  1.1322  0.7225 -1.3497
20134TIP3    H281894   3.027   5.721  16.205 -0.8119  1.6207 -0.2962
20135TIP3   OH281895   3.779   2.135  13.898 -0.5475 -0.0119  0.2252
20135TIP3    H181896   3.858   2.185  13.916 -0.4595  0.2523 -0.8417
20135TIP3    H281897   3.709   2.185  13.941 -0.1122 -0.4348  1.4725
20136TIP3   OH281898   3.920   3.347  13.127  0.1088 -0.1066  0.2107
20136TIP3    H181899   3.897   3.274  13.070 -1.2961 -1.1253  1.9595
20136TIP3    H281900   3.851   3.412  13.111  1.6022  1.0903 -1.6662
20137TIP3   OH281901   0.948   4.020  17.233 -0.0718 -0.9473 -0.3841
20137TIP3    H181902   0.977   4.085  17.168 -0.1189  0.2527  0.7390
20137TIP3    H281903   1.027   3.971  17.255  0.0746 -0.9340 -0.8763
20138TIP3   OH281904   1.906   5.305  13.415 -0.0969  0.2424 -0.7755
20138TIP3    H181905   1.933   5.382  13.466 -0.9411 -0.3350  0.6228
20138TIP3    H281906   1.980   5.245  13.420 -0.2409  0.1146 -0.0281
20139TIP3   OH281907   4.914   5.987  12.772 -0.1556  0.6069  0.3103
20139TIP3    H181908   4.954   5.943  12.846  1.2933 -2.9133 -2.2784
20139TIP3    H281909   4.950   6.076  12.774  1.0249  0.1485  2.8818
20140TIP3   OH281910   4.994   0.168  12.396  0.0710  0.0544  0.2793
20140TIP3    H181911   4.964   0.233  12.460  1.1951 -1.1471  2.0990
20140TIP3    H281912   5.080   0.141  12.427  0.5902 -0.7144 -1.6793
20141TIP3   OH281913   5.667   3.772   1.835  0.1286 -0.2554 -0.1458
20141TIP3    H181914   5.718   3.829   1.892 -0.9617  3.0922 -2.2434
20141TIP3    H281915   5.586   3.756   1.884 -0.2672  1.5220 -0.1513
20142TIP3   OH281916   0.016   0.672  11.214  0.1756 -0.0125  0.6158
20142TIP3    H181917   0.001   0.760  11.248 -0.4135 -0.4200  1.4667
20142TIP3    H281918   0.016   0.682  11.119  0.6494  0.9793  0.7069
20143TIP3   OH281919   1.152   6.311  11.601  0.0014 -0.3343 -0.5708
20143TIP3    H181920   1.220   6.300  11.668 -0.5088 -0.2904 -0.0445
20143TIP3    H281921   1.189   6.376  11.541 -0.0453  0.5596  0.3453
20144TIP3   OH281922   0.929   1.107   2.398  0.2461  0.0300 -0.8839
20144TIP3    H181923   0.944   1.132   2.306 -0.6456  0.0107 -1.0402
20144TIP3    H281924   0.844   1.064   2.398 -0.6059  1.6369  0.2523
20145TIP3   OH281925   6.712   2.624  15.347 -0.4596 -0.3177  0.5793
20145TIP3    H181926   6.668   2.672  15.277 -1.1841  0.3286  1.4413
20145TIP3    H281927   6.665   2.541  15.353  1.2237 -1.4844 -1.3672
20146TIP3   OH281928   2.325   5.184   2.219  0.2475 -0.0109  0.1070
20146TIP3    H181929   2.334   5.101   2.266  0.9597 -0.1514 -0.2709
20146TIP3    H281930   2.369   5.170   2.136 -2.2048 -0.2408 -1.2560
20147TIP3   OH281931   6.629   4.319   4.776  0.0701  0.1681  0.3676
20147TIP3    H181932   6.599   4.386   4.837 -0.1355  0.7286 -0.3242
20147TIP3    H281933   6.551   4.296   4.726 -0.3002 -1.9432  1.7968
20148TIP3   OH281934   5.991   0.396   4.947  0.7512 -0.6279 -0.0475
20148TIP3    H181935   5.998   0.339   5.023  0.4590  1.1268  1.3652
20148TIP3    H281936   6.077   0.392   4.905  0.8332 -1.7973  0.2056
20149TIP3   OH281937   3.030   3.663  14.729  0.0705 -1.0352 -0.1358
20149TIP3    H181938   2.958   3.698  14.677  0.4979 -1.0392 -0.7439
20149TIP3    H281939   2.995   3.656  14.818 -0.8688 -1.6233 -0.5379
20150TIP3   OH281940   1.600   2.517  16.974 -0.2699 -0.2633  0.7028
20150TIP3    H181941   1.505   2.520  16.958  0.0154  1.0216 -0.9673
20150TIP3    H281942   1.637   2.582  16.914  1.8537 -1.9603  0.0493
20151TIP3   OH281943   0.117   6.765  11.622 -0.9435  0.3896  0.1140
20151TIP3    H181944   0.115   6.697  11.555 -1.4465  0.0465  0.4713
20151TIP3    H281945   0.142   6.844  11.574  2.1003 -0.4582  0.1051
20152TIP3   OH281946   1.094   3.954   0.676  0.4255  0.1509  0.0622
20152TIP3    H181947   1.060   3.958   0.765  1.9006 -0.2694  0.6838
20152TIP3    H281948   1.039   3.890   0.631  0.7966 -1.0170  1.2201
20153TIP3   OH281949   6.336   6.319   0.239  0.7720 -0.0841 -0.2560
20153TIP3    H181950   6.341   6.307   0.145  0.3608 -2.4039 -0.0456
20153TIP3    H281951   6.324   6.231   0.274 -1.5404  0.9087  1.7920
20154TIP3   OH281952   1.942   1.742   6.519 -0.4034 -0.1606  0.1960
20154TIP3    H181953   1.888   1.782   6.451  1.4160 -0.9536 -1.8405
20154TIP3    H281954   1.965   1.815   6.576 -1.7647  0.5837 -0.1548
20155TIP3   OH281955   5.837   5.703  15.845 -0.0356  0.0038  0.0612
20155TIP3    H181956   5.925   5.671  15.867  0.1930 -0.0299 -0.8463
20155TIP3    H281957   5.780   5.628  15.862  0.4843 -0.9118 -1.9686
20156TIP3   OH281958   0.169   0.898  12.210  0.1497  0.2578 -0.1621
20156TIP3    H181959   0.111   0.963  12.171  2.0556  1.4242 -1.1797
20156TIP3    H281960   0.136   0.887  12.299 -0.5145  2.2851 -0.1017
20157TIP3   OH281961   1.965   5.985  10.575 -0.2828  0.4425  0.5538
20157TIP3    H181962   1.978   6.079  10.577  2.6255  0.1540 -0.3656
20157TIP3    H281963   1.988   5.956  10.664  0.9888  0.4238  0.2377
20158TIP3   OH281964   4.903   5.802  12.559 -0.0573 -0.1267 -0.3559
20158TIP3    H181965   4.984   5.751  12.562  0.7153  0.9671 -1.3286
20158TIP3    H281966   4.912   5.867  12.629 -0.7016 -0.8294  0.3936
20159TIP3   OH281967   4.783   4.078  16.075 -0.4595 -0.2072 -0.0447
20159TIP3    H181968   4.835   4.002  16.100  0.5784  0.4288 -0.1836
20159TIP3    H281969   4.848   4.144  16.051 -1.3014  0.9694  0.7941
20160TIP3   OH281970   3.874   0.611  15.434 -0.7283 -0.0284 -0.6667
20160TIP3    H181971   3.929   0.539  15.404 -1.2505 -0.8577  0.3201
20160TIP3    H281972   3.803   0.615  15.370  0.1759  0.7208 -1.6617
20161TIP3   OH281973   2.610   5.268  15.014  0.2103  0.7028 -0.4676
20161TIP3    H181974   2.691   5.221  15.030  1.3001  1.7035 -2.5682
20161TIP3    H281975   2.541   5.201  15.018  0.9387 -0.0148  2.2522
20162TIP3   OH281976   0.868   4.934   3.784 -0.1662 -0.2183  0.2032
20162TIP3    H181977   0.810   4.866   3.752 -0.6999 -0.2903  1.2600
20162TIP3    H281978   0.821   5.016   3.767 -0.2372 -0.2270  0.3492
20163TIP3   OH281979   6.555   6.503   5.359  0.1256 -0.6289 -0.1702
20163TIP3    H181980   6.641   6.498   5.401  0.5824 -0.9088 -1.1161
20163TIP3    H281981   6.495   6.467   5.424  0.7193 -0.4388  0.4971
20164TIP3   OH281982   3.197   4.793   5.753  0.6627 -0.2888 -0.2115
20164TIP3    H181983   3.167   4.720   5.807  0.7558  0.5056  0.9479
20164TIP3    H281984   3.166   4.871   5.798  2.5722  0.4811 -0.1274
20165TIP3   OH281985   2.519   1.759  16.229 -0.7733 -0.4784  0.0271
20165TIP3    H181986   2.551   1.840  16.189 -1.4003 -0.5796 -0.7076
20165TIP3    H281987   2.475   1.788  16.309  0.7127 -0.2985  0.8087
20166TIP3   OH281988   6.488   0.220   3.660 -0.4812 -0.0973  0.3828
20166TIP3    H181989   6.419   0.205   3.595 -0.4964 -1.0731  0.6119
20166TIP3    H281990   6.487   0.142   3.715  0.5208  0.0642  0.6540
20167TIP3   OH281991   2.775   2.211   1.857 -0.0593  0.5227 -0.0314
20167TIP3    H181992   2.741   2.291   1.815 -0.7712  1.3453  1.9992
20167TIP3    H281993   2.772   2.230   1.950 -0.6703 -2.0518  0.5495
20168TIP3   OH281994   5.715   4.012  12.670 -0.2819 -0.3645  0.0611
20168TIP3    H181995   5.671   3.957  12.605  0.0037 -0.9156  0.3313
20168TIP3    H281996   5.646   4.036  12.732 -0.6146  0.3910 -0.5949
20169TIP3   OH281997   3.724   3.119   5.708  0.0908  0.2055  0.0596
20169TIP3    H181998   3.809   3.082   5.734 -0.3893 -0.8836  0.1422
20169TIP3    H281999   3.715   3.198   5.760 -0.2841 -1.2728  2.3779
20170TIP3   OH282000   4.584   0.917   6.414  0.5762  0.5556 -0.4218
20170TIP3    H182001   4.600   0.828   6.444 -2.0898 -0.3037 -1.1973
20170TIP3    H282002   4.614   0.973   6.485  2.0319 -0.9489  0.2134
20171TIP3   OH282003   1.562   6.086   1.082  0.4845  0.3255 -0.1207
20171TIP3    H182004   1.602   6.082   1.170 -1.1805 -0.4037  0.6450
20171TIP3    H282005   1.557   5.995   1.055  1.9989  0.6091 -1.5060
20172TIP3   OH282006   4.236   4.300  12.992  0.4667  0.2256  0.1930
20172TIP3    H182007   4.252   4.212  12.959  0.6874  0.6175 -0.7851
20172TIP3    H282008   4.141   4.310  12.987  0.3434 -0.2805  1.2050
20173TIP3   OH282009   1.268   3.573   3.767 -0.0371  0.0500 -0.2827
20173TIP3    H182010   1.208   3.593   3.696 -0.6266 -1.1380 -0.1581
20173TIP3    H282011   1.239   3.487   3.799  0.1908  0.5531  1.4036
20174TIP3   OH282012   2.281   6.699  11.742 -0.4573  0.1790  0.6310
20174TIP3    H182013   2.346   6.659  11.799  1.4767 -1.0942 -2.1791
20174TIP3    H282014   2.210   6.635  11.739  0.2610 -0.6315  0.2472
20175TIP3   OH282015   2.218   2.043   3.430 -0.0859  0.2988  0.5744
20175TIP3    H182016   2.249   1.981   3.364  1.1484  1.0499  0.4021
20175TIP3    H282017   2.153   1.995   3.481 -0.0285 -0.7380 -0.3064
20176TIP3   OH282018   1.814   2.242   0.497  0.0574 -0.5500 -0.1220
20176TIP3    H182019   1.870   2.313   0.465 -0.6502 -0.0009 -0.1495
20176TIP3    H282020   1.834   2.168   0.440  1.1307 -0.5150  0.1869
20177TIP3   OH282021   3.246   2.869   4.141 -0.5078  0.2051 -0.0102
20177TIP3    H182022   3.331   2.848   4.102 -0.9929  0.3752 -1.1704
20177TIP3    H282023   3.256   2.959   4.172  0.4652 -0.5101  1.9544
20178TIP3   OH282024   2.924   6.490   4.427  0.1027  0.2132 -0.4405
20178TIP3    H182025   2.853   6.528   4.376 -0.6412 -0.2003  0.2561
20178TIP3    H282026   2.904   6.396   4.430  0.7566  0.0709 -0.3607
20179TIP3   OH282027   5.712   1.551  13.653 -0.2517 -0.0395 -0.4933
20179TIP3    H182028   5.665   1.601  13.720 -0.5206  0.1393 -0.8083
20179TIP3    H282029   5.790   1.603  13.634  0.2824 -0.5359  0.3194
20180TIP3   OH282030   0.494   5.020   1.999  0.2116  0.4877  0.2707
20180TIP3    H182031   0.556   5.077   2.044 -0.6362  2.0466 -0.4549
20180TIP3    H282032   0.419   5.077   1.979 -0.7999 -0.9613 -0.2220
20181TIP3   OH282033   4.265   5.032  14.338 -0.4477  0.1537  0.0202
20181TIP3    H182034   4.275   5.125  14.354  0.1336  0.0052  0.5740
20181TIP3    H282035   4.284   4.991  14.423 -1.1392 -0.4407 -0.1014
20182TIP3   OH282036   4.389   4.820  10.780  0.4108  0.7764  0.6922
20182TIP3    H182037   4.472   4.847  10.820  0.0818 -0.4893  2.3266
20182TIP3    H282038   4.374   4.731  10.813 -0.1019 -0.2298 -1.9916
20183TIP3   OH282039   2.395   3.534  10.381  0.7603  0.2411 -0.2577
20183TIP3    H182040   2.360   3.468  10.322  0.3813  0.4196 -0.2406
20183TIP3    H282041   2.484   3.506  10.400  1.0447  0.4197 -1.2807
20184TIP3   OH282042   3.989   6.062   1.577  0.4165  0.0812 -0.0260
20184TIP3    H182043   4.070   6.064   1.627  0.7511 -2.6223 -0.3266
20184TIP3    H282044   4.008   6.004   1.503 -1.1807  1.0670 -1.2903
20185TIP3   OH282045   3.020   2.103   2.343 -0.2355  0.0894  0.8123
20185TIP3    H182046   3.101   2.134   2.382 -0.4277 -0.2623  1.5138
20185TIP3    H282047   2.952   2.160   2.379 -0.0298  2.2816 -1.9809
20186TIP3   OH282048   2.217   2.093   5.534  0.1294 -0.3388 -0.2172
20186TIP3    H182049   2.188   2.183   5.550 -1.5076 -0.8458 -0.1359
20186TIP3    H282050   2.308   2.102   5.508  0.0879  1.3210  0.0579
20187TIP3   OH282051   4.042   6.084   3.887  0.3202  0.3100  0.2870
20187TIP3    H182052   4.088   6.005   3.857  0.8528 -0.0406  1.9074
20187TIP3    H282053   4.019   6.065   3.978 -1.9131  1.0041 -0.0699
20188TIP3   OH282054   1.604   0.162  11.650  0.4143 -0.1074 -0.2781
20188TIP3    H182055   1.570   0.223  11.584 -0.8869  1.2768  1.5427
20188TIP3    H282056   1.641   0.219  11.717  0.8706 -1.4299  0.6316
20189TIP3   OH282057   4.045   0.225  10.344  0.3817 -0.1189 -0.1792
20189TIP3    H182058   3.978   0.293  10.339  0.8797  0.4691  0.8650
20189TIP3    H282059   3.996   0.144  10.357 -0.1472  0.2483  0.1458
20190TIP3   OH282060   1.292   6.015  14.901 -0.0211  0.0622 -0.3146
20190TIP3    H182061   1.206   6.031  14.864 -0.4913 -0.4472  0.5272
20190TIP3    H282062   1.317   6.098  14.942  0.6742  0.7491 -2.0596
20191TIP3   OH282063   3.073   3.155   4.426  0.0741 -0.1183 -0.0390
20191TIP3    H182064   2.985   3.154   4.389 -0.2612  2.3169  0.4948
20191TIP3    H282065   3.069   3.221   4.495  2.4421  0.4817 -0.3894
20192TIP3   OH282066   0.863   0.764  16.732  1.0231 -0.5652 -0.4206
20192TIP3    H182067   0.841   0.851  16.698 -0.6282 -0.8753 -0.2470
20192TIP3    H282068   0.958   0.765  16.742  1.1526  0.8156 -1.5005
20193TIP3   OH282069   3.879   2.099   3.998  0.0566 -0.5715 -0.4497
20193TIP3    H182070   3.972   2.115   3.982  0.1318 -0.7741 -0.2066
20193TIP3    H282071   3.845   2.184   4.027  0.3801 -0.7500  0.4731
20194TIP3   OH282072   1.452   2.897  14.603 -0.6486  0.1564  0.2155
20194TIP3    H182073   1.459   2.864  14.513 -1.0661 -2.1248  0.9712
20194TIP3    H282074   1.524   2.959  14.611  3.2538 -3.8707  0.0261
20195TIP3   OH282075   5.545   1.411  16.329 -0.3271 -0.7544 -0.6454
20195TIP3    H182076   5.484   1.385  16.260 -2.3010  0.7532  0.3893
20195TIP3    H282077   5.490   1.415  16.408  1.6498 -1.5323  0.8250
20196TIP3   OH282078   6.476   0.646   3.533 -0.0789  0.0242 -0.1677
20196TIP3    H182079   6.418   0.593   3.479 -0.8864  0.5793  0.1375
20196TIP3    H282080   6.563   0.607   3.521 -0.2695  0.0309 -1.7046
20197TIP3   OH282081   2.274   4.853  11.798 -0.2863 -0.2263 -0.1195
20197TIP3    H182082   2.329   4.827  11.724  0.0787  2.9333 -1.1285
20197TIP3    H282083   2.336   4.880  11.865 -0.5861  0.4624 -0.1127
20198TIP3   OH282084   2.043   4.850  14.498  0.4528  0.6375 -0.6680
20198TIP3    H182085   2.115   4.867  14.558  0.1989  0.4803 -0.3136
20198TIP3    H282086   1.964   4.873  14.547  0.1853 -0.3210 -0.6217
20199TIP3   OH282087   2.643   6.132  14.388 -0.4418  0.3361 -0.2059
20199TIP3    H182088   2.728   6.177  14.396 -0.7844  0.8414  0.9374
20199TIP3    H282089   2.609   6.158  14.303  0.7881 -0.3124 -0.9166
20200TIP3   OH282090   0.075   1.663  13.003  0.0955  0.1125 -0.5941
20200TIP3    H182091   0.040   1.712  13.077 -1.2076  1.5050 -2.0607
20200TIP3    H282092   0.102   1.579  13.040  0.7883  1.2898  1.6815
20201TIP3   OH282093   3.922   5.138   4.634  0.5868  0.0219  0.2920
20201TIP3    H182094   3.987   5.149   4.703 -1.4139  0.1515  2.2723
20201TIP3    H282095   3.907   5.043   4.630 -0.0279  0.0930  0.7783
20202TIP3   OH282096   4.331   6.696  13.192  0.3300  0.2787 -0.7293
20202TIP3    H182097   4.387   6.680  13.116  1.4901 -0.6208  0.2656
20202TIP3    H282098   4.309   6.789  13.187  2.5643  0.8674 -0.7618
20203TIP3   OH282099   6.292   3.281   0.201 -0.4085  0.0668 -0.0568
20203TIP3    H182100   6.281   3.209   0.138  1.3290  0.6369 -1.0827
20203TIP3    H282101   6.336   3.240   0.276  0.1842 -0.0322 -0.4547
20204TIP3   OH282102   3.361   3.203  16.001  0.3091  0.0653  0.5159
20204TIP3    H182103   3.396   3.276  16.052  0.1480  1.0703 -0.7786
20204TIP3    H282104   3.392   3.218  15.912  0.5487 -1.6331  0.2692
20205TIP3   OH282105   0.510   0.521  15.251 -0.0152  0.2211  0.0853
20205TIP3    H182106   0.492   0.430  15.231 -1.1727  0.3145  0.6211
20205TIP3    H282107   0.467   0.571  15.181 -2.1061  0.4506  1.4464
20206TIP3   OH282108   6.081   5.310  11.327  0.5076 -0.1494  0.1262
20206TIP3    H182109   6.123   5.359  11.256  1.6722 -1.0940  0.1290
20206TIP3    H282110   6.054   5.228  11.286  0.0920 -0.2060  0.5080
20207TIP3   OH282111   2.724   1.395   0.072 -0.5768 -0.2571  0.3051
20207TIP3    H182112   2.760   1.358   0.152 -0.6633 -0.8844  0.0621
20207TIP3    H282113   2.790   1.376   0.005 -1.4096 -1.6072 -0.1853
20208TIP3   OH282114   0.834   6.699   3.946 -0.0026  0.0624  0.1733
20208TIP3    H182115   0.913   6.744   3.919 -1.6783  1.7068 -2.5105
20208TIP3    H282116   0.838   6.614   3.901 -0.7113  1.0439 -1.8742
20209TIP3   OH282117   1.002   1.716  11.419 -0.0122 -0.5592  0.2371
20209TIP3    H182118   1.091   1.707  11.384 -0.2524  1.0846 -0.9066
20209TIP3    H282119   0.959   1.776  11.359 -0.8042  1.5506  2.7332
20210TIP3   OH282120   0.664   6.071   4.459  0.1378 -1.0065  0.3266
20210TIP3    H182121   0.570   6.089   4.458  0.3754  0.6885 -2.6279
20210TIP3    H282122   0.703   6.152   4.494  0.5866 -0.8574 -0.5063
20211TIP3   OH282123   6.578   2.045   1.932 -0.4259  0.2115 -0.0104
20211TIP3    H182124   6.556   2.125   1.980  0.9849  0.0753  0.9212
20211TIP3    H282125   6.594   1.979   2.000 -0.0149 -0.4357 -0.7062
20212TIP3   OH282126   0.054   2.908   4.282 -0.0469  0.0232 -0.1751
20212TIP3    H182127   0.022   2.818   4.281  0.1546 -0.2727  3.7492
20212TIP3    H282128  -0.019   2.960   4.317  0.4288  1.0638 -0.6785
20213TIP3   OH282129   4.409   4.618   3.548  0.2404  0.3028  0.2515
20213TIP3    H182130   4.471   4.669   3.496 -0.6896 -1.4515 -2.7973
20213TIP3    H282131   4.459   4.543   3.579  0.2631  0.1995 -0.0348
20214TIP3   OH282132   5.991   0.163   3.194 -0.3149 -0.4348 -0.2894
20214TIP3    H182133   6.006   0.073   3.220 -3.1174 -2.0303 -3.4136
20214TIP3    H282134   6.032   0.170   3.107 -0.8803  1.0226 -0.4752
20215TIP3   OH282135   2.080   1.414  10.477  0.1729 -0.0885  0.2725
20215TIP3    H182136   2.059   1.420  10.384 -1.6518  0.4766  0.6954
20215TIP3    H282137   2.083   1.320  10.495 -1.1952 -0.2090 -0.0151
20216TIP3   OH282138   4.469   2.884   4.469 -0.3441 -0.1749 -0.1768
20216TIP3    H182139   4.541   2.946   4.470 -1.1412  0.7806 -0.3325
20216TIP3    H282140   4.416   2.907   4.546 -1.9237  0.9105 -1.5259
20217TIP3   OH282141   0.100   5.440   4.919  0.7033 -0.1785 -0.1944
20217TIP3    H182142   0.109   5.397   5.004  0.0683  1.9995  1.0446
20217TIP3    H282143   0.017   5.487   4.924  0.6893  0.0629 -2.0033
20218TIP3   OH282144   1.530   6.646  11.579 -0.3960 -0.0633 -0.6771
20218TIP3    H182145   1.492   6.707  11.643  1.1554  2.3814 -1.9545
20218TIP3    H282146   1.472   6.652  11.503  0.1256  0.3927 -1.0505
20219TIP3   OH282147   5.184   0.831  10.829  0.3020 -0.2100 -0.3818
20219TIP3    H182148   5.111   0.769  10.832  0.2842 -0.1343  0.9995
20219TIP3    H282149   5.262   0.775  10.831  0.2931 -0.2129  1.4009
20220TIP3   OH282150   3.790   6.587   1.118 -0.4133  0.8339 -0.5280
20220TIP3    H182151   3.700   6.562   1.139  0.2246 -1.5333 -0.3571
20220TIP3    H282152   3.786   6.618   1.028 -1.3057  0.1412 -0.7410
20221TIP3   OH282153   2.301   2.847   6.551  0.2254  0.1111 -0.4722
20221TIP3    H182154   2.216   2.890   6.556  1.1134  2.0106 -0.9030
20221TIP3    H282155   2.364   2.918   6.562  1.7664 -1.2977  0.1361
20222TIP3   OH282156   1.185   0.021   4.628  0.2995 -0.1219  0.0392
20222TIP3    H182157   1.271   0.026   4.670 -0.0696  0.4331  0.7502
20222TIP3    H282158   1.184   0.095   4.566 -0.1477  0.6817  0.9787
20223TIP3   OH282159   0.812   0.016  13.162 -0.2682  0.4094  0.1807
20223TIP3    H182160   0.861  -0.066  13.159  1.4042  1.3935 -0.3748
20223TIP3    H282161   0.860   0.071  13.223 -0.8061  1.3297 -0.1974
20224TIP3   OH282162   1.151   3.328   3.850  0.6706 -0.4136 -0.0807
20224TIP3    H182163   1.079   3.287   3.898  0.4686 -0.7823 -0.6884
20224TIP3    H282164   1.201   3.255   3.814  0.3876 -0.1424 -1.0586
20225TIP3   OH282165   6.149   3.026  16.828  0.0885 -0.2742  0.4443
20225TIP3    H182166   6.224   2.992  16.877 -1.2929 -1.6638  1.6766
20225TIP3    H282167   6.082   3.041  16.894 -0.3826  2.0830 -0.4797
20226TIP3   OH282168   4.573   4.235   1.763 -0.4602 -0.2610  0.3401
20226TIP3    H182169   4.489   4.259   1.802 -0.6721 -0.2646 -0.1090
20226TIP3    H282170   4.566   4.141   1.748 -0.8795 -0.0645 -0.8650
20227TIP3   OH282171   0.436   2.282   5.323 -0.3393  0.0645 -0.0266
20227TIP3    H182172   0.518   2.233   5.324  0.3155  1.1233 -0.1439
20227TIP3    H282173   0.376   2.231   5.378  0.5000 -0.5407  0.3395
20228TIP3   OH282174   3.806   2.903  15.320  0.6707 -0.1001 -0.3972
20228TIP3    H182175   3.784   2.820  15.363  1.0740 -1.0231 -1.8828
20228TIP3    H282176   3.800   2.884  15.226 -1.4600  2.1698 -0.8337
20229TIP3   OH282177   4.825   1.921   6.687  0.1982 -0.6061  0.1657
20229TIP3    H182178   4.737   1.918   6.649 -0.1392  0.9952  0.7424
20229TIP3    H282179   4.881   1.884   6.619 -0.7845 -0.7257 -0.6167
20230TIP3   OH282180   2.234   0.831   0.551 -0.3686 -0.3974  0.6813
20230TIP3    H182181   2.212   0.800   0.638 -0.2503 -1.3172  0.3985
20230TIP3    H282182   2.194   0.767   0.492 -1.8549  1.0997 -0.0096
20231TIP3   OH282183   5.350   5.403  10.598 -0.5498  0.1641 -0.0534
20231TIP3    H182184   5.351   5.333  10.664 -1.2516 -1.5827 -1.7985
20231TIP3    H282185   5.430   5.453  10.615  0.5062 -1.6646  0.6372
20232TIP3   OH282186   4.314   4.975   1.604  1.1023 -0.2407  0.1592
20232TIP3    H182187   4.385   4.990   1.541  0.1517 -1.2903 -1.2244
20232TIP3    H282188   4.236   4.965   1.550 -0.1618  1.0125  1.6558
20233TIP3   OH282189   3.648   6.464   4.523  0.0721  0.1893  0.1445
20233TIP3    H182190   3.579   6.400   4.503 -0.4840  0.6936  0.4227
20233TIP3    H282191   3.674   6.498   4.437 -0.5089  0.4906  0.0797
20234CLA    CLA82192   6.647   4.819   0.177  0.5931 -0.1331 -0.5659
20235LIG     O182193   3.776   3.559  16.697 -0.4503  0.6223  0.3490
20235LIG     O282194   3.948   3.508  16.872  0.3184 -0.4234  0.0887
20235LIG     O382195   3.248   3.142  16.333  0.1275 -0.1013  0.3030
20235LIG     O482196   3.027   3.317  16.270 -0.4342 -0.5076  0.7659
20235LIG      N82197   3.797   3.250  16.803 -0.4007 -0.1704  0.5785
20235LIG     C182198   3.745   3.376  16.869  0.2261  0.2799 -0.7800
20235LIG     C282199   3.689   3.142  16.804  0.3696  0.2166 -0.2529
20235LIG     C382200   3.838   3.277  16.660  0.3703  0.7750  0.4867
20235LIG     C482201   3.913   3.209  16.883 -0.4976 -0.7050 -0.2244
20235LIG     C582202   3.812   3.515  16.842  0.1213  0.1934  0.3232
20235LIG     C682203   3.584   3.185  16.707  0.0429  1.1616  0.3895
20235LIG     C782204   3.580   3.098  16.592  0.5488  0.6303 -0.3867
20235LIG     C882205   3.475   3.272  16.729  0.1120  0.2178  0.2218
20235LIG     C982206   3.486   3.122  16.490  0.6215  0.2006  0.1651
20235LIG    C1082207   3.380   3.294  16.626 -0.1863 -0.8278 -0.1240
20235LIG    C1182208   3.650   3.626  16.685  0.6350  0.0051 -0.2920
20235LIG    C1282209   4.015   3.630  16.833  0.1532 -0.0366  1.3715
20235LIG    C1382210   3.383   3.220  16.510 -0.1282  0.1718 -0.8670
20235LIG    C1482211   3.647   3.716  16.562 -0.4951 -0.4784 -0.3927
20235LIG    C1582212   4.151   3.626  16.897 -0.3374  0.1133  0.1794
20235LIG    C1682213   3.290   3.241  16.399  0.0679 -0.2430 -0.4472
20235LIG    C1782214   3.251   3.385  16.363  0.3828 -0.5925  0.7616
20235LIG    C1882215   3.119   3.414  16.314  0.1276  0.6268  0.0709
20235LIG    C1982216   3.327   3.496  16.392  0.2351  0.1667 -0.1944
20235LIG    C2082217   3.070   3.545  16.291 -0.4624 -0.0031 -0.3544
20235LIG    C2182218   3.152   3.653  16.329 -0.1299  0.3926 -0.2624
20235LIG    C2282219   3.281   3.625  16.380  0.0447 -0.3890  0.3093
20235LIG    C2382220   3.104   3.791  16.302 -0.3480  0.0183 -0.2918
20235LIG     H182221   3.755   3.373  16.977  1.1900 -0.1476 -0.8708
20235LIG     H282222   3.639   3.392  16.856 -0.0448 -0.3114  0.5181
20235LIG     H382223   3.635   3.133  16.897 -0.9523  1.0969 -0.8992
20235LIG     H482224   3.735   3.049  16.773  1.2499  0.4625  0.2691
20235LIG     H582225   3.750   3.296  16.601  0.2139 -2.9991 -0.7469
20235LIG     H682226   3.887   3.185  16.634 -0.0374  1.0917 -1.5035
20235LIG     H782227   3.903   3.363  16.657 -0.6040  1.6893  2.8723
20235LIG     H882228   3.982   3.145  16.829  0.2443  0.9819 -1.3446
20235LIG     H982229   3.887   3.163  16.977 -1.5182 -0.0463 -0.1777
20235LIG    H1082230   3.976   3.294  16.904  0.1204 -1.2795  0.2750
20235LIG    H1182231   3.763   3.584  16.915 -1.2236  1.6739 -1.8527
20235LIG    H1282232   3.654   3.024  16.568  0.6760  1.5419 -3.1256
20235LIG    H1382233   3.480   3.334  16.817 -3.2023 -1.0193  1.4422
20235LIG    H1482234   3.493   3.050  16.410 -3.1985 -1.7385  1.3200
20235LIG    H1582235   3.305   3.369  16.644  0.0749 -0.6127  0.0879
20235LIG    H1682236   3.630   3.687  16.775 -0.9159  0.8544 -1.1758
20235LIG    H1782237   3.574   3.546  16.670  2.0357 -1.0959 -1.9399
20235LIG    H1882238   3.962   3.723  16.862 -1.2387 -0.5334  0.5427
20235LIG    H1982239   4.016   3.635  16.722  0.7989 -0.5842  1.3413
20235LIG    H2082240   3.598   3.814  16.584  0.4333 -0.4161  1.7454
20235LIG    H2182241   3.619   3.670  16.465  0.7003 -2.8015  0.2831
20235LIG    H2282242   3.751   3.749  16.540 -0.1874 -1.7993 -0.9608
20235LIG    H2382243   4.212   3.552  16.842 -2.1622 -0.5554 -1.0296
20235LIG    H2482244   4.143   3.602  17.006 -0.0138  2.4176  0.7650
20235LIG    H2582245   4.200   3.726  16.894 -5.1758  2.7824 -0.8311
20235LIG    H2682246   3.426   3.477  16.430 -0.1247  0.2677  0.8372
20235LIG    H2782247   2.977   3.562  16.238  1.2289 -0.5660 -3.8237
20235LIG    H2882248   3.343   3.713  16.385 -3.0946  2.1178 -1.5959
20235LIG    H2982249   2.996   3.800  16.327 -0.3957 -0.4769 -0.3110
20235LIG    H3082250   3.121   3.823  16.197  0.2831 -1.8619 -0.7936
20235LIG    H3182251   3.158   3.859  16.371  0.8607 -0.3208 -0.8840
20235LIG    H3282252   3.072   3.232  16.261  0.5156  0.0805 -0.4924
   6.82582   6.82582  17.24209
